<event>
 9    2  0.9254368E-005  0.1159755E+03  0.7546771E-02  0.1253065E+00
          2   -1    0    0  502    0 -0.00000000000E+00  0.00000000000E+00  0.92650378732E+02  0.92650378732E+02  0.00000000000E+00 0. -1.
         21   -1    0    0  501  502  0.00000000000E+00 -0.00000000000E+00 -0.40536873017E+03  0.40536873017E+03  0.00000000000E+00 0. -1.
         23    2    1    2    0    0 -0.77974094604E+02  0.33311025523E+02  0.17094344252E+02  0.12529924958E+03  0.90653745041E+02 0.  0.
         24    2    1    2    0    0  0.48638221032E+02 -0.41794131360E+00 -0.96434872308E+02  0.13521668689E+03  0.81351192964E+02 0.  0.
        -13    1    4    4    0    0  0.38668675479E+02 -0.38552662867E+02 -0.47429995027E+02  0.72326887847E+02  0.00000000000E+00 0.  1.
         14    1    4    4    0    0  0.99695455527E+01  0.38134721553E+02 -0.49004877281E+02  0.62889799044E+02  0.00000000000E+00 0. -1.
        -11    1    3    3    0    0 -0.53609611294E+02  0.62706811920E+02 -0.21832021999E+01  0.82528183405E+02  0.00000000000E+00 0. -1.
         11    1    3    3    0    0 -0.24364483310E+02 -0.29395786396E+02  0.19277546452E+02  0.42771066178E+02  0.00000000000E+00 0.  1.
          1    1    1    2  501    0  0.29335873572E+02 -0.32893084210E+02 -0.23337782338E+03  0.23750317242E+03  0.00000000000E+00 0. -1.
<scales pt_clust_5="13000.00000" pt_clust_6="13000.00000" pt_clust_7="13000.00000" pt_clust_8="13000.00000" pt_clust_9="44.07435"></scales>
<clustering>
<clus scale="   44.074">  2  9  1 -1</clus>
<clus scale="   81.351">  5  6 -1 -1</clus>
<clus scale="   90.654">  7  8 -1 -1</clus>
<clus scale="  108.859">  2  5  1 -1</clus>
<clus scale="   44.074">  2  5  1 -1</clus>
</clustering>
</event>
<event>
 9    2  0.1134608E-004  0.9553486E+02  0.7546771E-02  0.1294536E+00
         -1   -1    0    0    0  501 -0.00000000000E+00  0.00000000000E+00  0.18656653313E+03  0.18656653313E+03  0.00000000000E+00 0.  1.
         21   -1    0    0  501  502  0.00000000000E+00 -0.00000000000E+00 -0.21493086827E+03  0.21493086827E+03  0.00000000000E+00 0.  1.
         23    2    1    2    0    0  0.50340962623E+00 -0.29951636873E+02  0.14479675248E+03  0.17348314816E+03  0.90735600477E+02 0.  0.
         24    2    1    2    0    0 -0.48193496564E+02  0.24508729091E+02 -0.99547979476E+02  0.14013445279E+03  0.82489840151E+02 0.  0.
        -11    1    4    4    0    0 -0.32320984394E+02  0.91305655540E+01  0.43911278312E+01  0.33871747271E+02  0.00000000000E+00 0.  1.
         12    1    4    4    0    0 -0.15872512170E+02  0.15378163537E+02 -0.10393910731E+03  0.10626270552E+03  0.00000000000E+00 0. -1.
        -11    1    3    3    0    0  0.35132571556E+02  0.91777779663E+01  0.29096426686E+02  0.46530970745E+02  0.00000000000E+00 0. -1.
         11    1    3    3    0    0 -0.34629161930E+02 -0.39129414839E+02  0.11570032579E+03  0.12695217741E+03  0.00000000000E+00 0.  1.
         -2    1    1    2    0  502  0.47690086938E+02  0.54429077819E+01 -0.73613108141E+02  0.87879800452E+02  0.00000000000E+00 0.  1.
<scales pt_clust_5="13000.00000" pt_clust_6="13000.00000" pt_clust_7="13000.00000" pt_clust_8="13000.00000" pt_clust_9="47.99968"></scales>
<clustering>
<clus scale="   48.000">  2  9  1 -1</clus>
<clus scale="   82.490">  5  6 -1 -1</clus>
<clus scale="   87.741">  2  5  1 -1</clus>
<clus scale="   90.736">  7  8 -1 -1</clus>
<clus scale="   48.000">  2  5  1 -1</clus>
</clustering>
</event>
<event>
 9    2  0.9254368E-005  0.3099504E+03  0.7546771E-02  0.1080417E+00
          2   -1    0    0  502    0 -0.00000000000E+00  0.00000000000E+00  0.13819628404E+04  0.13819628404E+04  0.00000000000E+00 0. -1.
         21   -1    0    0  501  502  0.00000000000E+00 -0.00000000000E+00 -0.94946741406E+02  0.94946741406E+02  0.00000000000E+00 0. -1.
         23    2    1    2    0    0  0.10927384827E+03  0.24520689206E+03  0.39407126898E+03  0.48545626588E+03  0.91150574388E+02 0.  0.
         24    2    1    2    0    0 -0.13398003166E+03 -0.29584841800E+03  0.55834054429E+03  0.65213784668E+03  0.89792384743E+02 0.  0.
        -11    1    4    4    0    0  0.54722593788E+01 -0.44641700515E+02  0.11872302260E+03  0.12695661914E+03  0.00000000000E+00 0.  1.
         12    1    4    4    0    0 -0.13945229104E+03 -0.25120671749E+03  0.43961752169E+03  0.52518122754E+03  0.00000000000E+00 0. -1.
        -13    1    3    3    0    0 -0.26230941542E+01  0.66995709388E+02  0.14246495401E+03  0.15745338618E+03  0.00000000000E+00 0.  1.
         13    1    3    3    0    0  0.11189694242E+03  0.17821118268E+03  0.25160631497E+03  0.32800287969E+03  0.00000000000E+00 0. -1.
          1    1    1    2  501    0  0.24706183397E+02  0.50641525939E+02  0.33460428568E+03  0.33931546920E+03  0.00000000000E+00 0. -1.
<scales pt_clust_5="13000.00000" pt_clust_6="13000.00000" pt_clust_7="13000.00000" pt_clust_8="13000.00000" pt_clust_9="56.34681"></scales>
<clustering>
<clus scale="   56.347">  2  9  1 -1</clus>
<clus scale="   89.792">  5  6 -1 -1</clus>
<clus scale="   91.151">  7  8 -1 -1</clus>
<clus scale="  309.554">  2  5  1 -1</clus>
<clus scale="   56.347">  2  5  1 -1</clus>
</clustering>
</event>
<event>
 9    2  0.9254368E-005  0.2101170E+03  0.7546771E-02  0.1142049E+00
         21   -1    0    0  501  502  0.00000000000E+00  0.00000000000E+00  0.19762064861E+03  0.19762064861E+03  0.00000000000E+00 0. -1.
          2   -1    0    0  502    0 -0.00000000000E+00 -0.00000000000E+00 -0.32624167641E+03  0.32624167641E+03  0.00000000000E+00 0. -1.
         23    2    1    2    0    0  0.17330408831E+03 -0.10259934107E+03 -0.99375767753E+02  0.24240978683E+03  0.91247080620E+02 0.  0.
         24    2    1    2    0    0 -0.15798230190E+03  0.63229116694E+02  0.45754168675E+02  0.19537300512E+03  0.84385059505E+02 0.  0.
        -13    1    4    4    0    0 -0.16997380191E+02  0.44588048539E+02  0.12365336367E+02  0.49294082295E+02  0.00000000000E+00 0.  1.
         14    1    4    4    0    0 -0.14098492171E+03  0.18641068155E+02  0.33388832308E+02  0.14607892283E+03  0.00000000000E+00 0. -1.
        -13    1    3    3    0    0  0.92729965448E+02 -0.27988594788E+02 -0.89960867305E+02  0.13219366693E+03  0.00000000000E+00 0.  1.
         13    1    3    3    0    0  0.80574122867E+02 -0.74610746277E+02 -0.94149004483E+01  0.11021611990E+03  0.00000000000E+00 0. -1.
          1    1    1    2  501    0 -0.15321786416E+02  0.39370224371E+02 -0.74999428713E+02  0.86079533068E+02  0.00000000000E+00 0. -1.
<scales pt_clust_5="13000.00000" pt_clust_6="13000.00000" pt_clust_7="13000.00000" pt_clust_8="13000.00000" pt_clust_9="42.24658"></scales>
<clustering>
<clus scale="   42.247">  1  9  2 -1</clus>
<clus scale="   84.385">  5  6 -1 -1</clus>
<clus scale="   91.247">  7  8 -1 -1</clus>
<clus scale="  207.229">  1  5  2 -1</clus>
<clus scale="   42.247">  1  5  2 -1</clus>
</clustering>
</event>
<event>
 9    2  0.9254368E-005  0.1897516E+03  0.7546771E-02  0.1159732E+00
          2   -1    0    0  502    0 -0.00000000000E+00  0.00000000000E+00  0.42967700924E+03  0.42967700924E+03  0.00000000000E+00 0. -1.
         21   -1    0    0  501  502  0.00000000000E+00 -0.00000000000E+00 -0.11957795896E+03  0.11957795896E+03  0.00000000000E+00 0. -1.
         23    2    1    2    0    0 -0.78051155577E+02 -0.14781387790E+03  0.22578889048E+03  0.29536517920E+03  0.91208774997E+02 0.  0.
         24    2    1    2    0    0  0.54049393909E+02  0.15693045487E+03  0.21519008624E+02  0.18605229785E+03  0.81264292002E+02 0.  0.
        -11    1    4    4    0    0  0.44944319951E+02  0.24721756276E+02 -0.25687359247E+01  0.51359084235E+02  0.00000000000E+00 0.  1.
         12    1    4    4    0    0  0.91050739580E+01  0.13220869859E+03  0.24087744549E+02  0.13469321361E+03  0.00000000000E+00 0. -1.
        -13    1    3    3    0    0 -0.37072104758E+02 -0.35428429433E+02  0.15737492808E+02  0.53639381458E+02  0.00000000000E+00 0.  1.
         13    1    3    3    0    0 -0.40979050820E+02 -0.11238544847E+03  0.21005139767E+03  0.24172579775E+03  0.00000000000E+00 0. -1.
          1    1    1    2  501    0  0.24001761668E+02 -0.91165769706E+01  0.62791151174E+02  0.67837491143E+02  0.00000000000E+00 0. -1.
<scales pt_clust_5="13000.00000" pt_clust_6="13000.00000" pt_clust_7="13000.00000" pt_clust_8="13000.00000" pt_clust_9="25.67484"></scales>
<clustering>
<clus scale="   25.675">  2  9  1 -1</clus>
<clus scale="   81.264">  5  6 -1 -1</clus>
<clus scale="   91.209">  7  8 -1 -1</clus>
<clus scale="  185.177">  2  5  1 -1</clus>
<clus scale="   25.675">  2  5  1 -1</clus>
</clustering>
</event>
<event>
 9    2  0.9254368E-005  0.1110491E+03  0.7546771E-02  0.1263215E+00
          2   -1    0    0  502    0 -0.00000000000E+00  0.00000000000E+00  0.74677210369E+02  0.74677210369E+02  0.00000000000E+00 0. -1.
         21   -1    0    0  501  502  0.00000000000E+00 -0.00000000000E+00 -0.28842106589E+03  0.28842106589E+03  0.00000000000E+00 0.  1.
         24    2    1    2    0    0 -0.14602869869E+02 -0.55334962428E+02 -0.42271808514E+01  0.97670977613E+02  0.79035112036E+02 0.  0.
         23    2    1    2    0    0  0.30000070675E+02  0.76750027686E+02 -0.11827748954E+03  0.17045220867E+03  0.90960540447E+02 0.  0.
        -11    1    3    3    0    0  0.30701465794E+02 -0.35099150308E+02  0.59799799178E+01  0.47013726869E+02  0.00000000000E+00 0.  1.
         12    1    3    3    0    0 -0.45304335662E+02 -0.20235812120E+02 -0.10207160769E+02  0.50657250744E+02  0.00000000000E+00 0. -1.
        -11    1    4    4    0    0  0.31858340349E+02  0.20283322743E+02 -0.10614928804E+03  0.11266782319E+03  0.00000000000E+00 0.  1.
         11    1    4    4    0    0 -0.18582696733E+01  0.56466704942E+02 -0.12128201496E+02  0.57784385475E+02  0.00000000000E+00 0. -1.
          1    1    1    2  501    0 -0.15397200807E+02 -0.21415065257E+02 -0.91239185135E+02  0.94975089981E+02  0.00000000000E+00 0. -1.
<scales pt_clust_5="13000.00000" pt_clust_6="13000.00000" pt_clust_7="13000.00000" pt_clust_8="13000.00000" pt_clust_9="26.37572"></scales>
<clustering>
<clus scale="   26.376">  2  9  1 -1</clus>
<clus scale="   79.035">  5  6 -1 -1</clus>
<clus scale="   90.961">  7  8 -1 -1</clus>
<clus scale="  101.512">  1  5  2 -1</clus>
<clus scale="   26.376">  2  5  1 -1</clus>
</clustering>
</event>
<event>
 9    2  0.9254368E-005  0.1178773E+03  0.7546771E-02  0.1247719E+00
         21   -1    0    0  501  502  0.00000000000E+00  0.00000000000E+00  0.49076301093E+02  0.49076301093E+02  0.00000000000E+00 0. -1.
          2   -1    0    0  502    0 -0.00000000000E+00 -0.00000000000E+00 -0.10629616769E+04  0.10629616769E+04  0.00000000000E+00 0. -1.
         23    2    1    2    0    0 -0.47236147566E+02  0.79686039858E+02 -0.21942388248E+03  0.25554414203E+03  0.92600484555E+02 0.  0.
         24    2    1    2    0    0 -0.69981530848E+02 -0.58256575175E+02 -0.11878519012E+03  0.17039058366E+03  0.81435780831E+02 0.  0.
        -13    1    4    4    0    0 -0.91922187441E+01  0.19154019687E+02 -0.35892467383E+02  0.41709022650E+02  0.00000000000E+00 0.  1.
         14    1    4    4    0    0 -0.60789312104E+02 -0.77410594862E+02 -0.82892722734E+02  0.12868156101E+03  0.00000000000E+00 0. -1.
        -13    1    3    3    0    0 -0.30667251804E+02  0.24719154194E+01 -0.14074322688E+03  0.14406681302E+03  0.00000000000E+00 0.  1.
         13    1    3    3    0    0 -0.16568895761E+02  0.77214124439E+02 -0.78680655595E+02  0.11147732902E+03  0.00000000000E+00 0. -1.
          1    1    1    2  501    0  0.11721767841E+03 -0.21429464683E+02 -0.67567630325E+03  0.68610325233E+03  0.00000000000E+00 0. -1.
<scales pt_clust_5="13000.00000" pt_clust_6="13000.00000" pt_clust_7="13000.00000" pt_clust_8="13000.00000" pt_clust_9="119.16048"></scales>
<clustering>
<clus scale="   81.436">  5  6 -1 -1</clus>
<clus scale="   92.600">  7  8 -1 -1</clus>
<clus scale="  119.160">  1  9  2 -1</clus>
<clus scale="  119.160">  1  5  2 -1</clus>
<clus scale="  117.877">  1  5  2 -1</clus>
</clustering>
</event>
<event>
 9    2  0.9254368E-005  0.1128786E+03  0.7546771E-02  0.1258861E+00
          2   -1    0    0  502    0 -0.00000000000E+00  0.00000000000E+00  0.14344467860E+03  0.14344467860E+03  0.00000000000E+00 0. -1.
         21   -1    0    0  501  502  0.00000000000E+00 -0.00000000000E+00 -0.28774637183E+03  0.28774637183E+03  0.00000000000E+00 0. -1.
         23    2    1    2    0    0  0.38343396161E+02 -0.76884053495E+02  0.30578724876E+02  0.12766167975E+03  0.89336847670E+02 0.  0.
         24    2    1    2    0    0 -0.77811760093E+02 -0.45167280557E+01 -0.54710186329E+01  0.11147889913E+03  0.79514414201E+02 0.  0.
        -11    1    4    4    0    0 -0.17171949886E+02  0.22020608819E+02 -0.29909821294E+02  0.40919194585E+02  0.00000000000E+00 0.  1.
         12    1    4    4    0    0 -0.60639810206E+02 -0.26537336875E+02  0.24438802661E+02  0.70559704547E+02  0.00000000000E+00 0. -1.
        -13    1    3    3    0    0  0.34112259416E+02 -0.40138618808E+02 -0.27025813658E+02  0.59204303612E+02  0.00000000000E+00 0. -1.
         13    1    3    3    0    0  0.42311367452E+01 -0.36745434687E+02  0.57604538535E+02  0.68457376142E+02  0.00000000000E+00 0.  1.
          1    1    1    2  501    0  0.39468363932E+02  0.81400781551E+02 -0.16940939948E+03  0.19205047155E+03  0.00000000000E+00 0. -1.
<scales pt_clust_5="13000.00000" pt_clust_6="13000.00000" pt_clust_7="13000.00000" pt_clust_8="13000.00000" pt_clust_9="90.46457"></scales>
<clustering>
<clus scale="   79.514">  5  6 -1 -1</clus>
<clus scale="   89.337">  7  8 -1 -1</clus>
<clus scale="   90.465">  2  9  1 -1</clus>
<clus scale="  105.276">  2  5  1 -1</clus>
<clus scale="   90.465">  2  5  1 -1</clus>
</clustering>
</event>
<event>
 9    2  0.9254368E-005  0.1963963E+03  0.7546771E-02  0.1171006E+00
         21   -1    0    0  501  502  0.00000000000E+00  0.00000000000E+00  0.16097732336E+03  0.16097732336E+03  0.00000000000E+00 0. -1.
          2   -1    0    0  502    0 -0.00000000000E+00 -0.00000000000E+00 -0.69871609511E+03  0.69871609511E+03  0.00000000000E+00 0. -1.
         24    2    1    2    0    0 -0.37922592257E+02 -0.58409011481E+02 -0.20882660547E+03  0.24534158964E+03  0.10832455322E+03 0.  0.
         23    2    1    2    0    0  0.19780512351E+03 -0.79336832075E+01 -0.37673626874E+03  0.43476641262E+03  0.88892109603E+02 0.  0.
        -11    1    3    3    0    0 -0.69872380654E+02 -0.25560393876E+02 -0.83177697555E+02  0.11159754784E+03  0.00000000000E+00 0.  1.
         12    1    3    3    0    0  0.31949788397E+02 -0.32848617606E+02 -0.12564890791E+03  0.13374404180E+03  0.00000000000E+00 0. -1.
        -13    1    4    4    0    0  0.25523895332E+02  0.10156998026E+02 -0.13260282524E+03  0.13541840017E+03  0.00000000000E+00 0. -1.
         13    1    4    4    0    0  0.17228122817E+03 -0.18090681234E+02 -0.24413344349E+03  0.29934801245E+03  0.00000000000E+00 0.  1.
          1    1    1    2  501    0 -0.15988253125E+03  0.66342694689E+02  0.47824102453E+02  0.17958541620E+03  0.00000000000E+00 0. -1.
<scales pt_clust_5="13000.00000" pt_clust_6="13000.00000" pt_clust_7="13000.00000" pt_clust_8="13000.00000" pt_clust_9="175.12772"></scales>
<clustering>
<clus scale="   88.892">  7  8 -1 -1</clus>
<clus scale="  108.325">  5  6 -1 -1</clus>
<clus scale="  128.779">  2  5  1 -1</clus>
<clus scale="  175.128">  1  9  2 -1</clus>
<clus scale="  175.128">  1  5  2 -1</clus>
</clustering>
</event>
<event>
 9    2  0.9254368E-005  0.1022811E+03  0.7546771E-02  0.1280563E+00
          2   -1    0    0  502    0 -0.00000000000E+00  0.00000000000E+00  0.27797388295E+03  0.27797388295E+03  0.00000000000E+00 0. -1.
         21   -1    0    0  501  502  0.00000000000E+00 -0.00000000000E+00 -0.31573905612E+03  0.31573905612E+03  0.00000000000E+00 0.  1.
         24    2    1    2    0    0  0.22238440247E+02 -0.41956451714E+02  0.25536135931E+03  0.27192875908E+03  0.80504249107E+02 0.  0.
         23    2    1    2    0    0 -0.15519748110E+02  0.22731638312E+02 -0.15292059831E+03  0.18010694733E+03  0.91083550264E+02 0.  0.
        -11    1    3    3    0    0 -0.25325443510E+02 -0.17030624655E+02  0.42024150370E+02  0.51936976033E+02  0.00000000000E+00 0.  1.
         12    1    3    3    0    0  0.47563883757E+02 -0.24925827059E+02  0.21333720894E+03  0.21999178305E+03  0.00000000000E+00 0. -1.
        -13    1    4    4    0    0 -0.13688148217E+02 -0.30163950684E+02 -0.99658802432E+02  0.10501955163E+03  0.00000000000E+00 0.  1.
         13    1    4    4    0    0 -0.18315998921E+01  0.52895588996E+02 -0.53261795878E+02  0.75087395703E+02  0.00000000000E+00 0. -1.
          1    1    1    2  501    0 -0.67186921374E+01  0.19224813402E+02 -0.14020593417E+03  0.14167723265E+03  0.00000000000E+00 0. -1.
<scales pt_clust_5="13000.00000" pt_clust_6="13000.00000" pt_clust_7="13000.00000" pt_clust_8="13000.00000" pt_clust_9="20.36503"></scales>
<clustering>
<clus scale="   20.365">  2  9  1 -1</clus>
<clus scale="   80.504">  5  6 -1 -1</clus>
<clus scale="   91.084">  7  8 -1 -1</clus>
<clus scale="   92.985">  1  5  2 -1</clus>
<clus scale="   20.365">  2  5  1 -1</clus>
</clustering>
</event>
<event>
 9    2  0.9254368E-005  0.1189555E+03  0.7546771E-02  0.1246588E+00
         21   -1    0    0  501  502  0.00000000000E+00  0.00000000000E+00  0.33151491348E+03  0.33151491348E+03  0.00000000000E+00 0. -1.
         -1   -1    0    0    0  501 -0.00000000000E+00 -0.00000000000E+00 -0.91977288807E+02  0.91977288807E+02  0.00000000000E+00 0.  1.
         23    2    1    2    0    0  0.79846620609E+02  0.57017358113E+01 -0.26374400872E+02  0.12109389769E+03  0.86949010470E+02 0.  0.
         24    2    1    2    0    0 -0.84662516070E+02 -0.28379759580E+02  0.22745350730E+03  0.25749236694E+03  0.81203871033E+02 0.  0.
        -13    1    4    4    0    0 -0.26672438801E+02  0.18519424248E+02  0.22810743390E+02  0.39682717650E+02  0.00000000000E+00 0.  1.
         14    1    4    4    0    0 -0.57990077269E+02 -0.46899183828E+02  0.20464276391E+03  0.21780964929E+03  0.00000000000E+00 0. -1.
        -13    1    3    3    0    0  0.75459747490E+02 -0.22389192146E+02 -0.41401502712E+02  0.88935560059E+02  0.00000000000E+00 0.  1.
         13    1    3    3    0    0  0.43868731181E+01  0.28090927957E+02  0.15027101840E+02  0.32158337627E+02  0.00000000000E+00 0. -1.
         -2    1    1    2    0  502  0.48158954615E+01  0.22678023769E+02  0.38458518250E+02  0.44905937661E+02  0.00000000000E+00 0.  1.
<scales pt_clust_5="13000.00000" pt_clust_6="13000.00000" pt_clust_7="13000.00000" pt_clust_8="13000.00000" pt_clust_9="23.18374"></scales>
<clustering>
<clus scale="   23.184">  1  9  2 -1</clus>
<clus scale="   81.204">  5  6 -1 -1</clus>
<clus scale="   86.949">  7  8 -1 -1</clus>
<clus scale="  114.823">  1  5  2 -1</clus>
<clus scale="   23.184">  1  5  2 -1</clus>
</clustering>
</event>
<event>
 9    2  0.9254368E-005  0.1974695E+03  0.7546771E-02  0.1153503E+00
          2   -1    0    0  502    0 -0.00000000000E+00  0.00000000000E+00  0.87942350741E+03  0.87942350741E+03  0.00000000000E+00 0. -1.
         21   -1    0    0  501  502  0.00000000000E+00 -0.00000000000E+00 -0.65149868920E+02  0.65149868920E+02  0.00000000000E+00 0.  1.
         24    2    1    2    0    0  0.10087909577E+03 -0.16722715087E+03  0.41535184380E+03  0.46470983694E+03  0.72777513353E+02 0.  0.
         23    2    1    2    0    0 -0.11413861980E+03  0.10065179821E+03  0.18747632425E+03  0.25778859814E+03  0.90272809673E+02 0.  0.
        -13    1    3    3    0    0  0.70853450299E+02 -0.16007237167E+03  0.32372113123E+03  0.36802003532E+03  0.00000000000E+00 0.  1.
         14    1    3    3    0    0  0.30025645470E+02 -0.71547791979E+01  0.91630712576E+02  0.96689801626E+02  0.00000000000E+00 0. -1.
        -13    1    4    4    0    0 -0.19529834406E+02  0.56674397321E+02  0.25551800160E+02  0.65163611280E+02  0.00000000000E+00 0.  1.
         13    1    4    4    0    0 -0.94608785394E+02  0.43977400886E+02  0.16192452409E+03  0.19262498686E+03  0.00000000000E+00 0. -1.
          1    1    1    2  501    0  0.13259524031E+02  0.66575352663E+02  0.21144547044E+03  0.22207494124E+03  0.00000000000E+00 0. -1.
<scales pt_clust_5="13000.00000" pt_clust_6="13000.00000" pt_clust_7="13000.00000" pt_clust_8="13000.00000" pt_clust_9="67.88297"></scales>
<clustering>
<clus scale="   67.883">  2  9  1 -1</clus>
<clus scale="   72.778">  5  6 -1 -1</clus>
<clus scale="   90.273">  7  8 -1 -1</clus>
<clus scale="  190.109">  1  5  2 -1</clus>
<clus scale="   67.883">  2  5  1 -1</clus>
</clustering>
</event>
<event>
 9    2  0.9254368E-005  0.2062092E+03  0.7546771E-02  0.1182480E+00
         -1   -1    0    0    0  501 -0.00000000000E+00  0.00000000000E+00  0.59746160117E+03  0.59746160117E+03  0.00000000000E+00 0.  1.
         21   -1    0    0  501  502  0.00000000000E+00 -0.00000000000E+00 -0.10801573217E+03  0.10801573217E+03  0.00000000000E+00 0.  1.
         24    2    1    2    0    0 -0.36290086500E+02  0.52352954632E+01  0.43813870319E+02  0.96370975695E+02  0.77610121939E+02 0.  0.
         23    2    1    2    0    0 -0.13285803812E+03  0.92132425412E+02  0.33911434354E+03  0.38676074382E+03  0.91900450820E+02 0.  0.
        -13    1    3    3    0    0  0.32702827904E+01  0.21972228161E+02  0.48318381217E+02  0.53180255014E+02  0.00000000000E+00 0.  1.
         14    1    3    3    0    0 -0.39560369291E+02 -0.16736932698E+02 -0.45045108980E+01  0.43190720681E+02  0.00000000000E+00 0. -1.
        -11    1    4    4    0    0 -0.89352100188E+02  0.61580720452E+01  0.16793279349E+03  0.19032378409E+03  0.00000000000E+00 0.  1.
         11    1    4    4    0    0 -0.43505937927E+02  0.85974353367E+02  0.17118155005E+03  0.19643695973E+03  0.00000000000E+00 0. -1.
         -2    1    1    2    0  502  0.16914812462E+03 -0.97367720875E+02  0.10651765513E+03  0.22234561382E+03  0.00000000000E+00 0.  1.
<scales pt_clust_5="13000.00000" pt_clust_6="13000.00000" pt_clust_7="13000.00000" pt_clust_8="13000.00000" pt_clust_9="184.59828"></scales>
<clustering>
<clus scale="   77.610">  5  6 -1 -1</clus>
<clus scale="   85.835">  1  5  2 -1</clus>
<clus scale="   91.900">  7  8 -1 -1</clus>
<clus scale="  184.598">  2  9  1 -1</clus>
<clus scale="  184.598">  2  5  1 -1</clus>
</clustering>
</event>
<event>
 9    2  0.9254368E-005  0.1225628E+03  0.7546771E-02  0.1240109E+00
         -3   -1    0    0    0  501 -0.00000000000E+00  0.00000000000E+00  0.35206698276E+03  0.35206698276E+03  0.00000000000E+00 0.  1.
         21   -1    0    0  501  502  0.00000000000E+00 -0.00000000000E+00 -0.10999826773E+03  0.10999826773E+03  0.00000000000E+00 0.  1.
         23    2    1    2    0    0 -0.44674292040E+02  0.83628558974E+02  0.21197470932E+03  0.24709865148E+03  0.84468561756E+02 0.  0.
         24    2    1    2    0    0  0.86986247373E+02 -0.20439392350E+02 -0.22962593887E+02  0.12224025376E+03  0.80193658910E+02 0.  0.
        -11    1    4    4    0    0  0.16732763384E+02  0.27572362607E+02 -0.18157811064E+02  0.37012520218E+02  0.00000000000E+00 0.  1.
         12    1    4    4    0    0  0.70253483989E+02 -0.48011754957E+02 -0.48047828224E+01  0.85227733541E+02  0.00000000000E+00 0. -1.
        -13    1    3    3    0    0 -0.10284373988E+02  0.45603418914E+02  0.18156954079E+03  0.18749116861E+03  0.00000000000E+00 0.  1.
         13    1    3    3    0    0 -0.34389918052E+02  0.38025140061E+02  0.30405168532E+02  0.59607482867E+02  0.00000000000E+00 0. -1.
         -4    1    1    2    0  502 -0.42311955333E+02 -0.63189166625E+02  0.53056599595E+02  0.92726345250E+02  0.00000000000E+00 0.  1.
<scales pt_clust_5="13000.00000" pt_clust_6="13000.00000" pt_clust_7="13000.00000" pt_clust_8="13000.00000" pt_clust_9="76.04721"></scales>
<clustering>
<clus scale="   76.047">  2  9  1 -1</clus>
<clus scale="   80.194">  5  6 -1 -1</clus>
<clus scale="   84.469">  7  8 -1 -1</clus>
<clus scale="  119.657">  2  5  1 -1</clus>
<clus scale="   76.047">  2  5  1 -1</clus>
</clustering>
</event>
<event>
 9    2  0.9254368E-005  0.1069615E+03  0.7546771E-02  0.1272122E+00
          4   -1    0    0  502    0 -0.00000000000E+00  0.00000000000E+00  0.53373146165E+02  0.53373146165E+02  0.00000000000E+00 0. -1.
         21   -1    0    0  501  502  0.00000000000E+00 -0.00000000000E+00 -0.26702903392E+03  0.26702903392E+03  0.00000000000E+00 0.  1.
         24    2    1    2    0    0  0.39160459790E+02 -0.23552734400E+02 -0.58579281118E+02  0.10937456918E+03  0.80268245887E+02 0.  0.
         23    2    1    2    0    0 -0.63819784873E+02  0.95357660082E+01 -0.11284582553E+03  0.16015525506E+03  0.93550144892E+02 0.  0.
        -11    1    3    3    0    0  0.49424666100E+02 -0.79575392604E+01 -0.71055643519E+02  0.86919644075E+02  0.00000000000E+00 0.  1.
         12    1    3    3    0    0 -0.10264206310E+02 -0.15595195139E+02  0.12476362401E+02  0.22454925103E+02  0.00000000000E+00 0. -1.
        -11    1    4    4    0    0 -0.30580256586E+02  0.28771821166E+02 -0.11425425010E+03  0.12172511430E+03  0.00000000000E+00 0.  1.
         11    1    4    4    0    0 -0.33239528287E+02 -0.19236055158E+02  0.14084245725E+01  0.38430140757E+02  0.00000000000E+00 0. -1.
          3    1    1    2  501    0  0.24659325083E+02  0.14016968391E+02 -0.42230781106E+02  0.50872355846E+02  0.00000000000E+00 0. -1.
<scales pt_clust_5="13000.00000" pt_clust_6="13000.00000" pt_clust_7="13000.00000" pt_clust_8="13000.00000" pt_clust_9="28.36473"></scales>
<clustering>
<clus scale="   28.365">  2  9  1 -1</clus>
<clus scale="   80.268">  5  6 -1 -1</clus>
<clus scale="   93.550">  7  8 -1 -1</clus>
<clus scale="   95.562">  1  5  2 -1</clus>
<clus scale="   28.365">  2  5  1 -1</clus>
</clustering>
</event>
<event>
 9    2  0.9254368E-005  0.1786346E+03  0.7546771E-02  0.1203917E+00
         21   -1    0    0  501  502  0.00000000000E+00  0.00000000000E+00  0.80350520082E+02  0.80350520082E+02  0.00000000000E+00 0. -1.
          2   -1    0    0  502    0 -0.00000000000E+00 -0.00000000000E+00 -0.69942769809E+03  0.69942769809E+03  0.00000000000E+00 0. -1.
         24    2    1    2    0    0  0.16448488567E+00  0.17140999595E+02 -0.23056738583E+03  0.24486022410E+03  0.80631067293E+02 0.  0.
         23    2    1    2    0    0  0.14067343403E+03  0.55956319158E+02 -0.93630032102E+02  0.20005591752E+03  0.91299849549E+02 0.  0.
        -11    1    3    3    0    0  0.18071695604E+02 -0.24526835126E+02 -0.14339665140E+03  0.14659724232E+03  0.00000000000E+00 0.  1.
         12    1    3    3    0    0 -0.17907210718E+02  0.41667834722E+02 -0.87170734437E+02  0.98262981780E+02  0.00000000000E+00 0. -1.
        -13    1    4    4    0    0  0.52002110717E+02 -0.15025119397E+02 -0.20767225591E+01  0.54169054898E+02  0.00000000000E+00 0.  1.
         13    1    4    4    0    0  0.88671323313E+02  0.70981438555E+02 -0.91553309543E+02  0.14588686262E+03  0.00000000000E+00 0. -1.
          1    1    1    2  501    0 -0.14083791892E+03 -0.73097318753E+02 -0.29487976007E+03  0.33486207656E+03  0.00000000000E+00 0. -1.
<scales pt_clust_5="13000.00000" pt_clust_6="13000.00000" pt_clust_7="13000.00000" pt_clust_8="13000.00000" pt_clust_9="153.54048"></scales>
<clustering>
<clus scale="   80.631">  5  6 -1 -1</clus>
<clus scale="   82.433">  2  5  1 -1</clus>
<clus scale="   91.300">  7  8 -1 -1</clus>
<clus scale="  153.540">  1  9  2 -1</clus>
<clus scale="  153.540">  1  5  2 -1</clus>
</clustering>
</event>
<event>
 9    2  0.9254368E-005  0.2314229E+03  0.7546771E-02  0.1125642E+00
          2   -1    0    0  502    0 -0.00000000000E+00  0.00000000000E+00  0.50893050817E+02  0.50893050817E+02  0.00000000000E+00 0. -1.
         21   -1    0    0  501  502  0.00000000000E+00 -0.00000000000E+00 -0.12173407891E+04  0.12173407891E+04  0.00000000000E+00 0. -1.
         24    2    1    2    0    0  0.17521213131E+02 -0.71793603631E+02 -0.92447784865E+02  0.14177132803E+03  0.78046153600E+02 0.  0.
         23    2    1    2    0    0  0.62310634910E+01 -0.76870294207E+02 -0.16222979408E+03  0.20234674607E+03  0.93154877904E+02 0.  0.
        -11    1    3    3    0    0 -0.18432389085E+02 -0.38022325345E+02 -0.80656529193E+02  0.91054521543E+02  0.00000000000E+00 0.  1.
         12    1    3    3    0    0  0.35953602216E+02 -0.33771278287E+02 -0.11791255672E+02  0.50716806482E+02  0.00000000000E+00 0. -1.
        -11    1    4    4    0    0 -0.29115199098E+02 -0.51565993337E+02 -0.37096192786E+02  0.69877564401E+02  0.00000000000E+00 0. -1.
         11    1    4    4    0    0  0.35346262589E+02 -0.25304300870E+02 -0.12513360129E+03  0.13246918167E+03  0.00000000000E+00 0.  1.
          1    1    1    2  501    0 -0.23752276622E+02  0.14866389784E+03 -0.91177015931E+03  0.92411576579E+03  0.00000000000E+00 0. -1.
<scales pt_clust_5="13000.00000" pt_clust_6="13000.00000" pt_clust_7="13000.00000" pt_clust_8="13000.00000" pt_clust_9="150.54941"></scales>
<clustering>
<clus scale="   78.046">  5  6 -1 -1</clus>
<clus scale="   93.155">  7  8 -1 -1</clus>
<clus scale="   97.613">  5  7 -1 -1</clus>
<clus scale="  150.549">  2  9  1 -1</clus>
<clus scale="  150.549">  2  5  1 -1</clus>
</clustering>
</event>
<event>
 9    2  0.9254368E-005  0.2359582E+03  0.7546771E-02  0.1147968E+00
         21   -1    0    0  501  502  0.00000000000E+00  0.00000000000E+00  0.12736112892E+03  0.12736112892E+03  0.00000000000E+00 0.  1.
         -1   -1    0    0    0  501 -0.00000000000E+00 -0.00000000000E+00 -0.78118063630E+03  0.78118063630E+03  0.00000000000E+00 0.  1.
         24    2    1    2    0    0  0.34780810014E+02 -0.89590058987E+02 -0.26102795242E+03  0.29029254804E+03  0.83054729462E+02 0.  0.
         23    2    1    2    0    0  0.62581439005E+02 -0.16797664774E+03 -0.14981298585E+03  0.25101822585E+03  0.91834787986E+02 0.  0.
        -11    1    3    3    0    0 -0.91148375555E+01 -0.35212688125E+02 -0.17842054977E+03  0.18209037934E+03  0.00000000000E+00 0.  1.
         12    1    3    3    0    0  0.43895647570E+02 -0.54377370862E+02 -0.82607402649E+02  0.10820216869E+03  0.00000000000E+00 0. -1.
        -13    1    4    4    0    0  0.19283813423E+02 -0.14754665992E+03 -0.13496891675E+03  0.20089422789E+03  0.00000000000E+00 0. -1.
         13    1    4    4    0    0  0.43297625582E+02 -0.20429987821E+02 -0.14844069105E+02  0.50123997955E+02  0.00000000000E+00 0.  1.
         -2    1    1    2    0  502 -0.97362249019E+02  0.25756670673E+03 -0.24297856911E+03  0.36723099133E+03  0.00000000000E+00 0.  1.
<scales pt_clust_5="13000.00000" pt_clust_6="13000.00000" pt_clust_7="13000.00000" pt_clust_8="13000.00000" pt_clust_9="217.35386"></scales>
<clustering>
<clus scale="   83.055">  5  6 -1 -1</clus>
<clus scale="   91.835">  7  8 -1 -1</clus>
<clus scale="  127.020">  2  5  1 -1</clus>
<clus scale="  217.354">  1  9  2 -1</clus>
<clus scale="  217.354">  1  5  2 -1</clus>
</clustering>
</event>
<event>
 9    2  0.9254368E-005  0.9429471E+02  0.7546771E-02  0.1297933E+00
          2   -1    0    0  502    0 -0.00000000000E+00  0.00000000000E+00  0.19068919489E+03  0.19068919489E+03  0.00000000000E+00 0. -1.
         21   -1    0    0  501  502  0.00000000000E+00 -0.00000000000E+00 -0.12717383570E+03  0.12717383570E+03  0.00000000000E+00 0. -1.
         24    2    1    2    0    0 -0.18249127377E+02  0.20883980916E+02  0.14592332278E+03  0.16978959446E+03  0.82253990457E+02 0.  0.
         23    2    1    2    0    0 -0.72191136296E+01 -0.49261736483E+01 -0.52108698897E+02  0.10539641242E+03  0.91195967354E+02 0.  0.
        -11    1    3    3    0    0  0.28072271134E+02 -0.11019950484E+02  0.43364604542E+02  0.52820267344E+02  0.00000000000E+00 0.  1.
         12    1    3    3    0    0 -0.46321398510E+02  0.31903931400E+02  0.10255871824E+03  0.11696932711E+03  0.00000000000E+00 0. -1.
        -13    1    4    4    0    0  0.31970921417E+02 -0.26836904549E+02 -0.42321262999E+02  0.59442817597E+02  0.00000000000E+00 0.  1.
         13    1    4    4    0    0 -0.39190035047E+02  0.21910730901E+02 -0.97874358974E+01  0.45953594822E+02  0.00000000000E+00 0. -1.
          1    1    1    2  501    0  0.25468241007E+02 -0.15957807268E+02 -0.30299264686E+02  0.42677023716E+02  0.00000000000E+00 0. -1.
<scales pt_clust_5="13000.00000" pt_clust_6="13000.00000" pt_clust_7="13000.00000" pt_clust_8="13000.00000" pt_clust_9="30.05467"></scales>
<clustering>
<clus scale="   30.055">  2  9  1 -1</clus>
<clus scale="   82.254">  5  6 -1 -1</clus>
<clus scale="   85.677">  1  5  2 -1</clus>
<clus scale="   91.196">  7  8 -1 -1</clus>
<clus scale="   30.055">  2  5  1 -1</clus>
</clustering>
</event>
<event>
 9    2  0.9254368E-005  0.1116738E+03  0.7546771E-02  0.1261029E+00
         -1   -1    0    0    0  501 -0.00000000000E+00  0.00000000000E+00  0.97505051530E+02  0.97505051530E+02  0.00000000000E+00 0.  1.
         21   -1    0    0  501  502  0.00000000000E+00 -0.00000000000E+00 -0.32666899039E+03  0.32666899039E+03  0.00000000000E+00 0. -1.
         23    2    1    2    0    0  0.28155418606E+02  0.63866418060E+02  0.45623368242E+02  0.12240686971E+03  0.89611958296E+02 0.  0.
         24    2    1    2    0    0 -0.29011178958E+02 -0.37219743553E+02 -0.24362753789E+03  0.26075852915E+03  0.80085426215E+02 0.  0.
        -11    1    4    4    0    0 -0.25649913367E+02 -0.61833149841E+02 -0.15789729713E+03  0.17150164114E+03  0.00000000000E+00 0.  1.
         12    1    4    4    0    0 -0.33612655905E+01  0.24613406288E+02 -0.85730240766E+02  0.89256888010E+02  0.00000000000E+00 0. -1.
        -11    1    3    3    0    0  0.59569637924E+02  0.44884656450E+02  0.41809405766E+02  0.85505558635E+02  0.00000000000E+00 0.  1.
         11    1    3    3    0    0 -0.31414219319E+02  0.18981761611E+02  0.38139624762E+01  0.36901311074E+02  0.00000000000E+00 0. -1.
         -2    1    1    2    0  502  0.85576035178E+00 -0.26646674508E+02 -0.31159769210E+02  0.41008643057E+02  0.00000000000E+00 0.  1.
<scales pt_clust_5="13000.00000" pt_clust_6="13000.00000" pt_clust_7="13000.00000" pt_clust_8="13000.00000" pt_clust_9="26.66041"></scales>
<clustering>
<clus scale="   26.660">  2  9  1 -1</clus>
<clus scale="   80.085">  5  6 -1 -1</clus>
<clus scale="   89.612">  7  8 -1 -1</clus>
<clus scale="  104.184">  2  5  1 -1</clus>
<clus scale="   26.660">  2  5  1 -1</clus>
</clustering>
</event>
<event>
 9    2  0.9254368E-005  0.9317457E+02  0.7546771E-02  0.1301151E+00
         21   -1    0    0  501  502  0.00000000000E+00  0.00000000000E+00  0.32081837628E+03  0.32081837628E+03  0.00000000000E+00 0.  1.
          2   -1    0    0  502    0 -0.00000000000E+00 -0.00000000000E+00 -0.23989317890E+03  0.23989317890E+03  0.00000000000E+00 0. -1.
         24    2    1    2    0    0 -0.17875662736E+02  0.92608139056E+01 -0.14609586911E+03  0.16809281132E+03  0.80659086601E+02 0.  0.
         23    2    1    2    0    0  0.43841592035E+02 -0.82192987300E+02  0.27318966311E+03  0.30248067913E+03  0.90466551064E+02 0.  0.
        -11    1    3    3    0    0 -0.24944754131E+02 -0.23648626367E+02 -0.25260104458E+02  0.42656431695E+02  0.00000000000E+00 0.  1.
         12    1    3    3    0    0  0.70690913955E+01  0.32909440273E+02 -0.12083576466E+03  0.12543637962E+03  0.00000000000E+00 0. -1.
        -13    1    4    4    0    0 -0.23448556521E+02 -0.16467690420E+02  0.11429161718E+03  0.11782866115E+03  0.00000000000E+00 0. -1.
         13    1    4    4    0    0  0.67290148556E+02 -0.65725296879E+02  0.15889804593E+03  0.18465201797E+03  0.00000000000E+00 0.  1.
          1    1    1    2  501    0 -0.25965929299E+02  0.72932173394E+02 -0.46168596616E+02  0.90138064733E+02  0.00000000000E+00 0. -1.
<scales pt_clust_5="13000.00000" pt_clust_6="13000.00000" pt_clust_7="13000.00000" pt_clust_8="13000.00000" pt_clust_9="77.41665"></scales>
<clustering>
<clus scale="   77.417">  1  9  2 -1</clus>
<clus scale="   80.659">  5  6 -1 -1</clus>
<clus scale="   83.685">  2  5  1 -1</clus>
<clus scale="   90.467">  7  8 -1 -1</clus>
<clus scale="   77.417">  1  5  2 -1</clus>
</clustering>
</event>
<event>
 9    2  0.9254368E-005  0.1015835E+03  0.7546771E-02  0.1279477E+00
         21   -1    0    0  501  502  0.00000000000E+00  0.00000000000E+00  0.63787811622E+02  0.63787811622E+02  0.00000000000E+00 0.  1.
          2   -1    0    0  502    0 -0.00000000000E+00 -0.00000000000E+00 -0.32998606054E+03  0.32998606054E+03  0.00000000000E+00 0. -1.
         23    2    1    2    0    0 -0.32047812363E+02 -0.47123331899E+02 -0.21450057673E+03  0.23830629665E+03  0.86785499464E+02 0.  0.
         24    2    1    2    0    0  0.38275252949E+02  0.27367727082E+02 -0.77948135152E+02  0.12202879946E+03  0.81247330106E+02 0.  0.
        -13    1    4    4    0    0  0.61416763812E+02  0.32964749092E+02 -0.53191989126E+02  0.87681704289E+02  0.00000000000E+00 0.  1.
         14    1    4    4    0    0 -0.23141510863E+02 -0.55970220106E+01 -0.24756146026E+02  0.34347095168E+02  0.00000000000E+00 0. -1.
        -13    1    3    3    0    0 -0.54328730180E+02 -0.15561051664E+02 -0.77204882337E+02  0.95678373254E+02  0.00000000000E+00 0.  1.
         13    1    3    3    0    0  0.22280917816E+02 -0.31562280236E+02 -0.13729569439E+03  0.14262792339E+03  0.00000000000E+00 0. -1.
          1    1    1    2  501    0 -0.62274405858E+01  0.19755604818E+02  0.26250462968E+02  0.33438776054E+02  0.00000000000E+00 0. -1.
<scales pt_clust_5="13000.00000" pt_clust_6="13000.00000" pt_clust_7="13000.00000" pt_clust_8="13000.00000" pt_clust_9="20.71388"></scales>
<clustering>
<clus scale="   20.714">  1  9  2 -1</clus>
<clus scale="   81.247">  5  6 -1 -1</clus>
<clus scale="   86.785">  7  8 -1 -1</clus>
<clus scale="   96.895">  1  5  2 -1</clus>
<clus scale="   20.714">  1  5  2 -1</clus>
</clustering>
</event>
<event>
 9    2  0.9254368E-005  0.1597479E+03  0.7546771E-02  0.1190048E+00
         21   -1    0    0  501  502  0.00000000000E+00  0.00000000000E+00  0.91816367921E+02  0.91816367921E+02  0.00000000000E+00 0. -1.
          2   -1    0    0  502    0 -0.00000000000E+00 -0.00000000000E+00 -0.48254847048E+03  0.48254847048E+03  0.00000000000E+00 0. -1.
         24    2    1    2    0    0  0.11899905764E+03  0.23785685520E+02 -0.17105056589E+03  0.22514302413E+03  0.81881320638E+02 0.  0.
         23    2    1    2    0    0 -0.13629970371E+03 -0.90815806965E+02 -0.10122092288E+03  0.21201661555E+03  0.88770772312E+02 0.  0.
        -13    1    3    3    0    0  0.10195083426E+03  0.28158995407E+02 -0.80553188346E+02  0.13295005747E+03  0.00000000000E+00 0.  1.
         14    1    3    3    0    0  0.17048223382E+02 -0.43733098873E+01 -0.90497377549E+02  0.92192966668E+02  0.00000000000E+00 0. -1.
        -11    1    4    4    0    0 -0.60304990279E+01 -0.48547033448E+02 -0.20489293833E+02  0.53037652069E+02  0.00000000000E+00 0.  1.
         11    1    4    4    0    0 -0.13026920468E+03 -0.42268773516E+02 -0.80731629047E+02  0.15897896349E+03  0.00000000000E+00 0. -1.
          1    1    1    2  501    0  0.17300646070E+02  0.67030121445E+02 -0.11846061378E+03  0.13720519871E+03  0.00000000000E+00 0. -1.
<scales pt_clust_5="13000.00000" pt_clust_6="13000.00000" pt_clust_7="13000.00000" pt_clust_8="13000.00000" pt_clust_9="69.22683"></scales>
<clustering>
<clus scale="   69.227">  1  9  2 -1</clus>
<clus scale="   81.881">  5  6 -1 -1</clus>
<clus scale="   88.771">  7  8 -1 -1</clus>
<clus scale="  156.025">  2  5  1 -1</clus>
<clus scale="   69.227">  1  5  2 -1</clus>
</clustering>
</event>
<event>
 9    2  0.9254368E-005  0.1831975E+03  0.7546771E-02  0.1192426E+00
         21   -1    0    0  501  502  0.00000000000E+00  0.00000000000E+00  0.36539458541E+03  0.36539458541E+03  0.00000000000E+00 0. -1.
          2   -1    0    0  502    0 -0.00000000000E+00 -0.00000000000E+00 -0.19590368181E+03  0.19590368181E+03  0.00000000000E+00 0. -1.
         24    2    1    2    0    0  0.44533793879E+02  0.36140125220E+02  0.11312657764E+03  0.14978155889E+03  0.79671358501E+02 0.  0.
         23    2    1    2    0    0  0.13650582787E+03 -0.68821809244E+02  0.12301362050E+03  0.21584973212E+03  0.89935941411E+02 0.  0.
        -13    1    3    3    0    0  0.55153836250E+02  0.51481641554E+02  0.10532037748E+03  0.12955572925E+03  0.00000000000E+00 0.  1.
         14    1    3    3    0    0 -0.10620042371E+02 -0.15341516334E+02  0.78062001658E+01  0.20225829635E+02  0.00000000000E+00 0. -1.
        -11    1    4    4    0    0  0.67709525757E+02 -0.65043097231E+02  0.11188017793E+03  0.14605601182E+03  0.00000000000E+00 0. -1.
         11    1    4    4    0    0  0.68796302117E+02 -0.37787120125E+01  0.11133442564E+02  0.69793720296E+02  0.00000000000E+00 0.  1.
          1    1    1    2  501    0 -0.18103962175E+03  0.32681684024E+02 -0.66649294540E+02  0.19566697621E+03  0.00000000000E+00 0. -1.
<scales pt_clust_5="13000.00000" pt_clust_6="13000.00000" pt_clust_7="13000.00000" pt_clust_8="13000.00000" pt_clust_9="159.60230"></scales>
<clustering>
<clus scale="   79.671">  5  6 -1 -1</clus>
<clus scale="   89.936">  7  8 -1 -1</clus>
<clus scale="   98.168">  2  5  1 -1</clus>
<clus scale="  159.602">  1  9  2 -1</clus>
<clus scale="  159.602">  1  5  2 -1</clus>
</clustering>
</event>
<event>
 9    2  0.9254368E-005  0.2107948E+03  0.7546771E-02  0.1141818E+00
         21   -1    0    0  501  502  0.00000000000E+00  0.00000000000E+00  0.11727320886E+03  0.11727320886E+03  0.00000000000E+00 0. -1.
          2   -1    0    0  502    0 -0.00000000000E+00 -0.00000000000E+00 -0.12243248029E+04  0.12243248029E+04  0.00000000000E+00 0. -1.
         24    2    1    2    0    0 -0.17146499764E+03 -0.11232874049E+03 -0.10177664416E+04  0.10413666395E+04  0.81104605390E+02 0.  0.
         23    2    1    2    0    0  0.44360287865E+02  0.11575081406E+03 -0.20253959482E+02  0.15555026274E+03  0.91758243592E+02 0.  0.
        -11    1    3    3    0    0 -0.54431483657E+02 -0.74377973416E+02 -0.32754191953E+03  0.34026251394E+03  0.00000000000E+00 0.  1.
         12    1    3    3    0    0 -0.11703351398E+03 -0.37950767071E+02 -0.69022452202E+03  0.70110412559E+03  0.00000000000E+00 0. -1.
        -11    1    4    4    0    0  0.18028758882E+02 -0.10503768351E+02 -0.16369999086E+02  0.26520598909E+02  0.00000000000E+00 0.  1.
         11    1    4    4    0    0  0.26331528983E+02  0.12625458242E+03 -0.38839603968E+01  0.12902966383E+03  0.00000000000E+00 0. -1.
          1    1    1    2  501    0  0.12710470977E+03 -0.34220735775E+01 -0.69031192981E+02  0.14468110947E+03  0.00000000000E+00 0. -1.
<scales pt_clust_5="13000.00000" pt_clust_6="13000.00000" pt_clust_7="13000.00000" pt_clust_8="13000.00000" pt_clust_9="127.15077"></scales>
<clustering>
<clus scale="   81.105">  5  6 -1 -1</clus>
<clus scale="   91.758">  7  8 -1 -1</clus>
<clus scale="  127.151">  1  9  2 -1</clus>
<clus scale="  206.380">  2  5  1 -1</clus>
<clus scale="  127.151">  1  5  2 -1</clus>
</clustering>
</event>
<event>
 9    2  0.9254368E-005  0.1115053E+03  0.7546771E-02  0.1261908E+00
          2   -1    0    0  502    0 -0.00000000000E+00  0.00000000000E+00  0.90653932664E+03  0.90653932664E+03  0.00000000000E+00 0. -1.
         21   -1    0    0  501  502  0.00000000000E+00 -0.00000000000E+00 -0.23109447073E+02  0.23109447073E+02  0.00000000000E+00 0.  1.
         24    2    1    2    0    0  0.24731012461E+02 -0.44867464564E+02  0.32662355708E+03  0.33946048169E+03  0.76978946700E+02 0.  0.
         23    2    1    2    0    0 -0.64220982566E+02  0.82321870763E+02  0.33507643541E+03  0.36187615238E+03  0.88186773904E+02 0.  0.
        -11    1    3    3    0    0  0.14390054305E+02 -0.62514547425E+02  0.29429115630E+03  0.30120163841E+03  0.00000000000E+00 0.  1.
         12    1    3    3    0    0  0.10340958155E+02  0.17647082860E+02  0.32332400778E+02  0.38258843280E+02  0.00000000000E+00 0. -1.
        -13    1    4    4    0    0 -0.45749802158E+02  0.21258315178E+00  0.17670090160E+03  0.18252752728E+03  0.00000000000E+00 0. -1.
         13    1    4    4    0    0 -0.18471180409E+02  0.82109287611E+02  0.15837553381E+03  0.17934862510E+03  0.00000000000E+00 0.  1.
          1    1    1    2  501    0  0.39489970106E+02 -0.37454406199E+02  0.22172988708E+03  0.22831213964E+03  0.00000000000E+00 0. -1.
<scales pt_clust_5="13000.00000" pt_clust_6="13000.00000" pt_clust_7="13000.00000" pt_clust_8="13000.00000" pt_clust_9="54.42695"></scales>
<clustering>
<clus scale="   54.427">  2  9  1 -1</clus>
<clus scale="   76.979">  5  6 -1 -1</clus>
<clus scale="   88.187">  7  8 -1 -1</clus>
<clus scale="  102.870">  1  5  2 -1</clus>
<clus scale="   54.427">  2  5  1 -1</clus>
</clustering>
</event>
<event>
 9    2  0.9254368E-005  0.1322354E+03  0.7546771E-02  0.1227220E+00
          2   -1    0    0  502    0 -0.00000000000E+00  0.00000000000E+00  0.12814306671E+04  0.12814306671E+04  0.00000000000E+00 0. -1.
         21   -1    0    0  501  502  0.00000000000E+00 -0.00000000000E+00 -0.24607778225E+02  0.24607778225E+02  0.00000000000E+00 0.  1.
         24    2    1    2    0    0  0.97828685418E+02  0.13417892948E+02  0.92057027147E+03  0.92931481083E+03  0.80161720145E+02 0.  0.
         23    2    1    2    0    0 -0.72634118710E+02 -0.45297355496E+02  0.21829779063E+03  0.25196623999E+03  0.92225241031E+02 0.  0.
        -13    1    3    3    0    0  0.24098422278E+02 -0.21106867001E+02  0.10730792506E+03  0.11198760901E+03  0.00000000000E+00 0.  1.
         14    1    3    3    0    0  0.73730263139E+02  0.34524759949E+02  0.81326234640E+03  0.81732720182E+03  0.00000000000E+00 0. -1.
        -11    1    4    4    0    0  0.63071112360E+00 -0.46458788254E+02  0.49180976693E+02  0.67657854467E+02  0.00000000000E+00 0.  1.
         11    1    4    4    0    0 -0.73264829834E+02  0.11614327580E+01  0.16911681394E+03  0.18430838552E+03  0.00000000000E+00 0. -1.
          1    1    1    2  501    0 -0.25194566707E+02  0.31879462549E+02  0.11795482675E+03  0.12475739448E+03  0.00000000000E+00 0. -1.
<scales pt_clust_5="13000.00000" pt_clust_6="13000.00000" pt_clust_7="13000.00000" pt_clust_8="13000.00000" pt_clust_9="40.63332"></scales>
<clustering>
<clus scale="   40.633">  2  9  1 -1</clus>
<clus scale="   80.162">  5  6 -1 -1</clus>
<clus scale="   92.225">  7  8 -1 -1</clus>
<clus scale="  124.123">  1  5  2 -1</clus>
<clus scale="   40.633">  2  5  1 -1</clus>
</clustering>
</event>
<event>
 9    2  0.9254368E-005  0.1107155E+03  0.7546771E-02  0.1262685E+00
         21   -1    0    0  501  502  0.00000000000E+00  0.00000000000E+00  0.19180806491E+03  0.19180806491E+03  0.00000000000E+00 0. -1.
          2   -1    0    0  502    0 -0.00000000000E+00 -0.00000000000E+00 -0.16737274080E+03  0.16737274080E+03  0.00000000000E+00 0. -1.
         24    2    1    2    0    0  0.39967353725E+01 -0.48489964089E+02 -0.11450320031E+02  0.96245897599E+02  0.82249087927E+02 0.  0.
         23    2    1    2    0    0 -0.23372680476E+02  0.10670880710E+03  0.10021840496E+03  0.17403291126E+03  0.91162897077E+02 0.  0.
        -11    1    3    3    0    0  0.45250245954E+01  0.21477561276E+02  0.84215239273E+01  0.23509222684E+02  0.00000000000E+00 0.  1.
         12    1    3    3    0    0 -0.52828922294E+00 -0.69967525366E+02 -0.19871843958E+02  0.72736674914E+02  0.00000000000E+00 0. -1.
        -13    1    4    4    0    0  0.22608978279E+02  0.42063259121E+02  0.20243612730E+01  0.47797298096E+02  0.00000000000E+00 0.  1.
         13    1    4    4    0    0 -0.45981658755E+02  0.64645547975E+02  0.98194043683E+02  0.12623561316E+03  0.00000000000E+00 0. -1.
          1    1    1    2  501    0  0.19375945104E+02 -0.58218843007E+02 -0.64332760817E+02  0.88901996851E+02  0.00000000000E+00 0. -1.
<scales pt_clust_5="13000.00000" pt_clust_6="13000.00000" pt_clust_7="13000.00000" pt_clust_8="13000.00000" pt_clust_9="61.35849"></scales>
<clustering>
<clus scale="   61.358">  1  9  2 -1</clus>
<clus scale="   82.249">  5  6 -1 -1</clus>
<clus scale="   91.163">  7  8 -1 -1</clus>
<clus scale="  103.500">  2  5  1 -1</clus>
<clus scale="   61.358">  1  5  2 -1</clus>
</clustering>
</event>
<event>
 9    2  0.9254368E-005  0.2441634E+03  0.7546771E-02  0.1149528E+00
         21   -1    0    0  501  502  0.00000000000E+00  0.00000000000E+00  0.14184982906E+04  0.14184982906E+04  0.00000000000E+00 0. -1.
          2   -1    0    0  502    0 -0.00000000000E+00 -0.00000000000E+00 -0.75490511829E+02  0.75490511829E+02  0.00000000000E+00 0. -1.
         24    2    1    2    0    0  0.76311048603E+02  0.12417592069E+01  0.23511164149E+03  0.25977241276E+03  0.79870547542E+02 0.  0.
         23    2    1    2    0    0 -0.24668450149E+03  0.12584076908E+03  0.39558210703E+03  0.49086696972E+03  0.88181835529E+02 0.  0.
        -13    1    3    3    0    0  0.56565629269E+02  0.35639935970E+02  0.11208338891E+03  0.13050885610E+03  0.00000000000E+00 0.  1.
         14    1    3    3    0    0  0.19745419335E+02 -0.34398176763E+02  0.12302825258E+03  0.12926355666E+03  0.00000000000E+00 0. -1.
        -13    1    4    4    0    0 -0.16330714913E+03  0.12214648896E+03  0.24563104803E+03  0.31925475952E+03  0.00000000000E+00 0.  1.
         13    1    4    4    0    0 -0.83377352363E+02  0.36942801245E+01  0.14995105900E+03  0.17161221019E+03  0.00000000000E+00 0. -1.
          1    1    1    2  501    0  0.17037345289E+03 -0.12708252829E+03  0.71231403027E+03  0.74334941997E+03  0.00000000000E+00 0. -1.
<scales pt_clust_5="13000.00000" pt_clust_6="13000.00000" pt_clust_7="13000.00000" pt_clust_8="13000.00000" pt_clust_9="227.68337"></scales>
<clustering>
<clus scale="   79.871">  5  6 -1 -1</clus>
<clus scale="   88.182">  7  8 -1 -1</clus>
<clus scale="  110.473">  2  5  1 -1</clus>
<clus scale="  227.683">  1  9  2 -1</clus>
<clus scale="  227.683">  1  5  2 -1</clus>
</clustering>
</event>
<event>
 9    2  0.9254368E-005  0.1837109E+03  0.7546771E-02  0.1165772E+00
         -1   -1    0    0    0  501 -0.00000000000E+00  0.00000000000E+00  0.14349230715E+04  0.14349230715E+04  0.00000000000E+00 0.  1.
         21   -1    0    0  501  502  0.00000000000E+00 -0.00000000000E+00 -0.48885481688E+02  0.48885481688E+02  0.00000000000E+00 0. -1.
         24    2    1    2    0    0 -0.51714167254E+02 -0.13931152713E+03  0.37323185218E+03  0.40973100655E+03  0.80594203003E+02 0.  0.
         23    2    1    2    0    0 -0.23589908875E+02  0.18272986740E+03  0.35680966299E+03  0.41234746111E+03  0.93651507396E+02 0.  0.
        -11    1    3    3    0    0 -0.20639859043E+02 -0.83548942792E+00  0.96994639023E+02  0.99169863483E+02  0.00000000000E+00 0.  1.
         12    1    3    3    0    0 -0.31074308211E+02 -0.13847603770E+03  0.27623721316E+03  0.31056114307E+03  0.00000000000E+00 0. -1.
        -13    1    4    4    0    0 -0.36304018472E+02  0.34777682273E+02  0.14657036952E+03  0.15495270944E+03  0.00000000000E+00 0. -1.
         13    1    4    4    0    0  0.12714109597E+02  0.14795218513E+03  0.21023929347E+03  0.25739475167E+03  0.00000000000E+00 0.  1.
         -2    1    1    2    0  502  0.75304076129E+02 -0.43418340271E+02  0.65599607466E+03  0.66173008555E+03  0.00000000000E+00 0.  1.
<scales pt_clust_5="13000.00000" pt_clust_6="13000.00000" pt_clust_7="13000.00000" pt_clust_8="13000.00000" pt_clust_9="86.92447"></scales>
<clustering>
<clus scale="   80.594">  5  6 -1 -1</clus>
<clus scale="   86.924">  2  9  1 -1</clus>
<clus scale="   93.652">  7  8 -1 -1</clus>
<clus scale="  177.411">  1  5  2 -1</clus>
<clus scale="   86.924">  2  5  1 -1</clus>
</clustering>
</event>
<event>
 9    2  0.9254368E-005  0.1479256E+03  0.7546771E-02  0.1215353E+00
         21   -1    0    0  501  502  0.00000000000E+00  0.00000000000E+00  0.57589518557E+02  0.57589518557E+02  0.00000000000E+00 0. -1.
          2   -1    0    0  502    0 -0.00000000000E+00 -0.00000000000E+00 -0.10650683059E+04  0.10650683059E+04  0.00000000000E+00 0. -1.
         24    2    1    2    0    0 -0.35716057299E+02  0.61822522118E+02 -0.52415860780E+03  0.53634820050E+03  0.88484377488E+02 0.  0.
         23    2    1    2    0    0 -0.95082598749E+02 -0.65358139505E+02 -0.93235728564E+02  0.17486501297E+03  0.92587713525E+02 0.  0.
        -11    1    3    3    0    0  0.24394480436E+02  0.36154521270E+01 -0.62899651164E+02  0.67561292812E+02  0.00000000000E+00 0.  1.
         12    1    3    3    0    0 -0.60110537735E+02  0.58207069991E+02 -0.46125895663E+03  0.46878690769E+03  0.00000000000E+00 0. -1.
        -13    1    4    4    0    0 -0.37210713859E+02 -0.79993784053E+02 -0.56890756240E+02  0.10497714446E+03  0.00000000000E+00 0. -1.
         13    1    4    4    0    0 -0.57871884889E+02  0.14635644547E+02 -0.36344972324E+02  0.69887868512E+02  0.00000000000E+00 0.  1.
          1    1    1    2  501    0  0.13079865605E+03  0.35356173867E+01 -0.39008445100E+03  0.41144461101E+03  0.00000000000E+00 0. -1.
<scales pt_clust_5="13000.00000" pt_clust_6="13000.00000" pt_clust_7="13000.00000" pt_clust_8="13000.00000" pt_clust_9="115.36684"></scales>
<clustering>
<clus scale="   88.484">  5  6 -1 -1</clus>
<clus scale="   92.588">  7  8 -1 -1</clus>
<clus scale="  113.698">  2  5  1 -1</clus>
<clus scale="  115.367">  1  9  2 -1</clus>
<clus scale="  115.367">  1  5  2 -1</clus>
</clustering>
</event>
<event>
 9    2  0.9254368E-005  0.1549382E+03  0.7546771E-02  0.1196171E+00
         21   -1    0    0  501  502  0.00000000000E+00  0.00000000000E+00  0.18958918422E+03  0.18958918422E+03  0.00000000000E+00 0.  1.
         -1   -1    0    0    0  501 -0.00000000000E+00 -0.00000000000E+00 -0.30799752834E+03  0.30799752834E+03  0.00000000000E+00 0.  1.
         24    2    1    2    0    0  0.91489630834E+02  0.12275737328E+03 -0.16040816182E+03  0.23591024002E+03  0.80517934188E+02 0.  0.
         23    2    1    2    0    0 -0.90369341434E+02 -0.41695898556E+02 -0.46019438513E+02  0.14201191139E+03  0.90246487061E+02 0.  0.
        -11    1    3    3    0    0  0.47257036271E+02  0.73457073875E+02 -0.35021608148E+02  0.94104634406E+02  0.00000000000E+00 0.  1.
         12    1    3    3    0    0  0.44232594562E+02  0.49300299402E+02 -0.12538655367E+03  0.14180560562E+03  0.00000000000E+00 0. -1.
        -13    1    4    4    0    0 -0.74927774486E+02  0.44795071135E+01 -0.65809924306E-01  0.75061586077E+02  0.00000000000E+00 0.  1.
         13    1    4    4    0    0 -0.15441566948E+02 -0.46175405669E+02 -0.45953628589E+02  0.66950325309E+02  0.00000000000E+00 0. -1.
         -2    1    1    2    0  502 -0.11202893997E+01 -0.81061474721E+02  0.88019256214E+02  0.11966456116E+03  0.00000000000E+00 0.  1.
<scales pt_clust_5="13000.00000" pt_clust_6="13000.00000" pt_clust_7="13000.00000" pt_clust_8="13000.00000" pt_clust_9="81.06922"></scales>
<clustering>
<clus scale="   80.518">  5  6 -1 -1</clus>
<clus scale="   81.069">  1  9  2 -1</clus>
<clus scale="   90.246">  7  8 -1 -1</clus>
<clus scale="  149.481">  2  5  1 -1</clus>
<clus scale="   81.069">  1  5  2 -1</clus>
</clustering>
</event>
<event>
 9    2  0.9254368E-005  0.1280542E+03  0.7546771E-02  0.1233347E+00
          2   -1    0    0  502    0 -0.00000000000E+00  0.00000000000E+00  0.86741809302E+03  0.86741809302E+03  0.00000000000E+00 0. -1.
         21   -1    0    0  501  502  0.00000000000E+00 -0.00000000000E+00 -0.46593804480E+02  0.46593804480E+02  0.00000000000E+00 0.  1.
         23    2    1    2    0    0  0.83276596655E+02  0.10838793659E+02  0.64966585561E+03  0.66136449163E+03  0.91020853900E+02 0.  0.
         24    2    1    2    0    0 -0.11652251232E+03 -0.13386884558E+02  0.16678731475E+03  0.21901869270E+03  0.79965460250E+02 0.  0.
        -11    1    4    4    0    0 -0.24895397326E+02 -0.18703590892E+02  0.30180615607E+01  0.31284402117E+02  0.00000000000E+00 0.  1.
         12    1    4    4    0    0 -0.91627114994E+02  0.53167063337E+01  0.16376925319E+03  0.18773429058E+03  0.00000000000E+00 0. -1.
        -13    1    3    3    0    0  0.67332088525E+02 -0.34145640796E+02  0.42955704421E+03  0.43614079052E+03  0.00000000000E+00 0. -1.
         13    1    3    3    0    0  0.15944508129E+02  0.44984434455E+02  0.22010881140E+03  0.22522370110E+03  0.00000000000E+00 0.  1.
          1    1    1    2  501    0  0.33245915665E+02  0.25480908998E+01  0.43711181766E+01  0.33628713174E+02  0.00000000000E+00 0. -1.
<scales pt_clust_5="13000.00000" pt_clust_6="13000.00000" pt_clust_7="13000.00000" pt_clust_8="13000.00000" pt_clust_9="33.34342"></scales>
<clustering>
<clus scale="   33.343">  2  9  1 -1</clus>
<clus scale="   79.965">  5  6 -1 -1</clus>
<clus scale="   91.021">  7  8 -1 -1</clus>
<clus scale="  120.447">  2  5  1 -1</clus>
<clus scale="   33.343">  2  5  1 -1</clus>
</clustering>
</event>
<event>
 9    2  0.9254368E-005  0.1960928E+03  0.7546771E-02  0.1154319E+00
          2   -1    0    0  502    0 -0.00000000000E+00  0.00000000000E+00  0.56198212823E+03  0.56198212823E+03  0.00000000000E+00 0. -1.
         21   -1    0    0  501  502  0.00000000000E+00 -0.00000000000E+00 -0.87889025395E+02  0.87889025395E+02  0.00000000000E+00 0. -1.
         24    2    1    2    0    0 -0.40513595157E+02  0.17626134838E+03  0.35583451289E+03  0.40726811991E+03  0.80868452482E+02 0.  0.
         23    2    1    2    0    0  0.42862097166E+02 -0.15028904427E+03  0.11716140417E+03  0.21650169544E+03  0.93392897500E+02 0.  0.
        -13    1    3    3    0    0  0.88635728082E+01  0.49046029940E+02  0.42474393291E+02  0.65483967971E+02  0.00000000000E+00 0.  1.
         14    1    3    3    0    0 -0.49377167966E+02  0.12721531844E+03  0.31336011960E+03  0.34178415194E+03  0.00000000000E+00 0. -1.
        -11    1    4    4    0    0  0.13878489318E+02 -0.14780467844E+03  0.77942375969E+02  0.16767185037E+03  0.00000000000E+00 0.  1.
         11    1    4    4    0    0  0.28983607848E+02 -0.24843658296E+01  0.39219028196E+02  0.48829845076E+02  0.00000000000E+00 0. -1.
          1    1    1    2  501    0 -0.23485020082E+01 -0.25972304112E+02  0.10971857731E+01  0.26101338265E+02  0.00000000000E+00 0. -1.
<scales pt_clust_5="13000.00000" pt_clust_6="13000.00000" pt_clust_7="13000.00000" pt_clust_8="13000.00000" pt_clust_9="26.07827"></scales>
<clustering>
<clus scale="   26.078">  2  9  1 -1</clus>
<clus scale="   80.868">  5  6 -1 -1</clus>
<clus scale="   93.393">  7  8 -1 -1</clus>
<clus scale="  190.446">  1  5  2 -1</clus>
<clus scale="   26.078">  2  5  1 -1</clus>
</clustering>
</event>
<event>
 9    2  0.9254368E-005  0.1052642E+03  0.7546771E-02  0.1273988E+00
          2   -1    0    0  502    0 -0.00000000000E+00  0.00000000000E+00  0.12000611265E+03  0.12000611265E+03  0.00000000000E+00 0. -1.
         21   -1    0    0  501  502  0.00000000000E+00 -0.00000000000E+00 -0.34745856159E+03  0.34745856159E+03  0.00000000000E+00 0. -1.
         23    2    1    2    0    0 -0.17144241919E+02 -0.56244837169E+02  0.78101433452E+02  0.13370733382E+03  0.91216284022E+02 0.  0.
         24    2    1    2    0    0 -0.57205665643E+01  0.92658897701E+01 -0.19259959277E+03  0.20930456821E+03  0.81210944737E+02 0.  0.
        -11    1    4    4    0    0  0.33013364404E+02  0.26679646212E-01 -0.41411417145E+02  0.52960253124E+02  0.00000000000E+00 0.  1.
         12    1    4    4    0    0 -0.38733930968E+02  0.92392101239E+01 -0.15118817563E+03  0.15634431509E+03  0.00000000000E+00 0. -1.
        -13    1    3    3    0    0 -0.27684096209E+02  0.18271933309E+02  0.26522057594E+02  0.42469898384E+02  0.00000000000E+00 0.  1.
         13    1    3    3    0    0  0.10539854290E+02 -0.74516770478E+02  0.51579375857E+02  0.91237435435E+02  0.00000000000E+00 0. -1.
          1    1    1    2  501    0  0.22864808483E+02  0.46978947399E+02 -0.11295428962E+03  0.12445277221E+03  0.00000000000E+00 0. -1.
<scales pt_clust_5="13000.00000" pt_clust_6="13000.00000" pt_clust_7="13000.00000" pt_clust_8="13000.00000" pt_clust_9="52.24769"></scales>
<clustering>
<clus scale="   52.248">  2  9  1 -1</clus>
<clus scale="   81.211">  5  6 -1 -1</clus>
<clus scale="   91.216">  7  8 -1 -1</clus>
<clus scale="   96.723">  2  5  1 -1</clus>
<clus scale="   52.248">  2  5  1 -1</clus>
</clustering>
</event>
<event>
 9    2  0.9254368E-005  0.1045003E+03  0.7546771E-02  0.1275791E+00
          2   -1    0    0  502    0 -0.00000000000E+00  0.00000000000E+00  0.84491004117E+03  0.84491004117E+03  0.00000000000E+00 0. -1.
         21   -1    0    0  501  502  0.00000000000E+00 -0.00000000000E+00 -0.29934984553E+02  0.29934984553E+02  0.00000000000E+00 0.  1.
         23    2    1    2    0    0 -0.86751305035E+02  0.20706946748E+02  0.57535185444E+03  0.58637653756E+03  0.69664344032E+02 0.  0.
         24    2    1    2    0    0  0.19901416157E+02 -0.15525140410E+02  0.17792098643E+03  0.19734811619E+03  0.81567795121E+02 0.  0.
        -11    1    4    4    0    0 -0.23653904058E+02 -0.27740694501E+02  0.51659345434E+02  0.63227693927E+02  0.00000000000E+00 0.  1.
         12    1    4    4    0    0  0.43555320214E+02  0.12215554091E+02  0.12626164100E+03  0.13412042226E+03  0.00000000000E+00 0. -1.
        -11    1    3    3    0    0 -0.10926848488E+02 -0.23020111363E+02  0.11714991755E+03  0.11988921856E+03  0.00000000000E+00 0.  1.
         11    1    3    3    0    0 -0.75824456547E+02  0.43727058111E+02  0.45820193689E+03  0.46648731900E+03  0.00000000000E+00 0. -1.
          1    1    1    2  501    0  0.66849888879E+02 -0.51818063377E+01  0.61702215747E+02  0.91120371971E+02  0.00000000000E+00 0. -1.
<scales pt_clust_5="13000.00000" pt_clust_6="13000.00000" pt_clust_7="13000.00000" pt_clust_8="13000.00000" pt_clust_9="67.05042"></scales>
<clustering>
<clus scale="   67.050">  2  9  1 -1</clus>
<clus scale="   69.664">  7  8 -1 -1</clus>
<clus scale="   81.568">  5  6 -1 -1</clus>
<clus scale="   95.499">  1  7  2 -1</clus>
<clus scale="   67.050">  2  5  1 -1</clus>
</clustering>
</event>
<event>
 9    2  0.9254368E-005  0.9433231E+02  0.7546771E-02  0.1297241E+00
         21   -1    0    0  501  502  0.00000000000E+00  0.00000000000E+00  0.10845692725E+03  0.10845692725E+03  0.00000000000E+00 0. -1.
          4   -1    0    0  502    0 -0.00000000000E+00 -0.00000000000E+00 -0.14421746826E+03  0.14421746826E+03  0.00000000000E+00 0. -1.
         23    2    1    2    0    0 -0.17499837041E+02  0.11526624276E+02 -0.79225470983E+02  0.12231341059E+03  0.90800813845E+02 0.  0.
         24    2    1    2    0    0  0.36196180091E+02 -0.22538175163E+02  0.52418881686E+02  0.10688800582E+03  0.82820129428E+02 0.  0.
        -13    1    4    4    0    0  0.51551642340E+02 -0.41026025735E+02  0.25102297126E+02  0.70504127089E+02  0.00000000000E+00 0.  1.
         14    1    4    4    0    0 -0.15355462249E+02  0.18487850572E+02  0.27316584561E+02  0.36383878734E+02  0.00000000000E+00 0. -1.
        -11    1    3    3    0    0  0.95170532772E+00  0.48987608967E+02 -0.56447792440E+02  0.74746537356E+02  0.00000000000E+00 0.  1.
         11    1    3    3    0    0 -0.18451542368E+02 -0.37460984691E+02 -0.22777678543E+02  0.47566873238E+02  0.00000000000E+00 0. -1.
          3    1    1    2  501    0 -0.18696343050E+02  0.11011550887E+02 -0.89539517056E+01  0.23472979094E+02  0.00000000000E+00 0. -1.
<scales pt_clust_5="13000.00000" pt_clust_6="13000.00000" pt_clust_7="13000.00000" pt_clust_8="13000.00000" pt_clust_9="21.69811"></scales>
<clustering>
<clus scale="   21.698">  1  9  2 -1</clus>
<clus scale="   82.820">  5  6 -1 -1</clus>
<clus scale="   86.677">  1  5  2 -1</clus>
<clus scale="   90.801">  7  8 -1 -1</clus>
<clus scale="   21.698">  1  5  2 -1</clus>
</clustering>
</event>
<event>
 9    2  0.9254368E-005  0.2332723E+03  0.7546771E-02  0.1125053E+00
          2   -1    0    0  502    0 -0.00000000000E+00  0.00000000000E+00  0.40428723073E+03  0.40428723073E+03  0.00000000000E+00 0. -1.
         21   -1    0    0  501  502  0.00000000000E+00 -0.00000000000E+00 -0.36339662905E+03  0.36339662905E+03  0.00000000000E+00 0. -1.
         24    2    1    2    0    0 -0.80518726130E+02 -0.19893242149E+03  0.14122154660E+03  0.26947795167E+03  0.81347818883E+02 0.  0.
         23    2    1    2    0    0  0.35815366660E+02  0.21382048720E+03  0.12594904129E+03  0.26707244665E+03  0.91992334056E+02 0.  0.
        -13    1    3    3    0    0 -0.90790599701E+02 -0.13750100691E+03  0.84218802558E+02  0.18504666060E+03  0.00000000000E+00 0.  1.
         14    1    3    3    0    0  0.10271873571E+02 -0.61431414582E+02  0.57002744042E+02  0.84431291074E+02  0.00000000000E+00 0. -1.
        -13    1    4    4    0    0 -0.22017710526E+02  0.94128233536E+02  0.82889762243E+02  0.12734055367E+03  0.00000000000E+00 0.  1.
         13    1    4    4    0    0  0.57833077186E+02  0.11969225366E+03  0.43059279047E+02  0.13973189298E+03  0.00000000000E+00 0. -1.
          1    1    1    2  501    0  0.44703359470E+02 -0.14888065712E+02 -0.22627998621E+03  0.23113346146E+03  0.00000000000E+00 0. -1.
<scales pt_clust_5="13000.00000" pt_clust_6="13000.00000" pt_clust_7="13000.00000" pt_clust_8="13000.00000" pt_clust_9="47.11735"></scales>
<clustering>
<clus scale="   47.117">  2  9  1 -1</clus>
<clus scale="   81.348">  5  6 -1 -1</clus>
<clus scale="   91.992">  7  8 -1 -1</clus>
<clus scale="  229.283">  1  5  2 -1</clus>
<clus scale="   47.117">  2  5  1 -1</clus>
</clustering>
</event>
<event>
 9    2  0.9254368E-005  0.1181543E+03  0.7546771E-02  0.1248517E+00
          4   -1    0    0  502    0 -0.00000000000E+00  0.00000000000E+00  0.64569498501E+03  0.64569498501E+03  0.00000000000E+00 0. -1.
         21   -1    0    0  501  502  0.00000000000E+00 -0.00000000000E+00 -0.38648608267E+02  0.38648608267E+02  0.00000000000E+00 0. -1.
         24    2    1    2    0    0  0.21479849219E+02 -0.75777200198E+02  0.38715666675E+03  0.40385715848E+03  0.83706342991E+02 0.  0.
         23    2    1    2    0    0 -0.41404277737E+02  0.54109680168E+02  0.83549689950E+02  0.14100501904E+03  0.90882853169E+02 0.  0.
        -13    1    3    3    0    0  0.14905737921E+02  0.16159794306E+02  0.57573192448E+02  0.61627854609E+02  0.00000000000E+00 0.  1.
         14    1    3    3    0    0  0.65741112979E+01 -0.91936994503E+02  0.32958347430E+03  0.34222930387E+03  0.00000000000E+00 0. -1.
        -13    1    4    4    0    0 -0.28405321945E+02 -0.19358059364E+02  0.46156222851E+02  0.57549923415E+02  0.00000000000E+00 0. -1.
         13    1    4    4    0    0 -0.12998955791E+02  0.73467739532E+02  0.37393467099E+02  0.83455095622E+02  0.00000000000E+00 0.  1.
          3    1    1    2  501    0  0.19924428518E+02  0.21667520029E+02  0.13634002005E+03  0.13948141576E+03  0.00000000000E+00 0. -1.
<scales pt_clust_5="13000.00000" pt_clust_6="13000.00000" pt_clust_7="13000.00000" pt_clust_8="13000.00000" pt_clust_9="29.43578"></scales>
<clustering>
<clus scale="   29.436">  2  9  1 -1</clus>
<clus scale="   83.706">  5  6 -1 -1</clus>
<clus scale="   90.883">  7  8 -1 -1</clus>
<clus scale="  112.728">  1  5  2 -1</clus>
<clus scale="   29.436">  2  5  1 -1</clus>
</clustering>
</event>
<event>
 9    2  0.9254368E-005  0.1563968E+03  0.7546771E-02  0.1213843E+00
         21   -1    0    0  501  502  0.00000000000E+00  0.00000000000E+00  0.20100259529E+03  0.20100259529E+03  0.00000000000E+00 0. -1.
          2   -1    0    0  502    0 -0.00000000000E+00 -0.00000000000E+00 -0.22336626128E+03  0.22336626128E+03  0.00000000000E+00 0. -1.
         24    2    1    2    0    0 -0.38879364557E+02 -0.61371230989E+02  0.62332115086E+02  0.11727005233E+03  0.67741712569E+02 0.  0.
         23    2    1    2    0    0  0.13746622386E+03  0.94946608927E+02 -0.49059922776E+02  0.19702342449E+03  0.92192909311E+02 0.  0.
        -13    1    3    3    0    0 -0.48459275710E+02 -0.26661043455E+02  0.59368748735E+02  0.81140378153E+02  0.00000000000E+00 0.  1.
         14    1    3    3    0    0  0.95799111529E+01 -0.34710187533E+02  0.29633663513E+01  0.36129674181E+02  0.00000000000E+00 0. -1.
        -11    1    4    4    0    0  0.33639435325E+02 -0.16059344386E+02  0.10116139666E+00  0.37276324721E+02  0.00000000000E+00 0.  1.
         11    1    4    4    0    0  0.10382678853E+03  0.11100595331E+03 -0.49161084173E+02  0.15974709977E+03  0.00000000000E+00 0. -1.
          1    1    1    2  501    0 -0.98586859302E+02 -0.33575377938E+02 -0.35635858298E+02  0.11007537975E+03  0.00000000000E+00 0. -1.
<scales pt_clust_5="13000.00000" pt_clust_6="13000.00000" pt_clust_7="13000.00000" pt_clust_8="13000.00000" pt_clust_9="126.33455"></scales>
<clustering>
<clus scale="   67.742">  5  6 -1 -1</clus>
<clus scale="   92.193">  7  8 -1 -1</clus>
<clus scale="   99.333">  2  5  1 -1</clus>
<clus scale="  126.335">  1  9  2 -1</clus>
<clus scale="  126.335">  1  5  2 -1</clus>
</clustering>
</event>
<event>
 9    2  0.9254368E-005  0.1028587E+03  0.7546771E-02  0.1279206E+00
          2   -1    0    0  502    0 -0.00000000000E+00  0.00000000000E+00  0.76868755807E+03  0.76868755807E+03  0.00000000000E+00 0. -1.
         21   -1    0    0  501  502  0.00000000000E+00 -0.00000000000E+00 -0.24753759402E+02  0.24753759402E+02  0.00000000000E+00 0.  1.
         24    2    1    2    0    0 -0.49102305004E+02 -0.85263692326E+01  0.39129867007E+03  0.40272107046E+03  0.81153410688E+02 0.  0.
         23    2    1    2    0    0  0.22270938121E+02  0.56873426256E+02  0.19792609201E+03  0.22642707560E+03  0.91454367667E+02 0.  0.
        -13    1    3    3    0    0 -0.66715313424E+02 -0.23676184281E+02  0.31983935985E+03  0.32758008312E+03  0.00000000000E+00 0.  1.
         14    1    3    3    0    0  0.17613008421E+02  0.15149815048E+02  0.71459310224E+02  0.75140987346E+02  0.00000000000E+00 0. -1.
        -11    1    4    4    0    0  0.35439778754E+02  0.91421617950E+01  0.15979167668E+03  0.16392967082E+03  0.00000000000E+00 0. -1.
         11    1    4    4    0    0 -0.13168840633E+02  0.47731264461E+02  0.38134415333E+02  0.62497404773E+02  0.00000000000E+00 0.  1.
          1    1    1    2  501    0  0.26831366883E+02 -0.48347057023E+02  0.15470903659E+03  0.16429317141E+03  0.00000000000E+00 0. -1.
<scales pt_clust_5="13000.00000" pt_clust_6="13000.00000" pt_clust_7="13000.00000" pt_clust_8="13000.00000" pt_clust_9="55.29343"></scales>
<clustering>
<clus scale="   55.293">  2  9  1 -1</clus>
<clus scale="   81.153">  5  6 -1 -1</clus>
<clus scale="   91.454">  7  8 -1 -1</clus>
<clus scale="   93.818">  1  5  2 -1</clus>
<clus scale="   55.293">  2  5  1 -1</clus>
</clustering>
</event>
<event>
 9    2  0.9254368E-005  0.9788857E+02  0.7546771E-02  0.1289228E+00
         21   -1    0    0  501  502  0.00000000000E+00  0.00000000000E+00  0.37045460722E+02  0.37045460722E+02  0.00000000000E+00 0. -1.
          2   -1    0    0  502    0 -0.00000000000E+00 -0.00000000000E+00 -0.72872691701E+03  0.72872691701E+03  0.00000000000E+00 0. -1.
         24    2    1    2    0    0 -0.60579629376E+02 -0.14412827286E+02 -0.30689181077E+03  0.32227707869E+03  0.76172900999E+02 0.  0.
         23    2    1    2    0    0 -0.10666027627E+02  0.68331098330E+02 -0.30331301981E+03  0.32257563922E+03  0.85283948596E+02 0.  0.
        -13    1    3    3    0    0 -0.76175961407E+02 -0.16157395135E+02 -0.20704754540E+03  0.22120697225E+03  0.00000000000E+00 0.  1.
         14    1    3    3    0    0  0.15596332031E+02  0.17445678497E+01 -0.99844265362E+02  0.10107010644E+03  0.00000000000E+00 0. -1.
        -13    1    4    4    0    0 -0.46694870287E+02  0.53024874428E+02 -0.19445189239E+03  0.20689027689E+03  0.00000000000E+00 0. -1.
         13    1    4    4    0    0  0.36028842660E+02  0.15306223902E+02 -0.10886112742E+03  0.11568536233E+03  0.00000000000E+00 0.  1.
          1    1    1    2  501    0  0.71245657003E+02 -0.53918271044E+02 -0.81476625712E+02  0.12091965982E+03  0.00000000000E+00 0. -1.
<scales pt_clust_5="13000.00000" pt_clust_6="13000.00000" pt_clust_7="13000.00000" pt_clust_8="13000.00000" pt_clust_9="89.34833"></scales>
<clustering>
<clus scale="   76.173">  5  6 -1 -1</clus>
<clus scale="   85.284">  7  8 -1 -1</clus>
<clus scale="   89.348">  1  9  2 -1</clus>
<clus scale="   90.062">  2  5  1 -1</clus>
<clus scale="   89.348">  1  5  2 -1</clus>
</clustering>
</event>
<event>
 9    2  0.9254368E-005  0.1660667E+03  0.7546771E-02  0.1183215E+00
          2   -1    0    0  502    0 -0.00000000000E+00  0.00000000000E+00  0.11926031596E+04  0.11926031596E+04  0.00000000000E+00 0. -1.
         21   -1    0    0  501  502  0.00000000000E+00 -0.00000000000E+00 -0.32386774632E+02  0.32386774632E+02  0.00000000000E+00 0. -1.
         23    2    1    2    0    0  0.35057605516E+02  0.15513336356E+03  0.55474038938E+03  0.58399941348E+03  0.89571307582E+02 0.  0.
         24    2    1    2    0    0  0.84889894409E+01 -0.12292152475E+03  0.34965690091E+03  0.37949995172E+03  0.81107957753E+02 0.  0.
        -13    1    4    4    0    0 -0.46349293519E+01 -0.23019509229E+02  0.10554883670E+02  0.25744629431E+02  0.00000000000E+00 0.  1.
         14    1    4    4    0    0  0.13123918793E+02 -0.99902015520E+02  0.33910201724E+03  0.35375532229E+03  0.00000000000E+00 0. -1.
        -11    1    3    3    0    0  0.48325375957E+02  0.30824026734E+02  0.16195475051E+03  0.17179873049E+03  0.00000000000E+00 0.  1.
         11    1    3    3    0    0 -0.13267770441E+02  0.12430933683E+03  0.39278563887E+03  0.41220068298E+03  0.00000000000E+00 0. -1.
          1    1    1    2  501    0 -0.43546594957E+02 -0.32211838811E+02  0.25581909464E+03  0.26149056899E+03  0.00000000000E+00 0. -1.
<scales pt_clust_5="13000.00000" pt_clust_6="13000.00000" pt_clust_7="13000.00000" pt_clust_8="13000.00000" pt_clust_9="54.16559"></scales>
<clustering>
<clus scale="   54.166">  2  9  1 -1</clus>
<clus scale="   81.108">  5  6 -1 -1</clus>
<clus scale="   89.571">  7  8 -1 -1</clus>
<clus scale="  161.659">  2  5  1 -1</clus>
<clus scale="   54.166">  2  5  1 -1</clus>
</clustering>
</event>
<event>
 9    2  0.9254368E-005  0.1014473E+03  0.7546771E-02  0.1283235E+00
         21   -1    0    0  501  502  0.00000000000E+00  0.00000000000E+00  0.50295987964E+02  0.50295987964E+02  0.00000000000E+00 0. -1.
          2   -1    0    0  502    0 -0.00000000000E+00 -0.00000000000E+00 -0.49239473887E+03  0.49239473887E+03  0.00000000000E+00 0. -1.
         23    2    1    2    0    0  0.30407893802E+02  0.42674518118E+02 -0.27768864478E+03  0.29734890770E+03  0.92518295298E+02 0.  0.
         24    2    1    2    0    0  0.75445113926E+01 -0.73121593188E+01 -0.91631698622E+01  0.81657694378E+02  0.80458859320E+02 0.  0.
        -13    1    4    4    0    0  0.37515426617E+02  0.16879495512E+02  0.30521391127E+01  0.41250941276E+02  0.00000000000E+00 0.  1.
         14    1    4    4    0    0 -0.29970915225E+02 -0.24191654830E+02 -0.12215308975E+02  0.40406753101E+02  0.00000000000E+00 0. -1.
        -13    1    3    3    0    0 -0.17675172850E+02  0.42556887985E+02 -0.67494335490E+02  0.81725062089E+02  0.00000000000E+00 0.  1.
         13    1    3    3    0    0  0.48083066652E+02  0.11763013388E+00 -0.21019430929E+03  0.21562384561E+03  0.00000000000E+00 0. -1.
          1    1    1    2  501    0 -0.37952405195E+02 -0.35362358800E+02 -0.15524693626E+03  0.16368412476E+03  0.00000000000E+00 0. -1.
<scales pt_clust_5="13000.00000" pt_clust_6="13000.00000" pt_clust_7="13000.00000" pt_clust_8="13000.00000" pt_clust_9="51.87373"></scales>
<clustering>
<clus scale="   51.874">  1  9  2 -1</clus>
<clus scale="   80.459">  5  6 -1 -1</clus>
<clus scale="   90.585">  1  5  2 -1</clus>
<clus scale="   92.518">  7  8 -1 -1</clus>
<clus scale="   51.874">  1  5  2 -1</clus>
</clustering>
</event>
<event>
 9    2  0.9254368E-005  0.3889752E+03  0.7546771E-02  0.1047702E+00
         21   -1    0    0  501  502  0.00000000000E+00  0.00000000000E+00  0.15643643602E+04  0.15643643602E+04  0.00000000000E+00 0.  1.
          2   -1    0    0  502    0 -0.00000000000E+00 -0.00000000000E+00 -0.11314115506E+03  0.11314115506E+03  0.00000000000E+00 0. -1.
         23    2    1    2    0    0  0.36001530877E+03  0.72849370258E+02  0.51619226279E+03  0.63972535010E+03  0.88746932930E+02 0.  0.
         24    2    1    2    0    0 -0.38111013563E+03 -0.10205936009E+03  0.78187104151E+03  0.88043922817E+03  0.90497847995E+02 0.  0.
        -11    1    4    4    0    0 -0.29219485714E+03 -0.95267301809E+02  0.52271522808E+03  0.60637026890E+03  0.00000000000E+00 0.  1.
         12    1    4    4    0    0 -0.88915278483E+02 -0.67920582783E+01  0.25915581343E+03  0.27406895927E+03  0.00000000000E+00 0. -1.
        -13    1    3    3    0    0  0.37558552540E+02  0.29257578683E+02  0.10556489377E+03  0.11580413454E+03  0.00000000000E+00 0.  1.
         13    1    3    3    0    0  0.32245675623E+03  0.43591791575E+02  0.41062736902E+03  0.52392121556E+03  0.00000000000E+00 0. -1.
          1    1    1    2  501    0  0.21094826858E+02  0.29209989829E+02  0.15315990088E+03  0.15734093702E+03  0.00000000000E+00 0. -1.
<scales pt_clust_5="13000.00000" pt_clust_6="13000.00000" pt_clust_7="13000.00000" pt_clust_8="13000.00000" pt_clust_9="36.03075"></scales>
<clustering>
<clus scale="   36.031">  1  9  2 -1</clus>
<clus scale="   88.747">  7  8 -1 -1</clus>
<clus scale="   90.498">  5  6 -1 -1</clus>
<clus scale="  388.572">  2  7  1 -1</clus>
<clus scale="   36.031">  1  5  2 -1</clus>
</clustering>
</event>
<event>
 9    2  0.9254368E-005  0.1242765E+03  0.7546771E-02  0.1239788E+00
          2   -1    0    0  502    0 -0.00000000000E+00  0.00000000000E+00  0.97465639312E+03  0.97465639312E+03  0.00000000000E+00 0. -1.
         21   -1    0    0  501  502  0.00000000000E+00 -0.00000000000E+00 -0.35217348988E+02  0.35217348988E+02  0.00000000000E+00 0. -1.
         24    2    1    2    0    0  0.59342468742E+02 -0.65060348625E+01  0.26634271790E+03  0.28439546037E+03  0.79865370554E+02 0.  0.
         23    2    1    2    0    0 -0.13891308706E+03  0.23642566997E+02  0.30376017906E+03  0.34727948000E+03  0.92070484484E+02 0.  0.
        -13    1    3    3    0    0  0.17039306025E+02 -0.31741680757E+02  0.45033101791E+02  0.57670204647E+02  0.00000000000E+00 0.  1.
         14    1    3    3    0    0  0.42303162716E+02  0.25235645894E+02  0.22130961611E+03  0.22672525573E+03  0.00000000000E+00 0. -1.
        -11    1    4    4    0    0 -0.15978258789E+02 -0.17683877221E+02  0.12010001015E+03  0.12244197281E+03  0.00000000000E+00 0.  1.
         11    1    4    4    0    0 -0.12293482827E+03  0.41326444218E+02  0.18366016891E+03  0.22483750718E+03  0.00000000000E+00 0. -1.
          1    1    1    2  501    0  0.79570618318E+02 -0.17136532135E+02  0.36933614716E+03  0.37819880174E+03  0.00000000000E+00 0. -1.
<scales pt_clust_5="13000.00000" pt_clust_6="13000.00000" pt_clust_7="13000.00000" pt_clust_8="13000.00000" pt_clust_9="81.39503"></scales>
<clustering>
<clus scale="   79.865">  5  6 -1 -1</clus>
<clus scale="   81.395">  2  9  1 -1</clus>
<clus scale="   92.070">  7  8 -1 -1</clus>
<clus scale="  115.526">  1  5  2 -1</clus>
<clus scale="   81.395">  2  5  1 -1</clus>
</clustering>
</event>
<event>
 9    2  0.9254368E-005  0.1023645E+03  0.7546771E-02  0.1279139E+00
         -1   -1    0    0    0  501 -0.00000000000E+00  0.00000000000E+00  0.71467682923E+02  0.71467682923E+02  0.00000000000E+00 0.  1.
         21   -1    0    0  501  502  0.00000000000E+00 -0.00000000000E+00 -0.60520735876E+03  0.60520735876E+03  0.00000000000E+00 0.  1.
         24    2    1    2    0    0  0.27185786009E+02 -0.15572485074E+02 -0.92563216981E+01  0.90134744140E+02  0.84006091193E+02 0.  0.
         23    2    1    2    0    0 -0.10831288818E+03 -0.82848489419E+01 -0.16804472994E+03  0.22020810961E+03  0.91936172485E+02 0.  0.
        -13    1    3    3    0    0  0.21975443078E+02  0.20922479660E+02  0.25374995905E+02  0.39554527817E+02  0.00000000000E+00 0.  1.
         14    1    3    3    0    0  0.52103429312E+01 -0.36494964734E+02 -0.34631317603E+02  0.50580216323E+02  0.00000000000E+00 0. -1.
        -11    1    4    4    0    0 -0.56922370277E+02 -0.23252328611E+02 -0.15256352431E+03  0.16448846760E+03  0.00000000000E+00 0.  1.
         11    1    4    4    0    0 -0.51390517900E+02  0.14967479670E+02 -0.15481205623E+02  0.55719642006E+02  0.00000000000E+00 0. -1.
         -2    1    1    2    0  502  0.81127102168E+02  0.23857334016E+02 -0.35643862420E+03  0.36633218793E+03  0.00000000000E+00 0.  1.
<scales pt_clust_5="13000.00000" pt_clust_6="13000.00000" pt_clust_7="13000.00000" pt_clust_8="13000.00000" pt_clust_9="84.56228"></scales>
<clustering>
<clus scale="   84.006">  5  6 -1 -1</clus>
<clus scale="   84.562">  2  9  1 -1</clus>
<clus scale="   91.936">  7  8 -1 -1</clus>
<clus scale="   95.306">  1  5  2 -1</clus>
<clus scale="   84.562">  2  5  1 -1</clus>
</clustering>
</event>
<event>
 9    2  0.9254368E-005  0.2242270E+03  0.7546771E-02  0.1162287E+00
         21   -1    0    0  501  502  0.00000000000E+00  0.00000000000E+00  0.86659152018E+02  0.86659152018E+02  0.00000000000E+00 0. -1.
          2   -1    0    0  502    0 -0.00000000000E+00 -0.00000000000E+00 -0.10034043990E+04  0.10034043990E+04  0.00000000000E+00 0. -1.
         24    2    1    2    0    0 -0.20077151022E-01 -0.27864586462E+02 -0.65872756869E+02  0.12459142807E+03  0.10201650979E+03 0.  0.
         23    2    1    2    0    0 -0.14482357782E+03  0.15434167114E+03 -0.27827881837E+03  0.36145254524E+03  0.91725795519E+02 0.  0.
        -13    1    3    3    0    0  0.82254614956E+01  0.20674083193E+02  0.17133227656E+02  0.28082439755E+02  0.00000000000E+00 0.  1.
         14    1    3    3    0    0 -0.82455386466E+01 -0.48538669655E+02 -0.83005984525E+02  0.96508988319E+02  0.00000000000E+00 0. -1.
        -13    1    4    4    0    0 -0.49597863935E+02  0.58348870618E+02 -0.37414614686E+02  0.85231403845E+02  0.00000000000E+00 0. -1.
         13    1    4    4    0    0 -0.95225713883E+02  0.95992800524E+02 -0.24086420368E+03  0.27622114139E+03  0.00000000000E+00 0.  1.
          1    1    1    2  501    0  0.14484365497E+03 -0.12647708468E+03 -0.57259367179E+03  0.60401957776E+03  0.00000000000E+00 0. -1.
<scales pt_clust_5="13000.00000" pt_clust_6="13000.00000" pt_clust_7="13000.00000" pt_clust_8="13000.00000" pt_clust_9="204.60735"></scales>
<clustering>
<clus scale="   91.726">  7  8 -1 -1</clus>
<clus scale="  102.017">  5  6 -1 -1</clus>
<clus scale="  105.754">  2  5  1 -1</clus>
<clus scale="  204.607">  1  9  2 -1</clus>
<clus scale="  204.607">  1  5  2 -1</clus>
</clustering>
</event>
<event>
 9    2  0.9254368E-005  0.2236834E+03  0.7546771E-02  0.1138420E+00
          2   -1    0    0  502    0 -0.00000000000E+00  0.00000000000E+00  0.48112414419E+03  0.48112414419E+03  0.00000000000E+00 0. -1.
         21   -1    0    0  501  502  0.00000000000E+00 -0.00000000000E+00 -0.23423081068E+03  0.23423081068E+03  0.00000000000E+00 0.  1.
         24    2    1    2    0    0 -0.43731294130E+02 -0.16292172166E+03  0.14067247905E+02  0.18799882788E+03  0.81790942923E+02 0.  0.
         23    2    1    2    0    0  0.21853650220E+03  0.25896886766E+02  0.57894123008E+02  0.24463036289E+03  0.89796622606E+02 0.  0.
        -13    1    3    3    0    0 -0.19542705191E+02 -0.16166568343E+03  0.16396101202E+02  0.16366594838E+03  0.00000000000E+00 0.  1.
         14    1    3    3    0    0 -0.24188588939E+02 -0.12560382324E+01 -0.23288532974E+01  0.24332879497E+02  0.00000000000E+00 0. -1.
        -13    1    4    4    0    0  0.17280072782E+03 -0.14136177646E+02  0.23983093421E+02  0.17502888854E+03  0.00000000000E+00 0.  1.
         13    1    4    4    0    0  0.45735774385E+02  0.40033064413E+02  0.33911029586E+02  0.69601474356E+02  0.00000000000E+00 0. -1.
          1    1    1    2  501    0 -0.17480520807E+03  0.13702483489E+03  0.17493196260E+03  0.28272576410E+03  0.00000000000E+00 0. -1.
<scales pt_clust_5="13000.00000" pt_clust_6="13000.00000" pt_clust_7="13000.00000" pt_clust_8="13000.00000" pt_clust_9="204.86793"></scales>
<clustering>
<clus scale="   81.791">  5  6 -1 -1</clus>
<clus scale="   89.797">  7  8 -1 -1</clus>
<clus scale="  187.472">  1  5  2 -1</clus>
<clus scale="  204.868">  2  9  1 -1</clus>
<clus scale="  204.868">  2  5  1 -1</clus>
</clustering>
</event>
<event>
 9    2  0.9254368E-005  0.1247623E+03  0.7546771E-02  0.1237784E+00
         21   -1    0    0  501  502  0.00000000000E+00  0.00000000000E+00  0.18171323248E+03  0.18171323248E+03  0.00000000000E+00 0. -1.
          2   -1    0    0  502    0 -0.00000000000E+00 -0.00000000000E+00 -0.46112793526E+03  0.46112793526E+03  0.00000000000E+00 0. -1.
         24    2    1    2    0    0  0.82863356834E+02  0.47616953590E+02 -0.35901535468E+03  0.38025782217E+03  0.81057240584E+02 0.  0.
         23    2    1    2    0    0 -0.25584725006E+02 -0.64507395341E+02 -0.47051436181E+02  0.12255877593E+03  0.89392581923E+02 0.  0.
        -13    1    3    3    0    0  0.18868048011E+02  0.57479264173E+02 -0.17967215707E+03  0.18958363081E+03  0.00000000000E+00 0.  1.
         14    1    3    3    0    0  0.63995308823E+02 -0.98623105830E+01 -0.17934319761E+03  0.19067419136E+03  0.00000000000E+00 0. -1.
        -13    1    4    4    0    0 -0.33215169500E+02 -0.58689928183E+01  0.14937203190E+02  0.36889193550E+02  0.00000000000E+00 0.  1.
         13    1    4    4    0    0  0.76304444942E+01 -0.58638402522E+02 -0.61988639372E+02  0.85669582377E+02  0.00000000000E+00 0. -1.
          1    1    1    2  501    0 -0.57278631828E+02  0.16890441751E+02  0.12665208808E+03  0.14002456964E+03  0.00000000000E+00 0. -1.
<scales pt_clust_5="13000.00000" pt_clust_6="13000.00000" pt_clust_7="13000.00000" pt_clust_8="13000.00000" pt_clust_9="59.71707"></scales>
<clustering>
<clus scale="   59.717">  1  9  2 -1</clus>
<clus scale="   81.057">  5  6 -1 -1</clus>
<clus scale="   89.393">  7  8 -1 -1</clus>
<clus scale="  118.932">  2  5  1 -1</clus>
<clus scale="   59.717">  1  5  2 -1</clus>
</clustering>
</event>
<event>
 9    2  0.9254368E-005  0.9969177E+02  0.7546771E-02  0.1286374E+00
          2   -1    0    0  502    0 -0.00000000000E+00  0.00000000000E+00  0.54164562790E+03  0.54164562790E+03  0.00000000000E+00 0. -1.
         21   -1    0    0  501  502  0.00000000000E+00 -0.00000000000E+00 -0.40885310691E+02  0.40885310691E+02  0.00000000000E+00 0. -1.
         23    2    1    2    0    0 -0.30999202358E+02  0.18868551732E+02  0.37445834014E+03  0.38720778347E+03  0.91617936506E+02 0.  0.
         24    2    1    2    0    0  0.48542009698E+02 -0.58601373941E+01  0.14044523769E+03  0.16930391698E+03  0.80921465624E+02 0.  0.
        -13    1    4    4    0    0  0.18504972052E+02 -0.38981323958E+02  0.37888600345E+02  0.57424068510E+02  0.00000000000E+00 0.  1.
         14    1    4    4    0    0  0.30037037646E+02  0.33121186564E+02  0.10255663734E+03  0.11187984846E+03  0.00000000000E+00 0. -1.
        -13    1    3    3    0    0 -0.11373622185E+02 -0.34420542376E+02  0.87990026519E+02  0.95165002947E+02  0.00000000000E+00 0.  1.
         13    1    3    3    0    0 -0.19625580172E+02  0.53289094108E+02  0.28646831362E+03  0.29204278052E+03  0.00000000000E+00 0. -1.
          1    1    1    2  501    0 -0.17542807340E+02 -0.13008414338E+02 -0.14143260614E+02  0.26019238147E+02  0.00000000000E+00 0. -1.
<scales pt_clust_5="13000.00000" pt_clust_6="13000.00000" pt_clust_7="13000.00000" pt_clust_8="13000.00000" pt_clust_9="21.83962"></scales>
<clustering>
<clus scale="   21.840">  2  9  1 -1</clus>
<clus scale="   80.921">  5  6 -1 -1</clus>
<clus scale="   89.960">  2  5  1 -1</clus>
<clus scale="   91.618">  7  8 -1 -1</clus>
<clus scale="   21.840">  2  5  1 -1</clus>
</clustering>
</event>
<event>
 9    2  0.9254368E-005  0.1123661E+03  0.7546771E-02  0.1267913E+00
          2   -1    0    0  502    0 -0.00000000000E+00  0.00000000000E+00  0.69107892235E+03  0.69107892235E+03  0.00000000000E+00 0. -1.
         21   -1    0    0  501  502  0.00000000000E+00 -0.00000000000E+00 -0.30930985051E+02  0.30930985051E+02  0.00000000000E+00 0. -1.
         23    2    1    2    0    0  0.47257571291E+02  0.33903703562E+02  0.30469298225E+03  0.32533873398E+03  0.98105755369E+02 0.  0.
         24    2    1    2    0    0 -0.63083356632E+02  0.21563280228E+02  0.12073816334E+03  0.15497091674E+03  0.70666795655E+02 0.  0.
        -11    1    4    4    0    0 -0.10490552280E+02  0.29191339200E+02  0.10771144794E+02  0.32836009678E+02  0.00000000000E+00 0.  1.
         12    1    4    4    0    0 -0.52592804352E+02 -0.76280589721E+01  0.10996701855E+03  0.12213490706E+03  0.00000000000E+00 0. -1.
        -13    1    3    3    0    0 -0.24948076098E+02 -0.12065508283E+02  0.59577004480E+02  0.65706943727E+02  0.00000000000E+00 0.  1.
         13    1    3    3    0    0  0.72205647389E+02  0.45969211845E+02  0.24511597777E+03  0.25963179026E+03  0.00000000000E+00 0. -1.
          1    1    1    2  501    0  0.15825785341E+02 -0.55466983789E+02  0.23471679171E+03  0.24170025668E+03  0.00000000000E+00 0. -1.
<scales pt_clust_5="13000.00000" pt_clust_6="13000.00000" pt_clust_7="13000.00000" pt_clust_8="13000.00000" pt_clust_9="57.68054"></scales>
<clustering>
<clus scale="   57.681">  2  9  1 -1</clus>
<clus scale="   70.667">  5  6 -1 -1</clus>
<clus scale="   89.416">  2  5  1 -1</clus>
<clus scale="   98.106">  7  8 -1 -1</clus>
<clus scale="   57.681">  2  5  1 -1</clus>
</clustering>
</event>
<event>
 9    2  0.9254368E-005  0.1514136E+03  0.7546771E-02  0.1200718E+00
         21   -1    0    0  501  502  0.00000000000E+00  0.00000000000E+00  0.30096948072E+02  0.30096948072E+02  0.00000000000E+00 0.  1.
          2   -1    0    0  502    0 -0.00000000000E+00 -0.00000000000E+00 -0.10292939256E+04  0.10292939256E+04  0.00000000000E+00 0. -1.
         24    2    1    2    0    0 -0.98470404240E+02  0.92560438861E+02 -0.63975481083E+03  0.65867512426E+03  0.79390465328E+02 0.  0.
         23    2    1    2    0    0  0.82285080335E+02 -0.59478250663E+02 -0.31427763206E+03  0.34243855769E+03  0.90472310846E+02 0.  0.
        -11    1    3    3    0    0 -0.10106343970E+03  0.56151544608E+02 -0.54510636771E+03  0.55723223788E+03  0.00000000000E+00 0.  1.
         12    1    3    3    0    0  0.25930354605E+01  0.36408894252E+02 -0.94648443121E+02  0.10144288639E+03  0.00000000000E+00 0. -1.
        -13    1    4    4    0    0  0.70582964435E+02 -0.79526334955E+02 -0.20739950272E+03  0.23306854475E+03  0.00000000000E+00 0. -1.
         13    1    4    4    0    0  0.11702115901E+02  0.20048084292E+02 -0.10687812934E+03  0.10937001294E+03  0.00000000000E+00 0.  1.
          1    1    1    2  501    0  0.16185323904E+02 -0.33082188197E+02 -0.45164534618E+02  0.58277191706E+02  0.00000000000E+00 0. -1.
<scales pt_clust_5="13000.00000" pt_clust_6="13000.00000" pt_clust_7="13000.00000" pt_clust_8="13000.00000" pt_clust_9="36.82928"></scales>
<clustering>
<clus scale="   36.829">  1  9  2 -1</clus>
<clus scale="   79.390">  5  6 -1 -1</clus>
<clus scale="   90.472">  7  8 -1 -1</clus>
<clus scale="  145.064">  2  5  1 -1</clus>
<clus scale="   36.829">  1  5  2 -1</clus>
</clustering>
</event>
<event>
 9    2  0.9254368E-005  0.1049287E+03  0.7546771E-02  0.1275158E+00
          2   -1    0    0  502    0 -0.00000000000E+00  0.00000000000E+00  0.45291398857E+03  0.45291398857E+03  0.00000000000E+00 0. -1.
         21   -1    0    0  501  502  0.00000000000E+00 -0.00000000000E+00 -0.81320068530E+02  0.81320068530E+02  0.00000000000E+00 0. -1.
         24    2    1    2    0    0  0.32775549890E+02 -0.47286027117E+02  0.28891526911E+03  0.30461246630E+03  0.77501721690E+02 0.  0.
         23    2    1    2    0    0 -0.65042120473E+02  0.14959723118E+01 -0.20671232840E+02  0.11206709633E+03  0.88876424569E+02 0.  0.
        -11    1    3    3    0    0  0.35394303559E+02  0.11068026609E+02  0.13447627583E+03  0.13949597377E+03  0.00000000000E+00 0.  1.
         12    1    3    3    0    0 -0.26187536691E+01 -0.58354053726E+02  0.15443899328E+03  0.16511649252E+03  0.00000000000E+00 0. -1.
        -11    1    4    4    0    0 -0.33900933051E+02  0.43465647099E+02 -0.23058623302E+02  0.59751450593E+02  0.00000000000E+00 0. -1.
         11    1    4    4    0    0 -0.31141187422E+02 -0.41969674787E+02  0.23873904620E+01  0.52315645738E+02  0.00000000000E+00 0.  1.
          1    1    1    2  501    0  0.32266570582E+02  0.45790054806E+02  0.10334988377E+03  0.11755449447E+03  0.00000000000E+00 0. -1.
<scales pt_clust_5="13000.00000" pt_clust_6="13000.00000" pt_clust_7="13000.00000" pt_clust_8="13000.00000" pt_clust_9="56.01664"></scales>
<clustering>
<clus scale="   56.017">  2  9  1 -1</clus>
<clus scale="   77.502">  5  6 -1 -1</clus>
<clus scale="   88.876">  7  8 -1 -1</clus>
<clus scale="   95.486">  1  5  2 -1</clus>
<clus scale="   56.017">  2  5  1 -1</clus>
</clustering>
</event>
<event>
 9    2  0.9254368E-005  0.1063843E+03  0.7546771E-02  0.1270905E+00
         21   -1    0    0  501  502  0.00000000000E+00  0.00000000000E+00  0.29972887449E+02  0.29972887449E+02  0.00000000000E+00 0.  1.
          2   -1    0    0  502    0 -0.00000000000E+00 -0.00000000000E+00 -0.59622816204E+03  0.59622816204E+03  0.00000000000E+00 0. -1.
         23    2    1    2    0    0 -0.59058546201E+02  0.18168508880E+02 -0.36203040957E+03  0.37772701332E+03  0.88281779242E+02 0.  0.
         24    2    1    2    0    0  0.58908082947E+02  0.19960373356E+02 -0.12709658013E+03  0.16243563410E+03  0.79769767479E+02 0.  0.
        -11    1    4    4    0    0  0.39887363798E+02  0.19847249088E+02 -0.12502134887E+02  0.46273301847E+02  0.00000000000E+00 0.  1.
         12    1    4    4    0    0  0.19020719149E+02  0.11312426849E+00 -0.11459444524E+03  0.11616233225E+03  0.00000000000E+00 0. -1.
        -11    1    3    3    0    0 -0.57036592962E+02 -0.24596367618E+02 -0.17027672192E+03  0.18125207934E+03  0.00000000000E+00 0. -1.
         11    1    3    3    0    0 -0.20219532388E+01  0.42764876498E+02 -0.19175368765E+03  0.19647493398E+03  0.00000000000E+00 0.  1.
          1    1    1    2  501    0  0.15046325366E+00 -0.38128882237E+02 -0.77128284891E+02  0.86038402066E+02  0.00000000000E+00 0. -1.
<scales pt_clust_5="13000.00000" pt_clust_6="13000.00000" pt_clust_7="13000.00000" pt_clust_8="13000.00000" pt_clust_9="38.12918"></scales>
<clustering>
<clus scale="   38.129">  1  9  2 -1</clus>
<clus scale="   79.770">  5  6 -1 -1</clus>
<clus scale="   88.282">  7  8 -1 -1</clus>
<clus scale="   99.434">  1  5  2 -1</clus>
<clus scale="   38.129">  1  5  2 -1</clus>
</clustering>
</event>
<event>
 9    2  0.9254368E-005  0.1146118E+03  0.7546771E-02  0.1263322E+00
          2   -1    0    0  502    0 -0.00000000000E+00  0.00000000000E+00  0.57102162882E+03  0.57102162882E+03  0.00000000000E+00 0. -1.
         21   -1    0    0  501  502  0.00000000000E+00 -0.00000000000E+00 -0.57493117531E+02  0.57493117531E+02  0.00000000000E+00 0. -1.
         24    2    1    2    0    0  0.44724002414E+02 -0.18500952799E+02  0.29130080928E+03  0.30588113082E+03  0.79778337005E+02 0.  0.
         23    2    1    2    0    0  0.13887444791E+02  0.84842126552E+02  0.17765314737E+03  0.22352083130E+03  0.10492794524E+03 0.  0.
        -11    1    3    3    0    0  0.27544361357E+02 -0.36203767178E+02  0.71796012242E+02  0.84994540850E+02  0.00000000000E+00 0.  1.
         12    1    3    3    0    0  0.17179641057E+02  0.17702814379E+02  0.21950479704E+03  0.22088658997E+03  0.00000000000E+00 0. -1.
        -13    1    4    4    0    0 -0.65964180756E+01  0.66958824537E+02  0.18372646635E+03  0.19565891585E+03  0.00000000000E+00 0.  1.
         13    1    4    4    0    0  0.20483862867E+02  0.17883302015E+02 -0.60733189782E+01  0.27861915446E+02  0.00000000000E+00 0. -1.
          1    1    1    2  501    0 -0.58611447205E+02 -0.66341173753E+02  0.44574554637E+02  0.99112784238E+02  0.00000000000E+00 0. -1.
<scales pt_clust_5="13000.00000" pt_clust_6="13000.00000" pt_clust_7="13000.00000" pt_clust_8="13000.00000" pt_clust_9="88.52374"></scales>
<clustering>
<clus scale="   79.778">  5  6 -1 -1</clus>
<clus scale="   88.524">  2  9  1 -1</clus>
<clus scale="   92.144">  1  5  2 -1</clus>
<clus scale="  104.928">  7  8 -1 -1</clus>
<clus scale="   88.524">  2  5  1 -1</clus>
</clustering>
</event>
<event>
 9    2  0.9254368E-005  0.1631257E+03  0.7546771E-02  0.1189755E+00
         21   -1    0    0  501  502  0.00000000000E+00  0.00000000000E+00  0.77291315949E+02  0.77291315949E+02  0.00000000000E+00 0.  1.
         -1   -1    0    0    0  501 -0.00000000000E+00 -0.00000000000E+00 -0.56855941652E+03  0.56855941652E+03  0.00000000000E+00 0.  1.
         23    2    1    2    0    0 -0.93935796475E+02 -0.14504496269E+03 -0.28868704942E+03  0.34947671604E+03  0.94508134523E+02 0.  0.
         24    2    1    2    0    0  0.68768161031E+02  0.58882538986E+02 -0.55075671565E+02  0.12370320204E+03  0.63819583426E+02 0.  0.
        -11    1    4    4    0    0  0.65115216186E+02  0.39466801125E+02 -0.13032281381E+02  0.77249337395E+02  0.00000000000E+00 0.  1.
         12    1    4    4    0    0  0.36529448453E+01  0.19415737860E+02 -0.42043390184E+02  0.46453864649E+02  0.00000000000E+00 0. -1.
        -13    1    3    3    0    0 -0.10354373485E+03 -0.79099915435E+02 -0.19334688737E+03  0.23315471366E+03  0.00000000000E+00 0.  1.
         13    1    3    3    0    0  0.96079383729E+01 -0.65945047258E+02 -0.95340162048E+02  0.11632200238E+03  0.00000000000E+00 0. -1.
         -2    1    1    2    0  502  0.25167635444E+02  0.86162423707E+02 -0.14750537959E+03  0.17267081439E+03  0.00000000000E+00 0.  1.
<scales pt_clust_5="13000.00000" pt_clust_6="13000.00000" pt_clust_7="13000.00000" pt_clust_8="13000.00000" pt_clust_9="89.76292"></scales>
<clustering>
<clus scale="   63.820">  5  6 -1 -1</clus>
<clus scale="   89.763">  1  9  2 -1</clus>
<clus scale="   94.508">  7  8 -1 -1</clus>
<clus scale="  147.483">  1  5  2 -1</clus>
<clus scale="   89.763">  1  5  2 -1</clus>
</clustering>
</event>
<event>
 9    2  0.9254368E-005  0.1276234E+03  0.7546771E-02  0.1233585E+00
          2   -1    0    0  502    0 -0.00000000000E+00  0.00000000000E+00  0.32392690115E+03  0.32392690115E+03  0.00000000000E+00 0. -1.
         21   -1    0    0  501  502  0.00000000000E+00 -0.00000000000E+00 -0.21670267722E+03  0.21670267722E+03  0.00000000000E+00 0.  1.
         23    2    1    2    0    0 -0.44254659020E+02  0.48870794141E+02 -0.21147638240E+02  0.11458309931E+03  0.91297506429E+02 0.  0.
         24    2    1    2    0    0  0.14599965101E+03 -0.32033345926E+02 -0.83959490639E+02  0.18999532687E+03  0.81896244230E+02 0.  0.
        -11    1    4    4    0    0  0.95339865202E+02 -0.59873757134E+02 -0.57661103953E+02  0.12648857497E+03  0.00000000000E+00 0.  1.
         12    1    4    4    0    0  0.50659785810E+02  0.27840411208E+02 -0.26298386686E+02  0.63506751900E+02  0.00000000000E+00 0. -1.
        -11    1    3    3    0    0 -0.36012254229E+02 -0.18220054545E+02 -0.23949002278E+02  0.46929815175E+02  0.00000000000E+00 0.  1.
         11    1    3    3    0    0 -0.82424047908E+01  0.67090848687E+02  0.28013640380E+01  0.67653284138E+02  0.00000000000E+00 0. -1.
          1    1    1    2  501    0 -0.10174499199E+03 -0.16837448215E+02  0.21233135281E+03  0.23605115217E+03  0.00000000000E+00 0. -1.
<scales pt_clust_5="13000.00000" pt_clust_6="13000.00000" pt_clust_7="13000.00000" pt_clust_8="13000.00000" pt_clust_9="103.12882"></scales>
<clustering>
<clus scale="   81.896">  5  6 -1 -1</clus>
<clus scale="   91.298">  7  8 -1 -1</clus>
<clus scale="  103.129">  2  9  1 -1</clus>
<clus scale="  121.076">  2  5  1 -1</clus>
<clus scale="  103.129">  2  5  1 -1</clus>
</clustering>
</event>
<event>
 9    2  0.9254368E-005  0.2255325E+03  0.7546771E-02  0.1130709E+00
          2   -1    0    0  502    0 -0.00000000000E+00  0.00000000000E+00  0.17593623783E+04  0.17593623783E+04  0.00000000000E+00 0. -1.
         21   -1    0    0  501  502  0.00000000000E+00 -0.00000000000E+00 -0.78956626736E+02  0.78956626736E+02  0.00000000000E+00 0.  1.
         24    2    1    2    0    0  0.33738400521E+02 -0.20517495031E+03  0.15203781038E+04  0.15365538245E+04  0.78822820691E+02 0.  0.
         23    2    1    2    0    0 -0.66262076716E+02  0.18362016480E+03  0.12429875857E+03  0.24886005969E+03  0.91510219067E+02 0.  0.
        -11    1    3    3    0    0 -0.85487358470E+01 -0.13742059694E+03  0.80001965218E+03  0.81178134077E+03  0.00000000000E+00 0.  1.
         12    1    3    3    0    0  0.42287136368E+02 -0.67754353378E+02  0.72035845166E+03  0.72477248374E+03  0.00000000000E+00 0. -1.
        -13    1    4    4    0    0  0.17776030039E+01  0.62039142268E+02  0.82814902396E+02  0.10349069091E+03  0.00000000000E+00 0. -1.
         13    1    4    4    0    0 -0.68039679720E+02  0.12158102254E+03  0.41483856177E+02  0.14536936878E+03  0.00000000000E+00 0.  1.
          1    1    1    2  501    0  0.32523676195E+02  0.21554785511E+02  0.35728889175E+02  0.52905120862E+02  0.00000000000E+00 0. -1.
<scales pt_clust_5="13000.00000" pt_clust_6="13000.00000" pt_clust_7="13000.00000" pt_clust_8="13000.00000" pt_clust_9="39.01792"></scales>
<clustering>
<clus scale="   39.018">  2  9  1 -1</clus>
<clus scale="   78.823">  5  6 -1 -1</clus>
<clus scale="   91.510">  7  8 -1 -1</clus>
<clus scale="  220.689">  1  5  2 -1</clus>
<clus scale="   39.018">  2  5  1 -1</clus>
</clustering>
</event>
<event>
 9    2  0.9254368E-005  0.9473282E+02  0.7546771E-02  0.1298404E+00
          2   -1    0    0  502    0 -0.00000000000E+00  0.00000000000E+00  0.47784142552E+03  0.47784142552E+03  0.00000000000E+00 0. -1.
         21   -1    0    0  501  502  0.00000000000E+00 -0.00000000000E+00 -0.33381293083E+02  0.33381293083E+02  0.00000000000E+00 0.  1.
         23    2    1    2    0    0 -0.57593790723E+01  0.27803581769E+02  0.34015018841E+03  0.35355745011E+03  0.92165667425E+02 0.  0.
         24    2    1    2    0    0  0.59975403391E+01 -0.76955675150E+01  0.10991052378E+03  0.13679051217E+03  0.80846327876E+02 0.  0.
        -13    1    4    4    0    0 -0.55585859667E+01 -0.41206901073E+02  0.36742871548E+02  0.55488243652E+02  0.00000000000E+00 0.  1.
         14    1    4    4    0    0  0.11556126306E+02  0.33511333558E+02  0.73167652234E+02  0.81302268514E+02  0.00000000000E+00 0. -1.
        -11    1    3    3    0    0  0.29793624837E+02  0.43160751966E+02  0.24998013181E+03  0.25542235002E+03  0.00000000000E+00 0. -1.
         11    1    3    3    0    0 -0.35553003909E+02 -0.15357170197E+02  0.90170056596E+02  0.98135100091E+02  0.00000000000E+00 0.  1.
          1    1    1    2  501    0 -0.23816126680E+00 -0.20108014254E+02 -0.56005797502E+01  0.20874756324E+02  0.00000000000E+00 0. -1.
<scales pt_clust_5="13000.00000" pt_clust_6="13000.00000" pt_clust_7="13000.00000" pt_clust_8="13000.00000" pt_clust_9="20.10942"></scales>
<clustering>
<clus scale="   20.109">  2  9  1 -1</clus>
<clus scale="   80.846">  5  6 -1 -1</clus>
<clus scale="   83.761">  2  5  1 -1</clus>
<clus scale="   92.166">  7  8 -1 -1</clus>
<clus scale="   20.109">  2  5  1 -1</clus>
</clustering>
</event>
<event>
 9    2  0.1272013E-004  0.8786068E+02  0.7546771E-02  0.1308706E+00
         21   -1    0    0  501  502  0.00000000000E+00  0.00000000000E+00  0.26768145970E+03  0.26768145970E+03  0.00000000000E+00 0. -1.
         -1   -1    0    0    0  501 -0.00000000000E+00 -0.00000000000E+00 -0.14783656799E+03  0.14783656799E+03  0.00000000000E+00 0.  1.
         24    2    1    2    0    0  0.31875382001E+02 -0.60451497753E+01 -0.11898350836E+03  0.14770977699E+03  0.81292798836E+02 0.  0.
         23    2    1    2    0    0 -0.12124252971E+02 -0.22149121657E+02  0.18271662625E+03  0.20197850667E+03  0.82294413833E+02 0.  0.
        -13    1    3    3    0    0  0.26280470411E+02  0.83565685015E+01 -0.12723833518E+03  0.13019250862E+03  0.00000000000E+00 0.  1.
         14    1    3    3    0    0  0.55949115898E+01 -0.14401718277E+02  0.82548268223E+01  0.17517268363E+02  0.00000000000E+00 0. -1.
        -11    1    4    4    0    0 -0.74768316796E+01  0.21998843678E+02  0.13151020253E+02  0.26698342061E+02  0.00000000000E+00 0.  1.
         11    1    4    4    0    0 -0.46474212915E+01 -0.44147965335E+02  0.16956560600E+03  0.17528016461E+03  0.00000000000E+00 0. -1.
         -2    1    1    2    0  502 -0.19751129030E+02  0.28194271433E+02  0.56111773812E+02  0.65829744037E+02  0.00000000000E+00 0.  1.
<scales pt_clust_5="13000.00000" pt_clust_6="13000.00000" pt_clust_7="13000.00000" pt_clust_8="13000.00000" pt_clust_9="34.42418"></scales>
<clustering>
<clus scale="   34.424">  1  9  2 -1</clus>
<clus scale="   81.293">  5  6 -1 -1</clus>
<clus scale="   82.294">  7  8 -1 -1</clus>
<clus scale="   86.923">  2  5  1 -1</clus>
<clus scale="   34.424">  1  5  2 -1</clus>
</clustering>
</event>
<event>
 9    2  0.9254368E-005  0.1166468E+03  0.7546771E-02  0.1252829E+00
          2   -1    0    0  502    0 -0.00000000000E+00  0.00000000000E+00  0.93935093641E+03  0.93935093641E+03  0.00000000000E+00 0. -1.
         21   -1    0    0  501  502  0.00000000000E+00 -0.00000000000E+00 -0.92513562396E+02  0.92513562396E+02  0.00000000000E+00 0. -1.
         24    2    1    2    0    0  0.33906617910E+02 -0.60881376842E+02  0.79406425143E+03  0.80113431274E+03  0.80137075471E+02 0.  0.
         23    2    1    2    0    0 -0.54198870994E+02  0.70220936724E+02  0.11041038575E+03  0.16891548701E+03  0.92051566521E+02 0.  0.
        -11    1    3    3    0    0 -0.21668292008E+02 -0.19324275849E+02  0.11805838272E+03  0.12157600194E+03  0.00000000000E+00 0.  1.
         12    1    3    3    0    0  0.55574909918E+02 -0.41557100993E+02  0.67600586871E+03  0.67955831080E+03  0.00000000000E+00 0. -1.
        -11    1    4    4    0    0 -0.91347259563E+01 -0.22376164813E+02  0.14472239087E+02  0.28170581716E+02  0.00000000000E+00 0. -1.
         11    1    4    4    0    0 -0.45064145038E+02  0.92597101537E+02  0.95938146664E+02  0.14074490529E+03  0.00000000000E+00 0.  1.
          1    1    1    2  501    0  0.20292253084E+02 -0.93395598821E+01 -0.57637263167E+02  0.61814699056E+02  0.00000000000E+00 0. -1.
<scales pt_clust_5="13000.00000" pt_clust_6="13000.00000" pt_clust_7="13000.00000" pt_clust_8="13000.00000" pt_clust_9="22.33837"></scales>
<clustering>
<clus scale="   22.338">  2  9  1 -1</clus>
<clus scale="   80.137">  5  6 -1 -1</clus>
<clus scale="   92.052">  7  8 -1 -1</clus>
<clus scale="  107.494">  1  5  2 -1</clus>
<clus scale="   22.338">  2  5  1 -1</clus>
</clustering>
</event>
<event>
 9    2  0.9254368E-005  0.3349230E+03  0.7546771E-02  0.1068979E+00
          2   -1    0    0  502    0 -0.00000000000E+00  0.00000000000E+00  0.21617770620E+04  0.21617770620E+04  0.00000000000E+00 0. -1.
         21   -1    0    0  501  502  0.00000000000E+00 -0.00000000000E+00 -0.65318891927E+02  0.65318891927E+02  0.00000000000E+00 0. -1.
         24    2    1    2    0    0 -0.15445572247E+03 -0.96362469719E+02  0.12199269623E+04  0.12361981613E+04  0.82594219283E+02 0.  0.
         23    2    1    2    0    0 -0.17707642254E-01 -0.96093020040E+02  0.62365708837E+03  0.63756158382E+03  0.91119374916E+02 0.  0.
        -11    1    3    3    0    0 -0.54541565482E+02 -0.82680639763E+02  0.59721408539E+03  0.60537222793E+03  0.00000000000E+00 0.  1.
         12    1    3    3    0    0 -0.99914156985E+02 -0.13681829956E+02  0.62271287686E+03  0.63082593339E+03  0.00000000000E+00 0. -1.
        -13    1    4    4    0    0 -0.38481215649E+02 -0.26459582648E+02  0.14487823071E+03  0.15221897124E+03  0.00000000000E+00 0.  1.
         13    1    4    4    0    0  0.38463508007E+02 -0.69633437392E+02  0.47877885766E+03  0.48534261259E+03  0.00000000000E+00 0. -1.
          1    1    1    2  501    0  0.15447343011E+03  0.19245548976E+03  0.25287411948E+03  0.35333620880E+03  0.00000000000E+00 0. -1.
<scales pt_clust_5="13000.00000" pt_clust_6="13000.00000" pt_clust_7="13000.00000" pt_clust_8="13000.00000" pt_clust_9="246.78160"></scales>
<clustering>
<clus scale="   82.594">  5  6 -1 -1</clus>
<clus scale="   91.119">  7  8 -1 -1</clus>
<clus scale="  131.126">  5  7 -1 -1</clus>
<clus scale="  246.782">  2  9  1 -1</clus>
<clus scale="  246.782">  2  5  1 -1</clus>
</clustering>
</event>
<event>
 9    2  0.9254368E-005  0.1112294E+03  0.7546771E-02  0.1262463E+00
         21   -1    0    0  501  502  0.00000000000E+00  0.00000000000E+00  0.24843120079E+03  0.24843120079E+03  0.00000000000E+00 0. -1.
          4   -1    0    0  502    0 -0.00000000000E+00 -0.00000000000E+00 -0.11555478597E+03  0.11555478597E+03  0.00000000000E+00 0. -1.
         24    2    1    2    0    0 -0.28642631168E+02  0.34431167422E+02  0.30242166971E+02  0.96838049351E+02  0.80356166712E+02 0.  0.
         23    2    1    2    0    0 -0.35872447148E+02 -0.99377287807E+02  0.14935303205E+02  0.14037531112E+03  0.91211221319E+02 0.  0.
        -11    1    3    3    0    0 -0.39122324028E+02  0.40011656287E+01 -0.14334354883E+02  0.41857368451E+02  0.00000000000E+00 0.  1.
         12    1    3    3    0    0  0.10479692860E+02  0.30430001793E+02  0.44576521854E+02  0.54980680900E+02  0.00000000000E+00 0. -1.
        -11    1    4    4    0    0  0.24050445200E+02 -0.65103936840E+02 -0.14738026661E+01  0.69419871800E+02  0.00000000000E+00 0.  1.
         11    1    4    4    0    0 -0.59922892348E+02 -0.34273350967E+02  0.16409105871E+02  0.70955439322E+02  0.00000000000E+00 0. -1.
          3    1    1    2  501    0  0.64515078315E+02  0.64946120385E+02  0.87698944641E+02  0.12677262628E+03  0.00000000000E+00 0. -1.
<scales pt_clust_5="13000.00000" pt_clust_6="13000.00000" pt_clust_7="13000.00000" pt_clust_8="13000.00000" pt_clust_9="91.54340"></scales>
<clustering>
<clus scale="   80.356">  5  6 -1 -1</clus>
<clus scale="   91.211">  7  8 -1 -1</clus>
<clus scale="   91.543">  1  9  2 -1</clus>
<clus scale="  102.516">  2  5  1 -1</clus>
<clus scale="   91.543">  1  5  2 -1</clus>
</clustering>
</event>
<event>
 9    2  0.9254368E-005  0.1036234E+03  0.7546771E-02  0.1277292E+00
          2   -1    0    0  502    0 -0.00000000000E+00  0.00000000000E+00  0.41391118400E+02  0.41391118400E+02  0.00000000000E+00 0. -1.
         21   -1    0    0  501  502  0.00000000000E+00 -0.00000000000E+00 -0.85494137380E+03  0.85494137380E+03  0.00000000000E+00 0. -1.
         24    2    1    2    0    0 -0.47616887005E+02  0.36693547726E+02 -0.75494144713E+02  0.12636338982E+03  0.81575462175E+02 0.  0.
         23    2    1    2    0    0  0.41795108387E+02  0.63280030103E+02 -0.37303999566E+03  0.39146497611E+03  0.91295103181E+02 0.  0.
        -11    1    3    3    0    0 -0.31689967379E+02 -0.44513193940E+01 -0.75761387401E+02  0.82242665921E+02  0.00000000000E+00 0.  1.
         12    1    3    3    0    0 -0.15926919626E+02  0.41144867120E+02  0.26724268834E+00  0.44120723903E+02  0.00000000000E+00 0. -1.
        -11    1    4    4    0    0  0.18347086966E+01  0.58593642630E+02 -0.31759448359E+03  0.32295949765E+03  0.00000000000E+00 0. -1.
         11    1    4    4    0    0  0.39960399691E+02  0.46863874726E+01 -0.55445512065E+02  0.68505478461E+02  0.00000000000E+00 0.  1.
          1    1    1    2  501    0  0.58217786179E+01 -0.99973577828E+02 -0.36501611503E+03  0.37850412626E+03  0.00000000000E+00 0. -1.
<scales pt_clust_5="13000.00000" pt_clust_6="13000.00000" pt_clust_7="13000.00000" pt_clust_8="13000.00000" pt_clust_9="100.14294"></scales>
<clustering>
<clus scale="   81.575">  5  6 -1 -1</clus>
<clus scale="   91.295">  7  8 -1 -1</clus>
<clus scale="  100.143">  2  9  1 -1</clus>
<clus scale="   95.171">  1  5  2 -1</clus>
<clus scale="  100.143">  2  5  1 -1</clus>
</clustering>
</event>
<event>
 9    2  0.9254368E-005  0.1389751E+03  0.7546771E-02  0.1217217E+00
         21   -1    0    0  501  502  0.00000000000E+00  0.00000000000E+00  0.29048571475E+03  0.29048571475E+03  0.00000000000E+00 0. -1.
          2   -1    0    0  502    0 -0.00000000000E+00 -0.00000000000E+00 -0.61986596988E+03  0.61986596988E+03  0.00000000000E+00 0. -1.
         24    2    1    2    0    0 -0.50458179146E+02  0.93070746245E+02 -0.58980459497E+03  0.60448043719E+03  0.79491804883E+02 0.  0.
         23    2    1    2    0    0  0.58845888433E+02 -0.65670665367E+02  0.17673908062E+03  0.21741594399E+03  0.90870871065E+02 0.  0.
        -13    1    3    3    0    0  0.16275985322E+02  0.22905412441E+02 -0.64945552445E+02  0.70763623422E+02  0.00000000000E+00 0.  1.
         14    1    3    3    0    0 -0.66734164468E+02  0.70165333805E+02 -0.52485904252E+03  0.53371681376E+03  0.00000000000E+00 0. -1.
        -11    1    4    4    0    0  0.12341468244E+02  0.17697210211E+02  0.70144531434E+01  0.22687124996E+02  0.00000000000E+00 0.  1.
         11    1    4    4    0    0  0.46504420188E+02 -0.83367875578E+02  0.16972462748E+03  0.19472881900E+03  0.00000000000E+00 0. -1.
          1    1    1    2  501    0 -0.83877092866E+01 -0.27400080878E+02  0.83685259214E+02  0.88455303453E+02  0.00000000000E+00 0. -1.
<scales pt_clust_5="13000.00000" pt_clust_6="13000.00000" pt_clust_7="13000.00000" pt_clust_8="13000.00000" pt_clust_9="28.65516"></scales>
<clustering>
<clus scale="   28.655">  1  9  2 -1</clus>
<clus scale="   79.492">  5  6 -1 -1</clus>
<clus scale="   90.871">  7  8 -1 -1</clus>
<clus scale="  131.816">  2  5  1 -1</clus>
<clus scale="   28.655">  1  5  2 -1</clus>
</clustering>
</event>
<event>
 9    2  0.9254368E-005  0.1017946E+03  0.7546771E-02  0.1281417E+00
          2   -1    0    0  502    0 -0.00000000000E+00  0.00000000000E+00  0.66254209359E+03  0.66254209359E+03  0.00000000000E+00 0. -1.
         21   -1    0    0  501  502  0.00000000000E+00 -0.00000000000E+00 -0.27994025930E+02  0.27994025930E+02  0.00000000000E+00 0. -1.
         24    2    1    2    0    0 -0.33948359766E+02  0.40121470250E+02  0.31597287063E+03  0.33030139107E+03  0.80609741731E+02 0.  0.
         23    2    1    2    0    0  0.14463497538E+00 -0.34785836729E+02  0.10184179864E+03  0.14081611763E+03  0.90814930927E+02 0.  0.
        -13    1    3    3    0    0 -0.19446738630E+02  0.25324625544E+02  0.30756996046E+02  0.44334017504E+02  0.00000000000E+00 0.  1.
         14    1    3    3    0    0 -0.14501621135E+02  0.14796844707E+02  0.28521587458E+03  0.28596737356E+03  0.00000000000E+00 0. -1.
        -13    1    4    4    0    0 -0.41912638304E+02 -0.25307155720E+01  0.60276623847E+02  0.73459819992E+02  0.00000000000E+00 0.  1.
         13    1    4    4    0    0  0.42057273279E+02 -0.32255121157E+02  0.41565174793E+02  0.67356297643E+02  0.00000000000E+00 0. -1.
          1    1    1    2  501    0  0.33803724790E+02 -0.53356335207E+01  0.21673339839E+03  0.21941861082E+03  0.00000000000E+00 0. -1.
<scales pt_clust_5="13000.00000" pt_clust_6="13000.00000" pt_clust_7="13000.00000" pt_clust_8="13000.00000" pt_clust_9="34.22224"></scales>
<clustering>
<clus scale="   34.222">  2  9  1 -1</clus>
<clus scale="   80.610">  5  6 -1 -1</clus>
<clus scale="   90.815">  7  8 -1 -1</clus>
<clus scale="   92.805">  1  5  2 -1</clus>
<clus scale="   34.222">  2  5  1 -1</clus>
</clustering>
</event>
<event>
 9    2  0.9254368E-005  0.9170920E+02  0.7546771E-02  0.1305163E+00
          2   -1    0    0  502    0 -0.00000000000E+00  0.00000000000E+00  0.19829867657E+03  0.19829867657E+03  0.00000000000E+00 0. -1.
         21   -1    0    0  501  502  0.00000000000E+00 -0.00000000000E+00 -0.68690731477E+02  0.68690731477E+02  0.00000000000E+00 0.  1.
         24    2    1    2    0    0 -0.85740201008E+01  0.19550073332E+02  0.12183002478E+03  0.14716039009E+03  0.79736480266E+02 0.  0.
         23    2    1    2    0    0 -0.30407849938E+01 -0.88084896719E+00 -0.11098259643E+02  0.90850512034E+02  0.90114493293E+02 0.  0.
        -13    1    3    3    0    0 -0.62555576947E+01 -0.21448656222E+02  0.44185458428E+01  0.22774995130E+02  0.00000000000E+00 0.  1.
         14    1    3    3    0    0 -0.23184624061E+01  0.40998729554E+02  0.11741147893E+03  0.12438539496E+03  0.00000000000E+00 0. -1.
        -11    1    4    4    0    0 -0.14972429400E+02  0.40754588404E+02  0.68734428189E+01  0.43958552460E+02  0.00000000000E+00 0. -1.
         11    1    4    4    0    0  0.11931644406E+02 -0.41635437372E+02 -0.17971702462E+02  0.46891959575E+02  0.00000000000E+00 0.  1.
          1    1    1    2  501    0  0.11614805095E+02 -0.18669224365E+02  0.18876179958E+02  0.28978505924E+02  0.00000000000E+00 0. -1.
<scales pt_clust_5="13000.00000" pt_clust_6="13000.00000" pt_clust_7="13000.00000" pt_clust_8="13000.00000" pt_clust_9="21.98736"></scales>
<clustering>
<clus scale="   21.987">  2  9  1 -1</clus>
<clus scale="   79.736">  5  6 -1 -1</clus>
<clus scale="   81.534">  1  5  2 -1</clus>
<clus scale="   90.114">  7  8 -1 -1</clus>
<clus scale="   21.987">  2  5  1 -1</clus>
</clustering>
</event>
<event>
 9    2  0.9254368E-005  0.2085723E+03  0.7546771E-02  0.1143763E+00
          2   -1    0    0  502    0 -0.00000000000E+00  0.00000000000E+00  0.25959852773E+03  0.25959852773E+03  0.00000000000E+00 0. -1.
         21   -1    0    0  501  502  0.00000000000E+00 -0.00000000000E+00 -0.29808007081E+03  0.29808007081E+03  0.00000000000E+00 0. -1.
         23    2    1    2    0    0  0.18594756948E+02  0.23106629435E+03  0.85014174047E+02  0.26335358215E+03  0.91598592074E+02 0.  0.
         24    2    1    2    0    0 -0.29054126000E+00 -0.13915502831E+03 -0.31603736480E+02  0.16307387832E+03  0.78930902139E+02 0.  0.
        -13    1    4    4    0    0  0.98181894545E+01 -0.18943636172E+02 -0.36566293190E+02  0.42336178302E+02  0.00000000000E+00 0.  1.
         14    1    4    4    0    0 -0.10108730714E+02 -0.12021139214E+03  0.49625567095E+01  0.12073770002E+03  0.00000000000E+00 0. -1.
        -13    1    3    3    0    0  0.38453214146E+02  0.97955905563E+02  0.73332410100E+02  0.12826399138E+03  0.00000000000E+00 0. -1.
         13    1    3    3    0    0 -0.19858457198E+02  0.13311038879E+03  0.11681763947E+02  0.13508959077E+03  0.00000000000E+00 0.  1.
          1    1    1    2  501    0 -0.18304215688E+02 -0.91911266043E+02 -0.91891980650E+02  0.13125113807E+03  0.00000000000E+00 0. -1.
<scales pt_clust_5="13000.00000" pt_clust_6="13000.00000" pt_clust_7="13000.00000" pt_clust_8="13000.00000" pt_clust_9="93.71619"></scales>
<clustering>
<clus scale="   78.931">  5  6 -1 -1</clus>
<clus scale="   91.599">  7  8 -1 -1</clus>
<clus scale="   93.716">  2  9  1 -1</clus>
<clus scale="  203.328">  2  5  1 -1</clus>
<clus scale="   93.716">  2  5  1 -1</clus>
</clustering>
</event>
<event>
 9    2  0.9254368E-005  0.1231667E+03  0.7546771E-02  0.1241178E+00
          2   -1    0    0  502    0 -0.00000000000E+00  0.00000000000E+00  0.56611190085E+03  0.56611190085E+03  0.00000000000E+00 0. -1.
         21   -1    0    0  501  502  0.00000000000E+00 -0.00000000000E+00 -0.58041393400E+02  0.58041393400E+02  0.00000000000E+00 0. -1.
         24    2    1    2    0    0  0.25418613413E+02 -0.98416592783E+02  0.40645614536E+03  0.42653981119E+03  0.79985503622E+02 0.  0.
         23    2    1    2    0    0 -0.27089875113E+02  0.32189879281E+02  0.79232069254E+02  0.12768682341E+03  0.90863383230E+02 0.  0.
        -13    1    3    3    0    0 -0.50835348179E+01 -0.87234781443E+02  0.21062264657E+03  0.22802992933E+03  0.00000000000E+00 0.  1.
         14    1    3    3    0    0  0.30502148231E+02 -0.11181811340E+02  0.19583349879E+03  0.19850988187E+03  0.00000000000E+00 0. -1.
        -11    1    4    4    0    0  0.17813991820E+01  0.55008589061E+02  0.71249126244E+02  0.90030862730E+02  0.00000000000E+00 0.  1.
         11    1    4    4    0    0 -0.28871274295E+02 -0.22818709780E+02  0.79829430103E+01  0.37655960677E+02  0.00000000000E+00 0. -1.
          1    1    1    2  501    0  0.16712616996E+01  0.66226713502E+02  0.22382292836E+02  0.69926659648E+02  0.00000000000E+00 0. -1.
<scales pt_clust_5="13000.00000" pt_clust_6="13000.00000" pt_clust_7="13000.00000" pt_clust_8="13000.00000" pt_clust_9="66.24780"></scales>
<clustering>
<clus scale="   66.248">  2  9  1 -1</clus>
<clus scale="   79.986">  5  6 -1 -1</clus>
<clus scale="   90.863">  7  8 -1 -1</clus>
<clus scale="  115.376">  1  5  2 -1</clus>
<clus scale="   66.248">  2  5  1 -1</clus>
</clustering>
</event>
<event>
 9    2  0.9254368E-005  0.1324753E+03  0.7546771E-02  0.1245323E+00
         21   -1    0    0  501  502  0.00000000000E+00  0.00000000000E+00  0.19613930367E+03  0.19613930367E+03  0.00000000000E+00 0. -1.
          4   -1    0    0  502    0 -0.00000000000E+00 -0.00000000000E+00 -0.15324131838E+03  0.15324131838E+03  0.00000000000E+00 0. -1.
         24    2    1    2    0    0  0.25514319256E+02 -0.20590917017E+02  0.52504057187E+02  0.10014178223E+03  0.78719338011E+02 0.  0.
         23    2    1    2    0    0 -0.10360680470E+03  0.62918977433E+02 -0.38198089230E+02  0.15592429412E+03  0.90333403433E+02 0.  0.
        -11    1    3    3    0    0  0.27549984366E+02 -0.15716675962E+02 -0.13106429564E+02  0.34319004032E+02  0.00000000000E+00 0.  1.
         12    1    3    3    0    0 -0.20356651099E+01 -0.48742410548E+01  0.65610486751E+02  0.65822778200E+02  0.00000000000E+00 0. -1.
        -11    1    4    4    0    0  0.72211377347E+01  0.30285430463E+02  0.69203245757E+01  0.31894247455E+02  0.00000000000E+00 0.  1.
         11    1    4    4    0    0 -0.11082794243E+03  0.32633546970E+02 -0.45118413806E+02  0.12403004667E+03  0.00000000000E+00 0. -1.
          3    1    1    2  501    0  0.78092485444E+02 -0.42328060416E+02  0.28592017334E+02  0.93314545686E+02  0.00000000000E+00 0. -1.
<scales pt_clust_5="13000.00000" pt_clust_6="13000.00000" pt_clust_7="13000.00000" pt_clust_8="13000.00000" pt_clust_9="96.89987"></scales>
<clustering>
<clus scale="   78.719">  5  6 -1 -1</clus>
<clus scale="   85.274">  2  5  1 -1</clus>
<clus scale="   90.333">  7  8 -1 -1</clus>
<clus scale="   96.900">  1  9  2 -1</clus>
<clus scale="   96.900">  1  5  2 -1</clus>
</clustering>
</event>
<event>
 9    2  0.9254368E-005  0.1015112E+03  0.7546771E-02  0.1281783E+00
         21   -1    0    0  501  502  0.00000000000E+00  0.00000000000E+00  0.63316232666E+02  0.63316232666E+02  0.00000000000E+00 0. -1.
         -1   -1    0    0    0  501 -0.00000000000E+00 -0.00000000000E+00 -0.31669074775E+03  0.31669074775E+03  0.00000000000E+00 0.  1.
         24    2    1    2    0    0  0.64010615087E+01  0.47949098914E+02 -0.20686361503E+03  0.22717094065E+03  0.80461117176E+02 0.  0.
         23    2    1    2    0    0 -0.36033871805E+02 -0.33853984601E+02 -0.57950370573E+02  0.11808496527E+03  0.90229049545E+02 0.  0.
        -11    1    3    3    0    0 -0.23797929214E+02  0.57355555889E+02 -0.14314345962E+03  0.15603221225E+03  0.00000000000E+00 0.  1.
         12    1    3    3    0    0  0.30198990723E+02 -0.94064569744E+01 -0.63720155406E+02  0.71138728401E+02  0.00000000000E+00 0. -1.
        -11    1    4    4    0    0 -0.26092084446E+02 -0.58847354966E+02 -0.63718732466E+02  0.90575299748E+02  0.00000000000E+00 0.  1.
         11    1    4    4    0    0 -0.99417873590E+01  0.24993370365E+02  0.57683618928E+01  0.27509665519E+02  0.00000000000E+00 0. -1.
         -2    1    1    2    0  502  0.29632810297E+02 -0.14095114313E+02  0.11439470514E+02  0.34751074504E+02  0.00000000000E+00 0.  1.
<scales pt_clust_5="13000.00000" pt_clust_6="13000.00000" pt_clust_7="13000.00000" pt_clust_8="13000.00000" pt_clust_9="32.81426"></scales>
<clustering>
<clus scale="   32.814">  1  9  2 -1</clus>
<clus scale="   80.461">  5  6 -1 -1</clus>
<clus scale="   90.229">  7  8 -1 -1</clus>
<clus scale="   92.937">  2  5  1 -1</clus>
<clus scale="   32.814">  1  5  2 -1</clus>
</clustering>
</event>
<event>
 9    2  0.9254368E-005  0.9634923E+02  0.7546771E-02  0.1296739E+00
         21   -1    0    0  501  502  0.00000000000E+00  0.00000000000E+00  0.21263780678E+03  0.21263780678E+03  0.00000000000E+00 0. -1.
         -3   -1    0    0    0  501 -0.00000000000E+00 -0.00000000000E+00 -0.97331743634E+02  0.97331743634E+02  0.00000000000E+00 0.  1.
         23    2    1    2    0    0 -0.32064155518E+02  0.15656037546E+02 -0.85272417389E+01  0.99731160623E+02  0.92738174269E+02 0.  0.
         24    2    1    2    0    0  0.10421877448E+02  0.52258499637E+02  0.93355176427E+02  0.13271620668E+03  0.77838526678E+02 0.  0.
        -11    1    4    4    0    0 -0.26387857272E+02  0.29395330769E+02  0.13290972522E+02  0.41677984992E+02  0.00000000000E+00 0.  1.
         12    1    4    4    0    0  0.36809734720E+02  0.22863168868E+02  0.80064203905E+02  0.91038221686E+02  0.00000000000E+00 0. -1.
        -13    1    3    3    0    0 -0.58088053597E+02  0.34016737421E+02 -0.87478075657E+01  0.67881400492E+02  0.00000000000E+00 0. -1.
         13    1    3    3    0    0  0.26023898079E+02 -0.18360699875E+02  0.22056582681E+00  0.31849760131E+02  0.00000000000E+00 0.  1.
         -4    1    1    2    0  502  0.21642278069E+02 -0.67914537183E+02  0.30478128462E+02  0.77522183117E+02  0.00000000000E+00 0.  1.
<scales pt_clust_5="13000.00000" pt_clust_6="13000.00000" pt_clust_7="13000.00000" pt_clust_8="13000.00000" pt_clust_9="71.27954"></scales>
<clustering>
<clus scale="   71.280">  1  9  2 -1</clus>
<clus scale="   77.839">  5  6 -1 -1</clus>
<clus scale="   82.107">  1  5  2 -1</clus>
<clus scale="   92.738">  7  8 -1 -1</clus>
<clus scale="   71.280">  1  5  2 -1</clus>
</clustering>
</event>
<event>
 9    2  0.9254368E-005  0.2563986E+03  0.7546771E-02  0.1110051E+00
         21   -1    0    0  501  502  0.00000000000E+00  0.00000000000E+00  0.53668036132E+02  0.53668036132E+02  0.00000000000E+00 0.  1.
          2   -1    0    0  502    0 -0.00000000000E+00 -0.00000000000E+00 -0.13988570167E+04  0.13988570167E+04  0.00000000000E+00 0. -1.
         24    2    1    2    0    0 -0.21976768046E+03  0.10512961194E+03 -0.77509008445E+03  0.81637972772E+03  0.79756831300E+02 0.  0.
         23    2    1    2    0    0  0.19765901555E+03 -0.12328746453E+03 -0.53419965574E+03  0.59024046551E+03  0.93518177871E+02 0.  0.
        -13    1    3    3    0    0 -0.42972617991E+02  0.14858431131E+02 -0.66859744704E+02  0.80855700693E+02  0.00000000000E+00 0.  1.
         14    1    3    3    0    0 -0.17679506247E+03  0.90271180809E+02 -0.70823033974E+03  0.73552402702E+03  0.00000000000E+00 0. -1.
        -11    1    4    4    0    0  0.14062715586E+03 -0.12896562552E+03 -0.44540557192E+03  0.48455572747E+03  0.00000000000E+00 0.  1.
         11    1    4    4    0    0  0.57031859692E+02  0.56781609876E+01 -0.88794083821E+02  0.10568473804E+03  0.00000000000E+00 0. -1.
          1    1    1    2  501    0  0.22108664911E+02  0.18157852589E+02 -0.35899240351E+02  0.45904859575E+02  0.00000000000E+00 0. -1.
<scales pt_clust_5="13000.00000" pt_clust_6="13000.00000" pt_clust_7="13000.00000" pt_clust_8="13000.00000" pt_clust_9="28.60945"></scales>
<clustering>
<clus scale="   28.609">  1  9  2 -1</clus>
<clus scale="   79.757">  5  6 -1 -1</clus>
<clus scale="   93.518">  7  8 -1 -1</clus>
<clus scale="  251.706">  2  5  1 -1</clus>
<clus scale="   28.609">  1  5  2 -1</clus>
</clustering>
</event>
<event>
 9    2  0.9254368E-005  0.1251524E+03  0.7546771E-02  0.1256105E+00
         -3   -1    0    0    0  501 -0.00000000000E+00  0.00000000000E+00  0.37978354780E+03  0.37978354780E+03  0.00000000000E+00 0.  1.
         21   -1    0    0  501  502  0.00000000000E+00 -0.00000000000E+00 -0.94085967014E+02  0.94085967014E+02  0.00000000000E+00 0.  1.
         24    2    1    2    0    0  0.16762752348E+01  0.13358888132E+02  0.22222238535E+03  0.23671633077E+03  0.80439809237E+02 0.  0.
         23    2    1    2    0    0 -0.14069394292E+02 -0.95442898774E+02  0.76756912594E+02  0.15308310487E+03  0.90749758032E+02 0.  0.
        -13    1    3    3    0    0  0.38181371697E+02 -0.58506373145E+01  0.13150395754E+03  0.13705961458E+03  0.00000000000E+00 0.  1.
         14    1    3    3    0    0 -0.36505096463E+02  0.19209525447E+02  0.90718427813E+02  0.99656716183E+02  0.00000000000E+00 0. -1.
        -11    1    4    4    0    0 -0.23202444560E+02 -0.47043668673E+02 -0.99252180071E+01  0.53385111673E+02  0.00000000000E+00 0. -1.
         11    1    4    4    0    0  0.91330502680E+01 -0.48399230100E+02  0.86682130601E+02  0.99697993195E+02  0.00000000000E+00 0.  1.
         -4    1    1    2    0  502  0.12393119057E+02  0.82084010641E+02 -0.13281717158E+02  0.84070079181E+02  0.00000000000E+00 0.  1.
<scales pt_clust_5="13000.00000" pt_clust_6="13000.00000" pt_clust_7="13000.00000" pt_clust_8="13000.00000" pt_clust_9="86.18360"></scales>
<clustering>
<clus scale="   80.440">  5  6 -1 -1</clus>
<clus scale="   81.559">  1  5  2 -1</clus>
<clus scale="   86.184">  2  9  1 -1</clus>
<clus scale="   90.750">  7  8 -1 -1</clus>
<clus scale="   86.184">  2  5  1 -1</clus>
</clustering>
</event>
<event>
 9    2  0.9254368E-005  0.5653618E+03  0.7546771E-02  0.9979995E-01
          2   -1    0    0  502    0 -0.00000000000E+00  0.00000000000E+00  0.10961033505E+04  0.10961033505E+04  0.00000000000E+00 0. -1.
         21   -1    0    0  501  502  0.00000000000E+00 -0.00000000000E+00 -0.27516935365E+03  0.27516935365E+03  0.00000000000E+00 0. -1.
         24    2    1    2    0    0 -0.47588431122E+02 -0.20901944392E+03  0.27162480719E+03  0.35547370294E+03  0.81410876923E+02 0.  0.
         23    2    1    2    0    0 -0.17059767100E+03 -0.26660951975E+03  0.24546675160E+03  0.41069709787E+03  0.90741273319E+02 0.  0.
        -11    1    3    3    0    0  0.16416176031E+02 -0.26817043825E+02  0.16526380887E+02  0.35521344854E+02  0.00000000000E+00 0.  1.
         12    1    3    3    0    0 -0.64004607153E+02 -0.18220240010E+03  0.25509842631E+03  0.31995235808E+03  0.00000000000E+00 0. -1.
        -13    1    4    4    0    0 -0.34477055354E+02 -0.67395334683E+02  0.11135869064E+03  0.13465346807E+03  0.00000000000E+00 0.  1.
         13    1    4    4    0    0 -0.13612061565E+03 -0.19921418507E+03  0.13410806096E+03  0.27604362980E+03  0.00000000000E+00 0. -1.
          1    1    1    2  501    0  0.21818610213E+03  0.47562896367E+03  0.30384243802E+03  0.60510190331E+03  0.00000000000E+00 0. -1.
<scales pt_clust_5="13000.00000" pt_clust_6="13000.00000" pt_clust_7="13000.00000" pt_clust_8="13000.00000" pt_clust_9="523.28586"></scales>
<clustering>
<clus scale="   81.411">  5  6 -1 -1</clus>
<clus scale="   90.741">  7  8 -1 -1</clus>
<clus scale="  137.671">  5  7 -1 -1</clus>
<clus scale="  523.286">  2  9  1 -1</clus>
<clus scale="  523.286">  2  5  1 -1</clus>
</clustering>
</event>
<event>
 9    2  0.9254368E-005  0.1013571E+03  0.7546771E-02  0.1282083E+00
         21   -1    0    0  501  502  0.00000000000E+00  0.00000000000E+00  0.34093766703E+03  0.34093766703E+03  0.00000000000E+00 0.  1.
         -1   -1    0    0    0  501 -0.00000000000E+00 -0.00000000000E+00 -0.22354025480E+03  0.22354025480E+03  0.00000000000E+00 0.  1.
         23    2    1    2    0    0 -0.45585721756E+02  0.40499715846E+01 -0.18878275408E+03  0.21413383486E+03  0.90110547100E+02 0.  0.
         24    2    1    2    0    0  0.48392515165E+02 -0.37478637228E+02  0.10255319587E+03  0.14397234262E+03  0.80401453239E+02 0.  0.
        -13    1    4    4    0    0  0.50955158805E+02 -0.21906282305E+02  0.18527163738E+02  0.58477082772E+02  0.00000000000E+00 0.  1.
         14    1    4    4    0    0 -0.25626436399E+01 -0.15572354924E+02  0.84026032131E+02  0.85495259845E+02  0.00000000000E+00 0. -1.
        -13    1    3    3    0    0 -0.39769655110E+02 -0.20093258758E+02 -0.18338448767E+03  0.18871999055E+03  0.00000000000E+00 0.  1.
         13    1    3    3    0    0 -0.58160666459E+01  0.24143230343E+02 -0.53982664070E+01  0.25413844314E+02  0.00000000000E+00 0. -1.
         -2    1    1    2    0  502 -0.28067934097E+01  0.33428665644E+02  0.20362697044E+03  0.20637174435E+03  0.00000000000E+00 0.  1.
<scales pt_clust_5="13000.00000" pt_clust_6="13000.00000" pt_clust_7="13000.00000" pt_clust_8="13000.00000" pt_clust_9="33.54629"></scales>
<clustering>
<clus scale="   33.546">  1  9  2 -1</clus>
<clus scale="   80.401">  5  6 -1 -1</clus>
<clus scale="   90.111">  7  8 -1 -1</clus>
<clus scale="   92.832">  1  5  2 -1</clus>
<clus scale="   33.546">  1  5  2 -1</clus>
</clustering>
</event>
<event>
 9    2  0.9254368E-005  0.1000294E+03  0.7546771E-02  0.1291063E+00
         21   -1    0    0  501  502  0.00000000000E+00  0.00000000000E+00  0.37925420535E+02  0.37925420535E+02  0.00000000000E+00 0.  1.
          2   -1    0    0  502    0 -0.00000000000E+00 -0.00000000000E+00 -0.62690018922E+03  0.62690018922E+03  0.00000000000E+00 0. -1.
         24    2    1    2    0    0  0.17565711023E+02  0.94032593320E+01 -0.45922942622E+03  0.46655502759E+03  0.79905897011E+02 0.  0.
         23    2    1    2    0    0  0.14383848704E+02  0.31540718209E+01 -0.50344118304E+02  0.11176615840E+03  0.98692961463E+02 0.  0.
        -13    1    3    3    0    0  0.21360827212E+02 -0.33254858409E+02 -0.21897500695E+03  0.22251342480E+03  0.00000000000E+00 0.  1.
         14    1    3    3    0    0 -0.37951161887E+01  0.42658117741E+02 -0.24025441927E+03  0.24404160279E+03  0.00000000000E+00 0. -1.
        -11    1    4    4    0    0  0.10451867377E+02 -0.18664300549E+02  0.25189006394E+02  0.33046689543E+02  0.00000000000E+00 0.  1.
         11    1    4    4    0    0  0.39319813271E+01  0.21818372370E+02 -0.75533124698E+02  0.78719468854E+02  0.00000000000E+00 0. -1.
          1    1    1    2  501    0 -0.31949559727E+02 -0.12557331153E+02 -0.79401224163E+02  0.86504423766E+02  0.00000000000E+00 0. -1.
<scales pt_clust_5="13000.00000" pt_clust_6="13000.00000" pt_clust_7="13000.00000" pt_clust_8="13000.00000" pt_clust_9="34.32874"></scales>
<clustering>
<clus scale="   34.329">  1  9  2 -1</clus>
<clus scale="   79.906">  5  6 -1 -1</clus>
<clus scale="   81.551">  2  5  1 -1</clus>
<clus scale="   98.693">  7  8 -1 -1</clus>
<clus scale="   34.329">  1  5  2 -1</clus>
</clustering>
</event>
<event>
 9    2  0.9254368E-005  0.1126572E+03  0.7546771E-02  0.1259237E+00
         21   -1    0    0  501  502  0.00000000000E+00  0.00000000000E+00  0.11150599475E+03  0.11150599475E+03  0.00000000000E+00 0.  1.
         -3   -1    0    0    0  501 -0.00000000000E+00 -0.00000000000E+00 -0.26552743417E+03  0.26552743417E+03  0.00000000000E+00 0.  1.
         23    2    1    2    0    0  0.44604856644E+02  0.46646711417E+02 -0.91931891558E+02  0.14388232114E+03  0.89917410595E+02 0.  0.
         24    2    1    2    0    0  0.24710656595E+01 -0.96457450945E+02  0.19039994794E+02  0.12694727110E+03  0.80267940242E+02 0.  0.
        -13    1    4    4    0    0  0.67531477142E+00 -0.11082223394E+03  0.19170245272E+02  0.11247009331E+03  0.00000000000E+00 0.  1.
         14    1    4    4    0    0  0.17957508881E+01  0.14364782994E+02 -0.13025047810E+00  0.14477177795E+02  0.00000000000E+00 0. -1.
        -11    1    3    3    0    0  0.67950682562E+02  0.52297263511E+02 -0.63716236506E+02  0.10682723354E+03  0.00000000000E+00 0.  1.
         11    1    3    3    0    0 -0.23345825918E+02 -0.56505520940E+01 -0.28215655052E+02  0.37055087597E+02  0.00000000000E+00 0. -1.
         -4    1    1    2    0  502 -0.47075922303E+02  0.49810739528E+02 -0.81129542660E+02  0.10620383668E+03  0.00000000000E+00 0.  1.
<scales pt_clust_5="13000.00000" pt_clust_6="13000.00000" pt_clust_7="13000.00000" pt_clust_8="13000.00000" pt_clust_9="68.53654"></scales>
<clustering>
<clus scale="   68.537">  1  9  2 -1</clus>
<clus scale="   80.268">  5  6 -1 -1</clus>
<clus scale="   89.917">  7  8 -1 -1</clus>
<clus scale="  105.116">  1  5  2 -1</clus>
<clus scale="   68.537">  1  5  2 -1</clus>
</clustering>
</event>
<event>
 9    2  0.9254368E-005  0.9224942E+02  0.7546771E-02  0.1305134E+00
         21   -1    0    0  501  502  0.00000000000E+00  0.00000000000E+00  0.49718764437E+02  0.49718764437E+02  0.00000000000E+00 0. -1.
          2   -1    0    0  502    0 -0.00000000000E+00 -0.00000000000E+00 -0.35349161255E+03  0.35349161255E+03  0.00000000000E+00 0. -1.
         23    2    1    2    0    0 -0.11294594811E+02 -0.14988539538E+02 -0.21493359013E+03  0.23425006943E+03  0.91238274148E+02 0.  0.
         24    2    1    2    0    0 -0.41954355052E+02  0.86268360191E+01 -0.50893138644E+02  0.10326533130E+03  0.78987510910E+02 0.  0.
        -13    1    4    4    0    0 -0.14136893682E+02  0.43060894336E+02 -0.29705424145E+02  0.54189524888E+02  0.00000000000E+00 0.  1.
         14    1    4    4    0    0 -0.27817461370E+02 -0.34434058317E+02 -0.21187714499E+02  0.49075806411E+02  0.00000000000E+00 0. -1.
        -11    1    3    3    0    0  0.15514383571E+02 -0.45332237322E+02 -0.78807750096E+02  0.92229980556E+02  0.00000000000E+00 0.  1.
         11    1    3    3    0    0 -0.26808978382E+02  0.30343697783E+02 -0.13612584004E+03  0.14202008887E+03  0.00000000000E+00 0. -1.
          1    1    1    2  501    0  0.53248949863E+02  0.63617035193E+01 -0.37946119333E+02  0.65694976258E+02  0.00000000000E+00 0. -1.
<scales pt_clust_5="13000.00000" pt_clust_6="13000.00000" pt_clust_7="13000.00000" pt_clust_8="13000.00000" pt_clust_9="53.62762"></scales>
<clustering>
<clus scale="   53.628">  1  9  2 -1</clus>
<clus scale="   78.988">  5  6 -1 -1</clus>
<clus scale="   80.153">  1  5  2 -1</clus>
<clus scale="   91.238">  7  8 -1 -1</clus>
<clus scale="   53.628">  1  5  2 -1</clus>
</clustering>
</event>
<event>
 9    2  0.9254368E-005  0.1746645E+03  0.7546771E-02  0.1174647E+00
          2   -1    0    0  502    0 -0.00000000000E+00  0.00000000000E+00  0.94023908369E+03  0.94023908369E+03  0.00000000000E+00 0. -1.
         21   -1    0    0  501  502  0.00000000000E+00 -0.00000000000E+00 -0.57992425489E+02  0.57992425489E+02  0.00000000000E+00 0. -1.
         24    2    1    2    0    0  0.41419159328E+02 -0.11588788246E+03  0.27731652454E+03  0.31387148191E+03  0.80407116035E+02 0.  0.
         23    2    1    2    0    0 -0.11762570676E+03  0.15891431381E+03  0.32872003834E+03  0.39461750637E+03  0.92609646903E+02 0.  0.
        -11    1    3    3    0    0 -0.22035695983E+01 -0.31637052462E+02  0.15940893045E+03  0.16253296870E+03  0.00000000000E+00 0.  1.
         12    1    3    3    0    0  0.43622728926E+02 -0.84250829998E+02  0.11790759409E+03  0.15133851320E+03  0.00000000000E+00 0. -1.
        -11    1    4    4    0    0 -0.41923264634E+02  0.43475884609E+02  0.34338713787E+02  0.69475606688E+02  0.00000000000E+00 0.  1.
         11    1    4    4    0    0 -0.75702442122E+02  0.11543842921E+03  0.29438132456E+03  0.32514189968E+03  0.00000000000E+00 0. -1.
          1    1    1    2  501    0  0.76206547428E+02 -0.43026431353E+02  0.27621009532E+03  0.28974252091E+03  0.00000000000E+00 0. -1.
<scales pt_clust_5="13000.00000" pt_clust_6="13000.00000" pt_clust_7="13000.00000" pt_clust_8="13000.00000" pt_clust_9="87.51411"></scales>
<clustering>
<clus scale="   80.407">  5  6 -1 -1</clus>
<clus scale="   87.514">  2  9  1 -1</clus>
<clus scale="   92.610">  7  8 -1 -1</clus>
<clus scale="  168.512">  1  5  2 -1</clus>
<clus scale="   87.514">  2  5  1 -1</clus>
</clustering>
</event>
<event>
 9    2  0.9254368E-005  0.1018886E+03  0.7546771E-02  0.1281374E+00
         21   -1    0    0  501  502  0.00000000000E+00  0.00000000000E+00  0.58265649263E+03  0.58265649263E+03  0.00000000000E+00 0. -1.
          2   -1    0    0  502    0 -0.00000000000E+00 -0.00000000000E+00 -0.10798558774E+03  0.10798558774E+03  0.00000000000E+00 0. -1.
         23    2    1    2    0    0 -0.41241531221E+02  0.12714979439E+02  0.15003962574E+02  0.10063775051E+03  0.89667738546E+02 0.  0.
         24    2    1    2    0    0  0.10439752587E+03  0.40778219873E+02  0.48455227563E+03  0.50357816573E+03  0.78983254928E+02 0.  0.
        -13    1    4    4    0    0  0.10837471747E+03  0.36045978505E+02  0.33568471246E+03  0.35458231503E+03  0.00000000000E+00 0.  1.
         14    1    4    4    0    0 -0.39771916049E+01  0.47322413683E+01  0.14886756316E+03  0.14899585069E+03  0.00000000000E+00 0. -1.
        -13    1    3    3    0    0 -0.66058714438E+02  0.11229765283E+02 -0.70861747676E+01  0.67380080546E+02  0.00000000000E+00 0.  1.
         13    1    3    3    0    0  0.24817183217E+02  0.14852141558E+01  0.22090137342E+02  0.33257669968E+02  0.00000000000E+00 0. -1.
          1    1    1    2  501    0 -0.63155994648E+02 -0.53493199312E+02 -0.24885333308E+02  0.86426164131E+02  0.00000000000E+00 0. -1.
<scales pt_clust_5="13000.00000" pt_clust_6="13000.00000" pt_clust_7="13000.00000" pt_clust_8="13000.00000" pt_clust_9="82.76599"></scales>
<clustering>
<clus scale="   78.983">  5  6 -1 -1</clus>
<clus scale="   82.766">  1  9  2 -1</clus>
<clus scale="   89.668">  7  8 -1 -1</clus>
<clus scale="   92.625">  1  5  2 -1</clus>
<clus scale="   82.766">  1  5  2 -1</clus>
</clustering>
</event>
<event>
 9    2  0.9254368E-005  0.1099251E+03  0.7546771E-02  0.1263089E+00
         -3   -1    0    0    0  501 -0.00000000000E+00  0.00000000000E+00  0.10298042451E+03  0.10298042451E+03  0.00000000000E+00 0.  1.
         21   -1    0    0  501  502  0.00000000000E+00 -0.00000000000E+00 -0.23580442386E+03  0.23580442386E+03  0.00000000000E+00 0. -1.
         24    2    1    2    0    0  0.55025695913E+02  0.14157682520E+02 -0.61006257048E+02  0.11768689881E+03  0.83067295420E+02 0.  0.
         23    2    1    2    0    0 -0.71190878506E+02  0.54596346034E+02 -0.80376527578E+02  0.14995244811E+03  0.89310964194E+02 0.  0.
        -13    1    3    3    0    0  0.42994279148E+02 -0.27933625414E+02 -0.51935238324E+02  0.72979890709E+02  0.00000000000E+00 0.  1.
         14    1    3    3    0    0  0.12031416765E+02  0.42091307934E+02 -0.90710187245E+01  0.44707008105E+02  0.00000000000E+00 0. -1.
        -11    1    4    4    0    0 -0.15160469286E+02 -0.24228394424E+02 -0.97455892953E+01  0.30196546757E+02  0.00000000000E+00 0.  1.
         11    1    4    4    0    0 -0.56030409220E+02  0.78824740458E+02 -0.70630938283E+02  0.11975590135E+03  0.00000000000E+00 0. -1.
         -4    1    1    2    0  502  0.16165182593E+02 -0.68754028554E+02  0.85587852740E+01  0.71145501447E+02  0.00000000000E+00 0.  1.
<scales pt_clust_5="13000.00000" pt_clust_6="13000.00000" pt_clust_7="13000.00000" pt_clust_8="13000.00000" pt_clust_9="70.62885"></scales>
<clustering>
<clus scale="   70.629">  2  9  1 -1</clus>
<clus scale="   83.067">  5  6 -1 -1</clus>
<clus scale="   89.311">  7  8 -1 -1</clus>
<clus scale="  104.915">  1  5  2 -1</clus>
<clus scale="   70.629">  2  5  1 -1</clus>
</clustering>
</event>
<event>
 9    2  0.9254368E-005  0.1661268E+03  0.7546771E-02  0.1190798E+00
          2   -1    0    0  502    0 -0.00000000000E+00  0.00000000000E+00  0.48768019285E+02  0.48768019285E+02  0.00000000000E+00 0. -1.
         21   -1    0    0  501  502  0.00000000000E+00 -0.00000000000E+00 -0.11266240108E+04  0.11266240108E+04  0.00000000000E+00 0. -1.
         23    2    1    2    0    0 -0.91783234121E+02  0.31985154329E+02 -0.23859055870E+03  0.27485480867E+03  0.95773164225E+02 0.  0.
         24    2    1    2    0    0  0.31762603085E+02  0.12813871630E+03 -0.36841812034E+03  0.39959878033E+03  0.80739583060E+02 0.  0.
        -11    1    4    4    0    0 -0.25941403046E+02  0.23148488055E+02 -0.75089731042E+02  0.82748272484E+02  0.00000000000E+00 0.  1.
         12    1    4    4    0    0  0.57704006131E+02  0.10499022825E+03 -0.29332838930E+03  0.31685050784E+03  0.00000000000E+00 0. -1.
        -11    1    3    3    0    0 -0.61081867336E+02 -0.16055943330E+02 -0.18906431962E+03  0.19933415359E+03  0.00000000000E+00 0. -1.
         11    1    3    3    0    0 -0.30701366784E+02  0.48041097658E+02 -0.49526239078E+02  0.75520655081E+02  0.00000000000E+00 0.  1.
          1    1    1    2  501    0  0.60020631036E+02 -0.16012387063E+03 -0.47084731248E+03  0.50093844110E+03  0.00000000000E+00 0. -1.
<scales pt_clust_5="13000.00000" pt_clust_6="13000.00000" pt_clust_7="13000.00000" pt_clust_8="13000.00000" pt_clust_9="145.18699"></scales>
<clustering>
<clus scale="   80.740">  5  6 -1 -1</clus>
<clus scale="   95.773">  7  8 -1 -1</clus>
<clus scale="  136.454">  1  7  2 -1</clus>
<clus scale="  145.187">  2  9  1 -1</clus>
<clus scale="  145.187">  2  5  1 -1</clus>
</clustering>
</event>
<event>
 9    2  0.9254368E-005  0.2145706E+03  0.7546771E-02  0.1138125E+00
          2   -1    0    0  502    0 -0.00000000000E+00  0.00000000000E+00  0.71341860937E+03  0.71341860937E+03  0.00000000000E+00 0. -1.
         21   -1    0    0  501  502  0.00000000000E+00 -0.00000000000E+00 -0.10552058342E+03  0.10552058342E+03  0.00000000000E+00 0. -1.
         24    2    1    2    0    0 -0.20441222047E+03 -0.41001530855E+02  0.40571833974E+03  0.46287320715E+03  0.78605046185E+02 0.  0.
         23    2    1    2    0    0  0.18363098261E+03  0.40944252480E+02  0.23904832928E+03  0.31374388776E+03  0.76774694976E+02 0.  0.
        -11    1    3    3    0    0 -0.18893150155E+03 -0.53984444773E+02  0.32603364213E+03  0.38066700455E+03  0.00000000000E+00 0.  1.
         12    1    3    3    0    0 -0.15480718922E+02  0.12982913918E+02  0.79684697613E+02  0.82206202599E+02  0.00000000000E+00 0. -1.
        -13    1    4    4    0    0  0.10391653172E+03 -0.17697087246E+01  0.17276538609E+03  0.20161759860E+03  0.00000000000E+00 0.  1.
         13    1    4    4    0    0  0.79714450894E+02  0.42713961205E+02  0.66282943184E+02  0.11212628916E+03  0.00000000000E+00 0. -1.
          1    1    1    2  501    0  0.20781237860E+02  0.57278374325E-01 -0.36868643063E+02  0.42322097882E+02  0.00000000000E+00 0. -1.
<scales pt_clust_5="13000.00000" pt_clust_6="13000.00000" pt_clust_7="13000.00000" pt_clust_8="13000.00000" pt_clust_9="20.78132"></scales>
<clustering>
<clus scale="   20.781">  2  9  1 -1</clus>
<clus scale="   76.775">  7  8 -1 -1</clus>
<clus scale="   78.605">  5  6 -1 -1</clus>
<clus scale="  213.907">  2  7  1 -1</clus>
<clus scale="   20.781">  2  5  1 -1</clus>
</clustering>
</event>
<event>
 9    2  0.9254368E-005  0.9190825E+02  0.7546771E-02  0.1299481E+00
          2   -1    0    0  502    0 -0.00000000000E+00  0.00000000000E+00  0.81886187595E+03  0.81886187595E+03  0.00000000000E+00 0. -1.
         21   -1    0    0  501  502  0.00000000000E+00 -0.00000000000E+00 -0.34972502258E+02  0.34972502258E+02  0.00000000000E+00 0. -1.
         23    2    1    2    0    0 -0.10086319862E+02 -0.26302077664E+02  0.34016828686E+03  0.35315375594E+03  0.90606726075E+02 0.  0.
         24    2    1    2    0    0 -0.28402872972E+02 -0.58271554073E+02  0.98755951678E+02  0.14342012680E+03  0.81328331919E+02 0.  0.
        -13    1    4    4    0    0 -0.98013243626E+01  0.20642513608E+02  0.24007177302E+02  0.33143987227E+02  0.00000000000E+00 0.  1.
         14    1    4    4    0    0 -0.18601548609E+02 -0.78914067681E+02  0.74748774376E+02  0.11027613957E+03  0.00000000000E+00 0. -1.
        -11    1    3    3    0    0  0.11573429425E+02 -0.56155093096E+02  0.22688988987E+03  0.23402213757E+03  0.00000000000E+00 0. -1.
         11    1    3    3    0    0 -0.21659749288E+02  0.29853015431E+02  0.11327839700E+03  0.11913161837E+03  0.00000000000E+00 0.  1.
          1    1    1    2  501    0  0.38489192834E+02  0.84573631737E+02  0.34496513515E+03  0.35726049547E+03  0.00000000000E+00 0. -1.
<scales pt_clust_5="13000.00000" pt_clust_6="13000.00000" pt_clust_7="13000.00000" pt_clust_8="13000.00000" pt_clust_9="92.92000"></scales>
<clustering>
<clus scale="   81.328">  5  6 -1 -1</clus>
<clus scale="   90.607">  7  8 -1 -1</clus>
<clus scale="   92.920">  2  9  1 -1</clus>
<clus scale="   92.920">  2  5  1 -1</clus>
<clus scale="   91.908">  2  5  1 -1</clus>
</clustering>
</event>
<event>
 9    2  0.9254368E-005  0.9725068E+02  0.7546771E-02  0.1294604E+00
          2   -1    0    0  502    0 -0.00000000000E+00  0.00000000000E+00  0.14797542455E+03  0.14797542455E+03  0.00000000000E+00 0. -1.
         21   -1    0    0  501  502  0.00000000000E+00 -0.00000000000E+00 -0.15456913351E+03  0.15456913351E+03  0.00000000000E+00 0.  1.
         23    2    1    2    0    0 -0.26289994434E+02 -0.15217878730E+02  0.10034640220E+03  0.14108353215E+03  0.94405587600E+02 0.  0.
         24    2    1    2    0    0 -0.12407587953E+02  0.45969074613E+01 -0.73027117745E+02  0.10892152615E+03  0.79723642267E+02 0.  0.
        -13    1    4    4    0    0 -0.27007298328E+02  0.25052989238E+02 -0.75157139761E+02  0.83699713797E+02  0.00000000000E+00 0.  1.
         14    1    4    4    0    0  0.14599710375E+02 -0.20456081777E+02  0.21300220156E+01  0.25221812355E+02  0.00000000000E+00 0. -1.
        -11    1    3    3    0    0  0.26957277929E+02  0.21025515594E+02  0.27755301755E+02  0.44035484723E+02  0.00000000000E+00 0.  1.
         11    1    3    3    0    0 -0.53247272363E+02 -0.36243394324E+02  0.72591100441E+02  0.97048047427E+02  0.00000000000E+00 0. -1.
          1    1    1    2  501    0  0.38697582387E+02  0.10620971268E+02 -0.33912993411E+02  0.52539499763E+02  0.00000000000E+00 0. -1.
<scales pt_clust_5="13000.00000" pt_clust_6="13000.00000" pt_clust_7="13000.00000" pt_clust_8="13000.00000" pt_clust_9="40.12864"></scales>
<clustering>
<clus scale="   40.129">  2  9  1 -1</clus>
<clus scale="   79.724">  5  6 -1 -1</clus>
<clus scale="   83.073">  2  5  1 -1</clus>
<clus scale="   94.406">  7  8 -1 -1</clus>
<clus scale="   40.129">  2  5  1 -1</clus>
</clustering>
</event>
<event>
 9    2  0.9254368E-005  0.2060600E+03  0.7546771E-02  0.1177706E+00
          2   -1    0    0  502    0 -0.00000000000E+00  0.00000000000E+00  0.15119396592E+04  0.15119396592E+04  0.00000000000E+00 0. -1.
         21   -1    0    0  501  502  0.00000000000E+00 -0.00000000000E+00 -0.49654846829E+02  0.49654846829E+02  0.00000000000E+00 0. -1.
         24    2    1    2    0    0 -0.44559244642E+01 -0.49661524309E+02  0.29157759927E+03  0.30690103181E+03  0.81759554002E+02 0.  0.
         23    2    1    2    0    0  0.55150759407E+02 -0.16319136494E+03  0.30599532207E+03  0.36272768269E+03  0.90913182825E+02 0.  0.
        -13    1    3    3    0    0  0.11698395965E+02 -0.53428812466E+02  0.28298057763E+03  0.28821779575E+03  0.00000000000E+00 0.  1.
         14    1    3    3    0    0 -0.16154320429E+02  0.37672881565E+01  0.85970216334E+01  0.18683236057E+02  0.00000000000E+00 0. -1.
        -11    1    4    4    0    0  0.79606698609E+02 -0.13052173284E+03  0.22490375803E+03  0.27194640940E+03  0.00000000000E+00 0. -1.
         11    1    4    4    0    0 -0.24455939202E+02 -0.32669632103E+02  0.81091564031E+02  0.90781273295E+02  0.00000000000E+00 0.  1.
          1    1    1    2  501    0 -0.50694834943E+02  0.21285288925E+03  0.86471189107E+03  0.89196579156E+03  0.00000000000E+00 0. -1.
<scales pt_clust_5="13000.00000" pt_clust_6="13000.00000" pt_clust_7="13000.00000" pt_clust_8="13000.00000" pt_clust_9="184.92036"></scales>
<clustering>
<clus scale="   81.760">  5  6 -1 -1</clus>
<clus scale="   90.913">  7  8 -1 -1</clus>
<clus scale="   95.764">  1  5  2 -1</clus>
<clus scale="  184.920">  2  9  1 -1</clus>
<clus scale="  184.920">  2  5  1 -1</clus>
</clustering>
</event>
<event>
 9    2  0.9254368E-005  0.9822358E+02  0.7546771E-02  0.1290730E+00
          2   -1    0    0  502    0 -0.00000000000E+00  0.00000000000E+00  0.32486965906E+03  0.32486965906E+03  0.00000000000E+00 0. -1.
         21   -1    0    0  501  502  0.00000000000E+00 -0.00000000000E+00 -0.41610617486E+02  0.41610617486E+02  0.00000000000E+00 0.  1.
         23    2    1    2    0    0  0.35212296563E+02 -0.98310781472E+01  0.17729457110E+03  0.20328294033E+03  0.92488015223E+02 0.  0.
         24    2    1    2    0    0 -0.15992194785E+02  0.29252787141E+02  0.48113939343E+02  0.99218440911E+02  0.80111622179E+02 0.  0.
        -11    1    4    4    0    0 -0.17132561309E+02  0.56149188703E+02  0.25273643012E+02  0.63914107051E+02  0.00000000000E+00 0.  1.
         12    1    4    4    0    0  0.11403665239E+01 -0.26896401562E+02  0.22840296332E+02  0.35304333860E+02  0.00000000000E+00 0. -1.
        -13    1    3    3    0    0 -0.19315229107E+02  0.27161670408E+02  0.66225482502E+02  0.74139388637E+02  0.00000000000E+00 0.  1.
         13    1    3    3    0    0  0.54527525670E+02 -0.36992748555E+02  0.11106908860E+03  0.12914355169E+03  0.00000000000E+00 0. -1.
          1    1    1    2  501    0 -0.19220101778E+02 -0.19421708994E+02  0.57850531128E+02  0.63978895304E+02  0.00000000000E+00 0. -1.
<scales pt_clust_5="13000.00000" pt_clust_6="13000.00000" pt_clust_7="13000.00000" pt_clust_8="13000.00000" pt_clust_9="27.32427"></scales>
<clustering>
<clus scale="   27.324">  2  9  1 -1</clus>
<clus scale="   80.112">  5  6 -1 -1</clus>
<clus scale="   86.670">  2  5  1 -1</clus>
<clus scale="   92.488">  7  8 -1 -1</clus>
<clus scale="   27.324">  2  5  1 -1</clus>
</clustering>
</event>
<event>
 9    2  0.9254368E-005  0.1012923E+03  0.7546771E-02  0.1281073E+00
          4   -1    0    0  502    0 -0.00000000000E+00  0.00000000000E+00  0.14676280307E+03  0.14676280307E+03  0.00000000000E+00 0. -1.
         21   -1    0    0  501  502  0.00000000000E+00 -0.00000000000E+00 -0.28994800435E+03  0.28994800435E+03  0.00000000000E+00 0.  1.
         24    2    1    2    0    0 -0.36452094050E+02 -0.38979440936E+02  0.89276044132E+02  0.13289626861E+03  0.82722754903E+02 0.  0.
         23    2    1    2    0    0 -0.46318008605E+02  0.21971145076E+02 -0.16855114497E+03  0.19786798171E+03  0.90078635526E+02 0.  0.
        -13    1    3    3    0    0  0.22715648824E+02  0.33360416684E+01  0.36130225795E+02  0.42807979297E+02  0.00000000000E+00 0.  1.
         14    1    3    3    0    0 -0.59167742874E+02 -0.42315482605E+02  0.53145818337E+02  0.90088289314E+02  0.00000000000E+00 0. -1.
        -13    1    4    4    0    0 -0.67526284030E+02  0.35320849719E+02 -0.10657925607E+03  0.13102098796E+03  0.00000000000E+00 0. -1.
         13    1    4    4    0    0  0.21208275425E+02 -0.13349704643E+02 -0.61971888898E+02  0.66846993755E+02  0.00000000000E+00 0.  1.
          3    1    1    2  501    0  0.82770102655E+02  0.17008295861E+02 -0.63910100447E+02  0.10594655710E+03  0.00000000000E+00 0. -1.
<scales pt_clust_5="13000.00000" pt_clust_6="13000.00000" pt_clust_7="13000.00000" pt_clust_8="13000.00000" pt_clust_9="84.49954"></scales>
<clustering>
<clus scale="   82.723">  5  6 -1 -1</clus>
<clus scale="   84.500">  2  9  1 -1</clus>
<clus scale="   90.079">  7  8 -1 -1</clus>
<clus scale="   94.810">  1  5  2 -1</clus>
<clus scale="   84.500">  2  5  1 -1</clus>
</clustering>
</event>
<event>
 9    2  0.9254368E-005  0.1164807E+03  0.7546771E-02  0.1251146E+00
         -1   -1    0    0    0  501 -0.00000000000E+00  0.00000000000E+00  0.19419850726E+03  0.19419850726E+03  0.00000000000E+00 0.  1.
         21   -1    0    0  501  502  0.00000000000E+00 -0.00000000000E+00 -0.18133285244E+03  0.18133285244E+03  0.00000000000E+00 0. -1.
         23    2    1    2    0    0 -0.75366119385E+02  0.36521997742E+02  0.14072793209E+03  0.18575373303E+03  0.87670919891E+02 0.  0.
         24    2    1    2    0    0  0.33486576490E+02 -0.37724178434E+02 -0.70403207517E+02  0.11866584110E+03  0.81120316645E+02 0.  0.
        -11    1    4    4    0    0  0.20271490341E+01  0.23445373923E+02 -0.32510568594E+02  0.40133925324E+02  0.00000000000E+00 0.  1.
         12    1    4    4    0    0  0.31459427456E+02 -0.61169552357E+02 -0.37892638923E+02  0.78531915779E+02  0.00000000000E+00 0. -1.
        -13    1    3    3    0    0 -0.65193645832E+02  0.54812281976E+02  0.14110821914E+03  0.16482150109E+03  0.00000000000E+00 0.  1.
         13    1    3    3    0    0 -0.10172473553E+02 -0.18290284234E+02 -0.38028705891E+00  0.20932231935E+02  0.00000000000E+00 0. -1.
         -2    1    1    2    0  502  0.41879542895E+02  0.12021806917E+01 -0.57459069744E+02  0.71111785573E+02  0.00000000000E+00 0.  1.
<scales pt_clust_5="13000.00000" pt_clust_6="13000.00000" pt_clust_7="13000.00000" pt_clust_8="13000.00000" pt_clust_9="41.89679"></scales>
<clustering>
<clus scale="   41.897">  2  9  1 -1</clus>
<clus scale="   81.120">  5  6 -1 -1</clus>
<clus scale="   87.671">  7  8 -1 -1</clus>
<clus scale="  111.634">  2  5  1 -1</clus>
<clus scale="   41.897">  2  5  1 -1</clus>
</clustering>
</event>
<event>
 9    2  0.9254368E-005  0.1932067E+03  0.7546771E-02  0.1156699E+00
         21   -1    0    0  501  502  0.00000000000E+00  0.00000000000E+00  0.89304338890E+02  0.89304338890E+02  0.00000000000E+00 0. -1.
          2   -1    0    0  502    0 -0.00000000000E+00 -0.00000000000E+00 -0.83055529231E+03  0.83055529231E+03  0.00000000000E+00 0. -1.
         24    2    1    2    0    0 -0.17177710326E+03  0.26078689763E+02 -0.67868041459E+03  0.70510394317E+03  0.79856084667E+02 0.  0.
         23    2    1    2    0    0  0.15190263449E+03 -0.33935260118E+02 -0.68148920362E+02  0.19266862060E+03  0.90834518633E+02 0.  0.
        -13    1    3    3    0    0 -0.11691604278E+03  0.35373917600E+02 -0.57074687260E+03  0.58367171226E+03  0.00000000000E+00 0.  1.
         14    1    3    3    0    0 -0.54861060480E+02 -0.92952278369E+01 -0.10793354199E+03  0.12143223091E+03  0.00000000000E+00 0. -1.
        -13    1    4    4    0    0  0.50242593067E+02  0.17796991951E+02 -0.57032454620E+02  0.78062487538E+02  0.00000000000E+00 0.  1.
         13    1    4    4    0    0  0.10166004142E+03 -0.51732252069E+02 -0.11116465742E+02  0.11460613307E+03  0.00000000000E+00 0. -1.
          1    1    1    2  501    0  0.19874468772E+02  0.78565703548E+01  0.55783815383E+01  0.22087067422E+02  0.00000000000E+00 0. -1.
<scales pt_clust_5="13000.00000" pt_clust_6="13000.00000" pt_clust_7="13000.00000" pt_clust_8="13000.00000" pt_clust_9="21.37101"></scales>
<clustering>
<clus scale="   21.371">  1  9  2 -1</clus>
<clus scale="   79.856">  5  6 -1 -1</clus>
<clus scale="   90.835">  7  8 -1 -1</clus>
<clus scale="  188.295">  2  5  1 -1</clus>
<clus scale="   21.371">  1  5  2 -1</clus>
</clustering>
</event>
<event>
 9    2  0.9254368E-005  0.2896424E+03  0.7546771E-02  0.1107504E+00
          2   -1    0    0  502    0 -0.00000000000E+00  0.00000000000E+00  0.14839841265E+04  0.14839841265E+04  0.00000000000E+00 0. -1.
         21   -1    0    0  501  502  0.00000000000E+00 -0.00000000000E+00 -0.11897738302E+03  0.11897738302E+03  0.00000000000E+00 0. -1.
         23    2    1    2    0    0  0.14566293936E+03 -0.72391504957E+02  0.47684065209E+03  0.51195586945E+03  0.90904251178E+02 0.  0.
         24    2    1    2    0    0 -0.33478300311E+03  0.20169720465E+03  0.63078907392E+03  0.74643446946E+03  0.80673043130E+02 0.  0.
        -11    1    4    4    0    0 -0.32681730548E+02  0.46873446605E+02  0.12302763695E+03  0.13565034081E+03  0.00000000000E+00 0.  1.
         12    1    4    4    0    0 -0.30210127256E+03  0.15482375804E+03  0.50776143697E+03  0.61078412865E+03  0.00000000000E+00 0. -1.
        -11    1    3    3    0    0  0.44977395354E+02 -0.30459517283E+02  0.29463466105E+03  0.29960028668E+03  0.00000000000E+00 0. -1.
         11    1    3    3    0    0  0.10068554400E+03 -0.41931987673E+02  0.18220599104E+03  0.21235558277E+03  0.00000000000E+00 0.  1.
          1    1    1    2  501    0  0.18912006375E+03 -0.12930569969E+03  0.25737701742E+03  0.34457117056E+03  0.00000000000E+00 0. -1.
<scales pt_clust_5="13000.00000" pt_clust_6="13000.00000" pt_clust_7="13000.00000" pt_clust_8="13000.00000" pt_clust_9="278.18081"></scales>
<clustering>
<clus scale="   80.673">  5  6 -1 -1</clus>
<clus scale="   90.904">  7  8 -1 -1</clus>
<clus scale="  186.338">  1  7  2 -1</clus>
<clus scale="  278.181">  2  9  1 -1</clus>
<clus scale="  278.181">  2  5  1 -1</clus>
</clustering>
</event>
<event>
 9    2  0.9254368E-005  0.9700002E+02  0.7546771E-02  0.1293936E+00
          2   -1    0    0  502    0 -0.00000000000E+00  0.00000000000E+00  0.86495273726E+02  0.86495273726E+02  0.00000000000E+00 0. -1.
         21   -1    0    0  501  502  0.00000000000E+00 -0.00000000000E+00 -0.14609272556E+03  0.14609272556E+03  0.00000000000E+00 0. -1.
         24    2    1    2    0    0 -0.21398740064E+01  0.13468770710E+02 -0.12800327375E+02  0.82663965923E+02  0.80520159190E+02 0.  0.
         23    2    1    2    0    0  0.59671455991E+00 -0.48393226190E+02 -0.46553952595E+02  0.11496465602E+03  0.93313135317E+02 0.  0.
        -13    1    3    3    0    0  0.25616370903E+02  0.23580001061E+02 -0.32117385281E+02  0.47368146951E+02  0.00000000000E+00 0.  1.
         14    1    3    3    0    0 -0.27756244910E+02 -0.10111230351E+02  0.19317057906E+02  0.35295818972E+02  0.00000000000E+00 0. -1.
        -11    1    4    4    0    0  0.32560883414E+02 -0.48002709095E+02  0.58742868778E+00  0.58007036484E+02  0.00000000000E+00 0.  1.
         11    1    4    4    0    0 -0.31964168854E+02 -0.39051709481E+00 -0.47141381283E+02  0.56957619538E+02  0.00000000000E+00 0. -1.
          1    1    1    2  501    0  0.15431594465E+01  0.34924455480E+02 -0.24317186578E+00  0.34959377343E+02  0.00000000000E+00 0. -1.
<scales pt_clust_5="13000.00000" pt_clust_6="13000.00000" pt_clust_7="13000.00000" pt_clust_8="13000.00000" pt_clust_9="34.95855"></scales>
<clustering>
<clus scale="   34.959">  2  9  1 -1</clus>
<clus scale="   80.520">  5  6 -1 -1</clus>
<clus scale="   84.765">  1  5  2 -1</clus>
<clus scale="   93.313">  7  8 -1 -1</clus>
<clus scale="   34.959">  2  5  1 -1</clus>
</clustering>
</event>
<event>
 9    2  0.9254368E-005  0.9531294E+02  0.7546771E-02  0.1297742E+00
         21   -1    0    0  501  502  0.00000000000E+00  0.00000000000E+00  0.36560337785E+03  0.36560337785E+03  0.00000000000E+00 0. -1.
          2   -1    0    0  502    0 -0.00000000000E+00 -0.00000000000E+00 -0.10037810258E+03  0.10037810258E+03  0.00000000000E+00 0. -1.
         24    2    1    2    0    0  0.26439655001E+02 -0.17819860997E+02 -0.58694137860E+02  0.10247341103E+03  0.77712259950E+02 0.  0.
         23    2    1    2    0    0  0.89628689048E+01  0.38443315136E+02  0.11948295696E+03  0.15500643830E+03  0.90512968197E+02 0.  0.
        -13    1    3    3    0    0 -0.11772505375E+02  0.18728346042E+02 -0.41226251583E+02  0.46786180094E+02  0.00000000000E+00 0.  1.
         14    1    3    3    0    0  0.38212160376E+02 -0.36548207039E+02 -0.17467886277E+02  0.55687230936E+02  0.00000000000E+00 0. -1.
        -13    1    4    4    0    0 -0.35217357343E+02  0.10941535936E+02  0.84787709027E+02  0.92460451378E+02  0.00000000000E+00 0.  1.
         13    1    4    4    0    0  0.44180226248E+02  0.27501779201E+02  0.34695247931E+02  0.62545986918E+02  0.00000000000E+00 0. -1.
          1    1    1    2  501    0 -0.35402523906E+02 -0.20623454139E+02  0.20443645618E+03  0.20850163110E+03  0.00000000000E+00 0. -1.
<scales pt_clust_5="13000.00000" pt_clust_6="13000.00000" pt_clust_7="13000.00000" pt_clust_8="13000.00000" pt_clust_9="40.97152"></scales>
<clustering>
<clus scale="   40.972">  1  9  2 -1</clus>
<clus scale="   77.712">  5  6 -1 -1</clus>
<clus scale="   83.254">  2  5  1 -1</clus>
<clus scale="   90.513">  7  8 -1 -1</clus>
<clus scale="   40.972">  1  5  2 -1</clus>
</clustering>
</event>
<event>
 9    2  0.9254368E-005  0.1050015E+03  0.7546771E-02  0.1274875E+00
          2   -1    0    0  502    0 -0.00000000000E+00  0.00000000000E+00  0.31827994498E+03  0.31827994498E+03  0.00000000000E+00 0. -1.
         21   -1    0    0  501  502  0.00000000000E+00 -0.00000000000E+00 -0.10390390738E+03  0.10390390738E+03  0.00000000000E+00 0.  1.
         23    2    1    2    0    0  0.25958246642E+01 -0.39240055160E+02  0.20184222521E+03  0.22576807469E+03  0.93190232528E+02 0.  0.
         24    2    1    2    0    0 -0.28493504120E+02  0.97128184820E+02 -0.43937210354E+01  0.13077838934E+03  0.82691706184E+02 0.  0.
        -13    1    4    4    0    0 -0.32071832019E+02  0.82017698076E+02 -0.36331768449E+02  0.95265432374E+02  0.00000000000E+00 0.  1.
         14    1    4    4    0    0  0.35783278991E+01  0.15110486744E+02  0.31938047414E+02  0.35512956971E+02  0.00000000000E+00 0. -1.
        -11    1    3    3    0    0  0.29528645680E+02  0.10271929838E+02  0.13384525633E+03  0.13744819424E+03  0.00000000000E+00 0.  1.
         11    1    3    3    0    0 -0.26932821016E+02 -0.49511984997E+02  0.67996968881E+02  0.88319880453E+02  0.00000000000E+00 0. -1.
          1    1    1    2  501    0  0.25897679456E+02 -0.57888129660E+02  0.16927533427E+02  0.65637388314E+02  0.00000000000E+00 0. -1.
<scales pt_clust_5="13000.00000" pt_clust_6="13000.00000" pt_clust_7="13000.00000" pt_clust_8="13000.00000" pt_clust_9="63.41707"></scales>
<clustering>
<clus scale="   63.417">  2  9  1 -1</clus>
<clus scale="   82.692">  5  6 -1 -1</clus>
<clus scale="   93.190">  7  8 -1 -1</clus>
<clus scale="   95.806">  2  5  1 -1</clus>
<clus scale="   63.417">  2  5  1 -1</clus>
</clustering>
</event>
<event>
 9    2  0.9254368E-005  0.1232401E+03  0.7546771E-02  0.1257800E+00
          4   -1    0    0  502    0 -0.00000000000E+00  0.00000000000E+00  0.43495816181E+03  0.43495816181E+03  0.00000000000E+00 0. -1.
         21   -1    0    0  501  502  0.00000000000E+00 -0.00000000000E+00 -0.73729860827E+02  0.73729860827E+02  0.00000000000E+00 0.  1.
         23    2    1    2    0    0 -0.84917083722E+01 -0.17377050628E+02  0.34174136299E+03  0.36296632201E+03  0.12076142072E+03 0.  0.
         24    2    1    2    0    0  0.16712676038E+02  0.50118758783E+02 -0.16541028397E+02  0.96349460204E+02  0.78856891511E+02 0.  0.
        -13    1    4    4    0    0  0.26088661096E+02  0.67400230766E+02 -0.22686743955E+02  0.75750232319E+02  0.00000000000E+00 0.  1.
         14    1    4    4    0    0 -0.93759850581E+01 -0.17281471983E+02  0.61457155582E+01  0.20599227885E+02  0.00000000000E+00 0. -1.
        -13    1    3    3    0    0  0.20350943890E+02 -0.64141049616E+02  0.18223243182E+03  0.19425986299E+03  0.00000000000E+00 0.  1.
         13    1    3    3    0    0 -0.28842652262E+02  0.46763998988E+02  0.15950893117E+03  0.16870645901E+03  0.00000000000E+00 0. -1.
          3    1    1    2  501    0 -0.82209676661E+01 -0.32741708155E+02  0.36027966390E+02  0.49372240424E+02  0.00000000000E+00 0. -1.
<scales pt_clust_5="13000.00000" pt_clust_6="13000.00000" pt_clust_7="13000.00000" pt_clust_8="13000.00000" pt_clust_9="33.75803"></scales>
<clustering>
<clus scale="   33.758">  2  9  1 -1</clus>
<clus scale="   78.857">  5  6 -1 -1</clus>
<clus scale="   82.603">  2  5  1 -1</clus>
<clus scale="  120.761">  7  8 -1 -1</clus>
<clus scale="   33.758">  2  5  1 -1</clus>
</clustering>
</event>
<event>
 9    2  0.9254368E-005  0.1013830E+03  0.7546771E-02  0.1284487E+00
          2   -1    0    0  502    0 -0.00000000000E+00  0.00000000000E+00  0.66017008002E+03  0.66017008002E+03  0.00000000000E+00 0. -1.
         21   -1    0    0  501  502  0.00000000000E+00 -0.00000000000E+00 -0.12623352587E+03  0.12623352587E+03  0.00000000000E+00 0. -1.
         24    2    1    2    0    0 -0.30259349152E+02  0.24852034319E+02  0.44337950804E+03  0.45185203378E+03  0.77792161970E+02 0.  0.
         23    2    1    2    0    0  0.25689682402E+02 -0.50497504761E+02  0.19714109939E+03  0.22483041452E+03  0.92055116388E+02 0.  0.
        -13    1    3    3    0    0 -0.51617116553E+02  0.34397391125E+02  0.27869726747E+03  0.28551650414E+03  0.00000000000E+00 0.  1.
         14    1    3    3    0    0  0.21357767401E+02 -0.95453568066E+01  0.16468224056E+03  0.16633552964E+03  0.00000000000E+00 0. -1.
        -13    1    4    4    0    0  0.15003913454E+02 -0.77394877490E+02  0.13632894982E+03  0.15748227532E+03  0.00000000000E+00 0. -1.
         13    1    4    4    0    0  0.10685768948E+02  0.26897372729E+02  0.60812149577E+02  0.67348139201E+02  0.00000000000E+00 0.  1.
          1    1    1    2  501    0  0.45696667501E+01  0.25645470442E+02 -0.10658405328E+03  0.10972115759E+03  0.00000000000E+00 0. -1.
<scales pt_clust_5="13000.00000" pt_clust_6="13000.00000" pt_clust_7="13000.00000" pt_clust_8="13000.00000" pt_clust_9="26.04941"></scales>
<clustering>
<clus scale="   26.049">  2  9  1 -1</clus>
<clus scale="   77.792">  5  6 -1 -1</clus>
<clus scale="   88.634">  1  5  2 -1</clus>
<clus scale="   92.055">  7  8 -1 -1</clus>
<clus scale="   26.049">  2  5  1 -1</clus>
</clustering>
</event>
<event>
 9    2  0.9254368E-005  0.1101804E+03  0.7546771E-02  0.1264630E+00
         21   -1    0    0  501  502  0.00000000000E+00  0.00000000000E+00  0.62647551895E+02  0.62647551895E+02  0.00000000000E+00 0. -1.
          2   -1    0    0  502    0 -0.00000000000E+00 -0.00000000000E+00 -0.13705560667E+04  0.13705560667E+04  0.00000000000E+00 0. -1.
         24    2    1    2    0    0 -0.28317313606E+02  0.74002697258E+02 -0.10004165792E+04  0.10067911485E+04  0.80726793958E+02 0.  0.
         23    2    1    2    0    0  0.67834269697E+01 -0.23097943830E+02 -0.34616749499E+03  0.35895284442E+03  0.91845958182E+02 0.  0.
        -11    1    3    3    0    0 -0.20495579542E+02 -0.74418675182E+01 -0.85992547334E+02  0.88713969418E+02  0.00000000000E+00 0.  1.
         12    1    3    3    0    0 -0.78217340646E+01  0.81444564776E+02 -0.91442403187E+03  0.91807717906E+03  0.00000000000E+00 0. -1.
        -11    1    4    4    0    0 -0.37203361396E+02 -0.10285235389E+02 -0.79460085274E+02  0.88339013567E+02  0.00000000000E+00 0. -1.
         11    1    4    4    0    0  0.43986788366E+02 -0.12812708441E+02 -0.26670740972E+03  0.27061383085E+03  0.00000000000E+00 0.  1.
          1    1    1    2  501    0  0.21533886637E+02 -0.50904753427E+02  0.38675559438E+02  0.67459625651E+02  0.00000000000E+00 0. -1.
<scales pt_clust_5="13000.00000" pt_clust_6="13000.00000" pt_clust_7="13000.00000" pt_clust_8="13000.00000" pt_clust_9="55.27207"></scales>
<clustering>
<clus scale="   55.272">  1  9  2 -1</clus>
<clus scale="   80.727">  5  6 -1 -1</clus>
<clus scale="   91.846">  7  8 -1 -1</clus>
<clus scale="  101.098">  2  5  1 -1</clus>
<clus scale="   55.272">  1  5  2 -1</clus>
</clustering>
</event>
<event>
 9    2  0.9254368E-005  0.1007950E+03  0.7546771E-02  0.1283486E+00
          2   -1    0    0  502    0 -0.00000000000E+00  0.00000000000E+00  0.55602466668E+03  0.55602466668E+03  0.00000000000E+00 0. -1.
         21   -1    0    0  501  502  0.00000000000E+00 -0.00000000000E+00 -0.25858448735E+03  0.25858448735E+03  0.00000000000E+00 0. -1.
         24    2    1    2    0    0 -0.13695070954E+02  0.30733228249E+02  0.41171715816E+03  0.42135402116E+03  0.83042799415E+02 0.  0.
         23    2    1    2    0    0  0.25722784213E+02 -0.62991299338E+02  0.11425527773E+03  0.16214424751E+03  0.92773504260E+02 0.  0.
        -13    1    3    3    0    0  0.34621796629E+02  0.20104902494E+02  0.19370457728E+03  0.19779873398E+03  0.00000000000E+00 0.  1.
         14    1    3    3    0    0 -0.48316867583E+02  0.10628325755E+02  0.21801258089E+03  0.22355528718E+03  0.00000000000E+00 0. -1.
        -13    1    4    4    0    0  0.52015064397E+02 -0.63076231694E+02  0.58593614430E+02  0.10058523540E+03  0.00000000000E+00 0.  1.
         13    1    4    4    0    0 -0.26292280185E+02  0.84932355926E-01  0.55661663301E+02  0.61559012113E+02  0.00000000000E+00 0. -1.
          1    1    1    2  501    0 -0.12027713259E+02  0.32258071089E+02 -0.22853225657E+03  0.23111088536E+03  0.00000000000E+00 0. -1.
<scales pt_clust_5="13000.00000" pt_clust_6="13000.00000" pt_clust_7="13000.00000" pt_clust_8="13000.00000" pt_clust_9="34.42745"></scales>
<clustering>
<clus scale="   34.427">  2  9  1 -1</clus>
<clus scale="   83.043">  5  6 -1 -1</clus>
<clus scale="   91.917">  1  5  2 -1</clus>
<clus scale="   92.774">  7  8 -1 -1</clus>
<clus scale="   34.427">  2  5  1 -1</clus>
</clustering>
</event>
<event>
 9    2  0.9254368E-005  0.1431495E+03  0.7546771E-02  0.1212108E+00
         21   -1    0    0  501  502  0.00000000000E+00  0.00000000000E+00  0.83315381353E+02  0.83315381353E+02  0.00000000000E+00 0.  1.
         -1   -1    0    0    0  501 -0.00000000000E+00 -0.00000000000E+00 -0.64529751528E+03  0.64529751528E+03  0.00000000000E+00 0.  1.
         23    2    1    2    0    0 -0.53586449684E+02  0.97971700496E+02 -0.42973276815E+03  0.45369083930E+03  0.93247863024E+02 0.  0.
         24    2    1    2    0    0  0.60161092082E+02 -0.70256312130E+02  0.17041266898E+02  0.12293830267E+03  0.79171428506E+02 0.  0.
        -13    1    4    4    0    0  0.44565559279E+02 -0.87523086855E+02  0.16968443694E+02  0.99670998229E+02  0.00000000000E+00 0.  1.
         14    1    4    4    0    0  0.15595532803E+02  0.17266774725E+02  0.72823204751E-01  0.23267304443E+02  0.00000000000E+00 0. -1.
        -13    1    3    3    0    0 -0.47793721627E+02  0.30773285593E+02 -0.31906758458E+03  0.32409158962E+03  0.00000000000E+00 0.  1.
         13    1    3    3    0    0 -0.57927280573E+01  0.67198414903E+02 -0.11066518357E+03  0.12959924968E+03  0.00000000000E+00 0. -1.
         -2    1    1    2    0  502 -0.65746423981E+01 -0.27715388366E+02 -0.14929063267E+03  0.15198375465E+03  0.00000000000E+00 0.  1.
<scales pt_clust_5="13000.00000" pt_clust_6="13000.00000" pt_clust_7="13000.00000" pt_clust_8="13000.00000" pt_clust_9="28.48455"></scales>
<clustering>
<clus scale="   28.485">  1  9  2 -1</clus>
<clus scale="   79.171">  5  6 -1 -1</clus>
<clus scale="   93.248">  7  8 -1 -1</clus>
<clus scale="  134.405">  1  5  2 -1</clus>
<clus scale="   28.485">  1  5  2 -1</clus>
</clustering>
</event>
<event>
 9    2  0.9254368E-005  0.1832705E+03  0.7546771E-02  0.1166324E+00
          2   -1    0    0  502    0 -0.00000000000E+00  0.00000000000E+00  0.64453694616E+02  0.64453694616E+02  0.00000000000E+00 0. -1.
         21   -1    0    0  501  502  0.00000000000E+00 -0.00000000000E+00 -0.95226341010E+03  0.95226341010E+03  0.00000000000E+00 0. -1.
         24    2    1    2    0    0  0.14823514244E+03  0.38773298139E+02 -0.10225069071E+03  0.20146982327E+03  0.81595709674E+02 0.  0.
         23    2    1    2    0    0 -0.16875689874E+03 -0.33540700144E+02 -0.71415999463E+03  0.74077350036E+03  0.95483042805E+02 0.  0.
        -13    1    3    3    0    0  0.65197157647E+02 -0.21076399594E+02 -0.58724722312E+02  0.90241215615E+02  0.00000000000E+00 0.  1.
         14    1    3    3    0    0  0.83037984791E+02  0.59849697732E+02 -0.43525968400E+02  0.11122860766E+03  0.00000000000E+00 0. -1.
        -11    1    4    4    0    0 -0.10292636641E+03  0.16519046330E+02 -0.50912858102E+03  0.51969089640E+03  0.00000000000E+00 0. -1.
         11    1    4    4    0    0 -0.65830532328E+02 -0.50059746474E+02 -0.20503141361E+03  0.22108260396E+03  0.00000000000E+00 0.  1.
          1    1    1    2  501    0  0.20521756303E+02 -0.52325979944E+01 -0.71399030136E+02  0.74473781077E+02  0.00000000000E+00 0. -1.
<scales pt_clust_5="13000.00000" pt_clust_6="13000.00000" pt_clust_7="13000.00000" pt_clust_8="13000.00000" pt_clust_9="21.17835"></scales>
<clustering>
<clus scale="   21.178">  2  9  1 -1</clus>
<clus scale="   81.596">  5  6 -1 -1</clus>
<clus scale="   95.483">  7  8 -1 -1</clus>
<clus scale="  176.434">  1  5  2 -1</clus>
<clus scale="   21.178">  2  5  1 -1</clus>
</clustering>
</event>
<event>
 9    2  0.9254368E-005  0.9530146E+02  0.7546771E-02  0.1296394E+00
         21   -1    0    0  501  502  0.00000000000E+00  0.00000000000E+00  0.17578887991E+03  0.17578887991E+03  0.00000000000E+00 0.  1.
         -1   -1    0    0    0  501 -0.00000000000E+00 -0.00000000000E+00 -0.51300521347E+03  0.51300521347E+03  0.00000000000E+00 0.  1.
         23    2    1    2    0    0  0.19067992992E+02 -0.13270534211E+02 -0.39542379362E+03  0.40637479221E+03  0.90778850752E+02 0.  0.
         24    2    1    2    0    0 -0.42736506015E+02  0.26814694439E+02 -0.90582692627E+02  0.13115082355E+03  0.80311129547E+02 0.  0.
        -13    1    4    4    0    0 -0.47049179861E+02  0.48493298605E+02 -0.47069134038E+02  0.82345180273E+02  0.00000000000E+00 0.  1.
         14    1    4    4    0    0  0.43126738459E+01 -0.21678604166E+02 -0.43513558589E+02  0.48805643274E+02  0.00000000000E+00 0. -1.
        -13    1    3    3    0    0 -0.21862641165E+02  0.26722674042E+02 -0.11078517043E+03  0.11604064105E+03  0.00000000000E+00 0.  1.
         13    1    3    3    0    0  0.40930634157E+02 -0.39993208253E+02 -0.28463862319E+03  0.29033415116E+03  0.00000000000E+00 0. -1.
         -2    1    1    2    0  502  0.23668513023E+02 -0.13544160228E+02  0.14879015269E+03  0.15126847762E+03  0.00000000000E+00 0.  1.
<scales pt_clust_5="13000.00000" pt_clust_6="13000.00000" pt_clust_7="13000.00000" pt_clust_8="13000.00000" pt_clust_9="27.26981"></scales>
<clustering>
<clus scale="   27.270">  1  9  2 -1</clus>
<clus scale="   80.311">  5  6 -1 -1</clus>
<clus scale="   85.390">  1  5  2 -1</clus>
<clus scale="   90.779">  7  8 -1 -1</clus>
<clus scale="   27.270">  1  5  2 -1</clus>
</clustering>
</event>
<event>
 9    2  0.9254368E-005  0.1298501E+03  0.7546771E-02  0.1241731E+00
         -3   -1    0    0    0  501 -0.00000000000E+00  0.00000000000E+00  0.31868096950E+03  0.31868096950E+03  0.00000000000E+00 0.  1.
         21   -1    0    0  501  502  0.00000000000E+00 -0.00000000000E+00 -0.21804394833E+03  0.21804394833E+03  0.00000000000E+00 0.  1.
         23    2    1    2    0    0  0.35215414074E+00  0.31141945473E+02  0.20112467454E+03  0.22345235074E+03  0.92248975942E+02 0.  0.
         24    2    1    2    0    0 -0.10115315085E+03 -0.44428551952E+02  0.38015175100E+02  0.14145752601E+03  0.79744730062E+02 0.  0.
        -13    1    4    4    0    0 -0.10871002050E+03 -0.19977635513E+02  0.28418419676E+02  0.11412528665E+03  0.00000000000E+00 0.  1.
         14    1    4    4    0    0  0.75568696500E+01 -0.24450916439E+02  0.95967554237E+01  0.27332239357E+02  0.00000000000E+00 0. -1.
        -11    1    3    3    0    0  0.15392810320E+02 -0.20864744699E+02  0.13744820636E+03  0.13987239046E+03  0.00000000000E+00 0. -1.
         11    1    3    3    0    0 -0.15040656179E+02  0.52006690173E+02  0.63676468181E+02  0.83579960283E+02  0.00000000000E+00 0.  1.
         -4    1    1    2    0  502  0.10080099671E+03  0.13286606479E+02 -0.13850282846E+03  0.17181504108E+03  0.00000000000E+00 0.  1.
<scales pt_clust_5="13000.00000" pt_clust_6="13000.00000" pt_clust_7="13000.00000" pt_clust_8="13000.00000" pt_clust_9="102.47837"></scales>
<clustering>
<clus scale="   79.745">  5  6 -1 -1</clus>
<clus scale="   92.249">  7  8 -1 -1</clus>
<clus scale="   97.364">  1  7  2 -1</clus>
<clus scale="  102.478">  2  9  1 -1</clus>
<clus scale="  102.478">  2  5  1 -1</clus>
</clustering>
</event>
<event>
 9    2  0.9254368E-005  0.1267046E+03  0.7546771E-02  0.1236251E+00
         21   -1    0    0  501  502  0.00000000000E+00  0.00000000000E+00  0.23617713610E+02  0.23617713610E+02  0.00000000000E+00 0.  1.
          2   -1    0    0  502    0 -0.00000000000E+00 -0.00000000000E+00 -0.15588861128E+04  0.15588861128E+04  0.00000000000E+00 0. -1.
         23    2    1    2    0    0 -0.43291456431E+02  0.57039354305E+02 -0.66072614457E+03  0.67107925335E+03  0.93062817623E+02 0.  0.
         24    2    1    2    0    0  0.10033193749E+03 -0.87874649360E+02 -0.35026531362E+03  0.38315310614E+03  0.79574249195E+02 0.  0.
        -11    1    4    4    0    0  0.62326857608E+02 -0.70443489534E+01 -0.18427067085E+03  0.19465338468E+03  0.00000000000E+00 0.  1.
         12    1    4    4    0    0  0.38005079878E+02 -0.80830300407E+02 -0.16599464277E+03  0.18849972146E+03  0.00000000000E+00 0. -1.
        -13    1    3    3    0    0 -0.68898184980E+02  0.19096819080E+02 -0.38592414489E+03  0.39249088398E+03  0.00000000000E+00 0. -1.
         13    1    3    3    0    0  0.25606728549E+02  0.37942535225E+02 -0.27480199967E+03  0.27858836937E+03  0.00000000000E+00 0.  1.
          1    1    1    2  501    0 -0.57040481055E+02  0.30835295055E+02 -0.52427694096E+03  0.52827146688E+03  0.00000000000E+00 0. -1.
<scales pt_clust_5="13000.00000" pt_clust_6="13000.00000" pt_clust_7="13000.00000" pt_clust_8="13000.00000" pt_clust_9="64.84162"></scales>
<clustering>
<clus scale="   64.842">  1  9  2 -1</clus>
<clus scale="   79.574">  5  6 -1 -1</clus>
<clus scale="   93.063">  7  8 -1 -1</clus>
<clus scale="  117.156">  1  5  2 -1</clus>
<clus scale="   64.842">  1  5  2 -1</clus>
</clustering>
</event>
<event>
 9    2  0.9254368E-005  0.1263597E+03  0.7546771E-02  0.1245400E+00
          2   -1    0    0  502    0 -0.00000000000E+00  0.00000000000E+00  0.32838072215E+03  0.32838072215E+03  0.00000000000E+00 0. -1.
         21   -1    0    0  501  502  0.00000000000E+00 -0.00000000000E+00 -0.18318884210E+03  0.18318884210E+03  0.00000000000E+00 0.  1.
         24    2    1    2    0    0  0.34875747191E+02 -0.43637039629E+02 -0.99611633522E+02  0.13981719027E+03  0.80658912660E+02 0.  0.
         23    2    1    2    0    0  0.81456430427E+02  0.33170849248E+02  0.28655038035E+02  0.12606379027E+03  0.85647607762E+02 0.  0.
        -13    1    3    3    0    0  0.55152129917E+02 -0.49793491166E+02 -0.89539242219E+02  0.11635473817E+03  0.00000000000E+00 0.  1.
         14    1    3    3    0    0 -0.20276382726E+02  0.61564515362E+01 -0.10072391303E+02  0.23462452100E+02  0.00000000000E+00 0. -1.
        -11    1    4    4    0    0  0.29886909106E+02 -0.29162960986E+02  0.72869899358E+01  0.42388746758E+02  0.00000000000E+00 0. -1.
         11    1    4    4    0    0  0.51569521321E+02  0.62333810234E+02  0.21368048100E+02  0.83675043515E+02  0.00000000000E+00 0.  1.
          1    1    1    2  501    0 -0.11633217762E+03  0.10466190382E+02  0.21614847554E+03  0.24568858372E+03  0.00000000000E+00 0. -1.
<scales pt_clust_5="13000.00000" pt_clust_6="13000.00000" pt_clust_7="13000.00000" pt_clust_8="13000.00000" pt_clust_9="92.90465"></scales>
<clustering>
<clus scale="   80.659">  5  6 -1 -1</clus>
<clus scale="   85.648">  7  8 -1 -1</clus>
<clus scale="   98.114">  1  5  2 -1</clus>
<clus scale="   92.905">  2  9  1 -1</clus>
<clus scale="   92.905">  2  5  1 -1</clus>
</clustering>
</event>
<event>
 9    2  0.9254368E-005  0.2846101E+03  0.7546771E-02  0.1129202E+00
         21   -1    0    0  501  502  0.00000000000E+00  0.00000000000E+00  0.19284773809E+03  0.19284773809E+03  0.00000000000E+00 0. -1.
          2   -1    0    0  502    0 -0.00000000000E+00 -0.00000000000E+00 -0.72850082322E+03  0.72850082322E+03  0.00000000000E+00 0. -1.
         24    2    1    2    0    0  0.24612619571E+02 -0.76691018169E+02 -0.28078970173E+03  0.30303230924E+03  0.80612843484E+02 0.  0.
         23    2    1    2    0    0  0.46446308124E+02 -0.22803582904E+03 -0.12075613779E+03  0.27788626523E+03  0.92093065575E+02 0.  0.
        -13    1    3    3    0    0 -0.67384515426E+01 -0.32333144268E+02 -0.24692184183E+02  0.41237639447E+02  0.00000000000E+00 0.  1.
         14    1    3    3    0    0  0.31351071114E+02 -0.44357873900E+02 -0.25609751755E+03  0.26179466979E+03  0.00000000000E+00 0. -1.
        -13    1    4    4    0    0  0.67190197846E+02 -0.12707802182E+03 -0.92783102827E+02  0.17109076681E+03  0.00000000000E+00 0.  1.
         13    1    4    4    0    0 -0.20743889723E+02 -0.10095780721E+03 -0.27973034968E+02  0.10679549842E+03  0.00000000000E+00 0. -1.
          1    1    1    2  501    0 -0.71058927695E+02  0.30472684720E+03 -0.13410724561E+03  0.34042998684E+03  0.00000000000E+00 0. -1.
<scales pt_clust_5="13000.00000" pt_clust_6="13000.00000" pt_clust_7="13000.00000" pt_clust_8="13000.00000" pt_clust_9="269.29886"></scales>
<clustering>
<clus scale="   80.613">  5  6 -1 -1</clus>
<clus scale="   92.093">  7  8 -1 -1</clus>
<clus scale="  113.955">  2  5  1 -1</clus>
<clus scale="  269.299">  1  9  2 -1</clus>
<clus scale="  269.299">  1  5  2 -1</clus>
</clustering>
</event>
<event>
 9    2  0.9254368E-005  0.1167094E+03  0.7546771E-02  0.1253701E+00
          2   -1    0    0  502    0 -0.00000000000E+00  0.00000000000E+00  0.36758991017E+03  0.36758991017E+03  0.00000000000E+00 0. -1.
         21   -1    0    0  501  502  0.00000000000E+00 -0.00000000000E+00 -0.71682137018E+02  0.71682137018E+02  0.00000000000E+00 0.  1.
         23    2    1    2    0    0 -0.82082414059E+01 -0.73431238681E+02  0.29043325239E+03  0.31339187212E+03  0.91670438943E+02 0.  0.
         24    2    1    2    0    0  0.28073943222E+02  0.61995874764E+02  0.70589782171E+01  0.10290357475E+03  0.76861445125E+02 0.  0.
        -11    1    4    4    0    0  0.41413023283E+02  0.52354274559E+02  0.31200778141E+02  0.73685121420E+02  0.00000000000E+00 0.  1.
         12    1    4    4    0    0 -0.13339080060E+02  0.96416002048E+01 -0.24141799924E+02  0.29218453329E+02  0.00000000000E+00 0. -1.
        -13    1    3    3    0    0 -0.39485091004E+02 -0.60763469598E+02  0.25216373011E+03  0.26236962178E+03  0.00000000000E+00 0. -1.
         13    1    3    3    0    0  0.31276849599E+02 -0.12667769083E+02  0.38269522279E+02  0.51022250341E+02  0.00000000000E+00 0.  1.
          1    1    1    2  501    0 -0.19865701817E+02  0.11435363917E+02 -0.15844574593E+01  0.22976600315E+02  0.00000000000E+00 0. -1.
<scales pt_clust_5="13000.00000" pt_clust_6="13000.00000" pt_clust_7="13000.00000" pt_clust_8="13000.00000" pt_clust_9="22.92190"></scales>
<clustering>
<clus scale="   22.922">  2  9  1 -1</clus>
<clus scale="   76.861">  5  6 -1 -1</clus>
<clus scale="   91.670">  7  8 -1 -1</clus>
<clus scale="  105.477">  2  5  1 -1</clus>
<clus scale="   22.922">  2  5  1 -1</clus>
</clustering>
</event>
<event>
 9    2  0.9254368E-005  0.2338385E+03  0.7546771E-02  0.1141656E+00
          2   -1    0    0  502    0 -0.00000000000E+00  0.00000000000E+00  0.11426405452E+04  0.11426405452E+04  0.00000000000E+00 0. -1.
         21   -1    0    0  501  502  0.00000000000E+00 -0.00000000000E+00 -0.23181289989E+03  0.23181289989E+03  0.00000000000E+00 0.  1.
         24    2    1    2    0    0 -0.12916887047E+03  0.17218641102E+01 -0.14972399276E+03  0.21319299015E+03  0.79664390574E+02 0.  0.
         23    2    1    2    0    0  0.21805609241E+03 -0.16362750082E+03  0.64556272968E+03  0.70702464887E+03  0.93862653409E+02 0.  0.
        -13    1    3    3    0    0 -0.42959037084E+02 -0.36516472221E+02 -0.44007493076E+02  0.71523360222E+02  0.00000000000E+00 0.  1.
         14    1    3    3    0    0 -0.86209833388E+02  0.38238336331E+02 -0.10571649968E+03  0.14166962993E+03  0.00000000000E+00 0. -1.
        -13    1    4    4    0    0  0.12847981469E+03 -0.37917223242E+02  0.30276463898E+03  0.33107583001E+03  0.00000000000E+00 0. -1.
         13    1    4    4    0    0  0.89576277723E+02 -0.12571027757E+03  0.34279809070E+03  0.37594881887E+03  0.00000000000E+00 0.  1.
          1    1    1    2  501    0 -0.88887221937E+02  0.16190563671E+03  0.41498890838E+03  0.45423580605E+03  0.00000000000E+00 0. -1.
<scales pt_clust_5="13000.00000" pt_clust_6="13000.00000" pt_clust_7="13000.00000" pt_clust_8="13000.00000" pt_clust_9="214.17344"></scales>
<clustering>
<clus scale="   79.664">  5  6 -1 -1</clus>
<clus scale="   93.863">  7  8 -1 -1</clus>
<clus scale="  151.770">  1  5  2 -1</clus>
<clus scale="  214.173">  2  9  1 -1</clus>
<clus scale="  214.173">  2  5  1 -1</clus>
</clustering>
</event>
<event>
 9    2  0.9254368E-005  0.1537807E+03  0.7546771E-02  0.1198976E+00
          4   -1    0    0  502    0 -0.00000000000E+00  0.00000000000E+00  0.11766678843E+03  0.11766678843E+03  0.00000000000E+00 0. -1.
         21   -1    0    0  501  502  0.00000000000E+00 -0.00000000000E+00 -0.23670727277E+03  0.23670727277E+03  0.00000000000E+00 0. -1.
         24    2    1    2    0    0 -0.26988827732E+02  0.10163350446E+03 -0.47090890183E+02  0.14063489621E+03  0.80640287967E+02 0.  0.
         23    2    1    2    0    0  0.46509895511E+02 -0.12863959683E+03 -0.57934037783E+02  0.17758896536E+03  0.97314806831E+02 0.  0.
        -11    1    3    3    0    0 -0.19701451984E+02  0.65213599159E+02  0.13611436026E+02  0.69471086909E+02  0.00000000000E+00 0.  1.
         12    1    3    3    0    0 -0.72873757484E+01  0.36419905299E+02 -0.60702326210E+02  0.71163809303E+02  0.00000000000E+00 0. -1.
        -11    1    4    4    0    0  0.38091654516E+02 -0.15392040480E+00 -0.21643458892E+02  0.43811381490E+02  0.00000000000E+00 0.  1.
         11    1    4    4    0    0  0.84182409946E+01 -0.12848567643E+03 -0.36290578891E+02  0.13377758387E+03  0.00000000000E+00 0. -1.
          3    1    1    2  501    0 -0.19521067778E+02  0.27006092375E+02 -0.14015556370E+02  0.36150199625E+02  0.00000000000E+00 0. -1.
<scales pt_clust_5="13000.00000" pt_clust_6="13000.00000" pt_clust_7="13000.00000" pt_clust_8="13000.00000" pt_clust_9="33.32268"></scales>
<clustering>
<clus scale="   33.323">  2  9  1 -1</clus>
<clus scale="   80.640">  5  6 -1 -1</clus>
<clus scale="   97.315">  7  8 -1 -1</clus>
<clus scale="  143.810">  1  5  2 -1</clus>
<clus scale="   33.323">  2  5  1 -1</clus>
</clustering>
</event>
<event>
 9    2  0.9254368E-005  0.1088123E+03  0.7546771E-02  0.1266055E+00
         21   -1    0    0  501  502  0.00000000000E+00  0.00000000000E+00  0.12482978626E+03  0.12482978626E+03  0.00000000000E+00 0.  1.
          2   -1    0    0  502    0 -0.00000000000E+00 -0.00000000000E+00 -0.16906453944E+03  0.16906453944E+03  0.00000000000E+00 0. -1.
         24    2    1    2    0    0 -0.41539077271E+02 -0.35437589470E+02 -0.69827079200E+02  0.12069703588E+03  0.81918470395E+02 0.  0.
         23    2    1    2    0    0  0.62895513541E+02  0.37481364263E+02 -0.24501667594E+02  0.11870249574E+03  0.90162367371E+02 0.  0.
        -13    1    3    3    0    0  0.21414470133E+02 -0.97772797867E+01 -0.42265718948E+00  0.23544710026E+02  0.00000000000E+00 0.  1.
         14    1    3    3    0    0 -0.62953547403E+02 -0.25660309684E+02 -0.69404422011E+02  0.97152325852E+02  0.00000000000E+00 0. -1.
        -13    1    4    4    0    0  0.22628577016E+02 -0.28416745494E+02 -0.19706609092E+02  0.41326920574E+02  0.00000000000E+00 0.  1.
         13    1    4    4    0    0  0.40266936525E+02  0.65898109757E+02 -0.47950585024E+01  0.77375575168E+02  0.00000000000E+00 0. -1.
          1    1    1    2  501    0 -0.21356436270E+02 -0.20437747926E+01  0.50093993613E+02  0.54494794079E+02  0.00000000000E+00 0. -1.
<scales pt_clust_5="13000.00000" pt_clust_6="13000.00000" pt_clust_7="13000.00000" pt_clust_8="13000.00000" pt_clust_9="21.45401"></scales>
<clustering>
<clus scale="   21.454">  1  9  2 -1</clus>
<clus scale="   81.918">  5  6 -1 -1</clus>
<clus scale="   90.162">  7  8 -1 -1</clus>
<clus scale="  102.086">  2  5  1 -1</clus>
<clus scale="   21.454">  1  5  2 -1</clus>
</clustering>
</event>
<event>
 9    2  0.9254368E-005  0.1096451E+03  0.7546771E-02  0.1262041E+00
         -3   -1    0    0    0  501 -0.00000000000E+00  0.00000000000E+00  0.12566811773E+03  0.12566811773E+03  0.00000000000E+00 0.  1.
         21   -1    0    0  501  502  0.00000000000E+00 -0.00000000000E+00 -0.38956354973E+03  0.38956354973E+03  0.00000000000E+00 0. -1.
         23    2    1    2    0    0  0.50377776399E+02 -0.14188054777E+02  0.61616656547E+02  0.12524903340E+03  0.95663403404E+02 0.  0.
         24    2    1    2    0    0 -0.74698984925E+02 -0.61898164211E+02 -0.20810298552E+03  0.24797724197E+03  0.93672508640E+02 0.  0.
        -13    1    4    4    0    0 -0.13159404442E+02  0.17347036604E+02 -0.63956380734E+01  0.22693474626E+02  0.00000000000E+00 0.  1.
         14    1    4    4    0    0 -0.61539580483E+02 -0.79245200815E+02 -0.20170734744E+03  0.22528376735E+03  0.00000000000E+00 0. -1.
        -11    1    3    3    0    0 -0.21328755740E+02  0.68548659264E+01 -0.73298466941E+01  0.23571840422E+02  0.00000000000E+00 0. -1.
         11    1    3    3    0    0  0.71706532140E+02 -0.21042920704E+02  0.68946503241E+02  0.10167719298E+03  0.00000000000E+00 0.  1.
         -4    1    1    2    0  502  0.24321208526E+02  0.76086218988E+02 -0.11740910303E+03  0.14200539208E+03  0.00000000000E+00 0.  1.
<scales pt_clust_5="13000.00000" pt_clust_6="13000.00000" pt_clust_7="13000.00000" pt_clust_8="13000.00000" pt_clust_9="79.87887"></scales>
<clustering>
<clus scale="   79.879">  2  9  1 -1</clus>
<clus scale="   93.673">  5  6 -1 -1</clus>
<clus scale="   95.663">  7  8 -1 -1</clus>
<clus scale="  107.912">  2  5  1 -1</clus>
<clus scale="   79.879">  2  5  1 -1</clus>
</clustering>
</event>
<event>
 9    2  0.9254368E-005  0.9641471E+02  0.7546771E-02  0.1297308E+00
         21   -1    0    0  501  502  0.00000000000E+00  0.00000000000E+00  0.14811744877E+03  0.14811744877E+03  0.00000000000E+00 0. -1.
          2   -1    0    0  502    0 -0.00000000000E+00 -0.00000000000E+00 -0.21393200473E+03  0.21393200473E+03  0.00000000000E+00 0. -1.
         24    2    1    2    0    0 -0.43669658178E+02 -0.11430632545E+02 -0.10944270058E+03  0.14043870464E+03  0.75548836168E+02 0.  0.
         23    2    1    2    0    0 -0.25208368914E+02  0.36462841384E+02 -0.40799152991E+02  0.10981288361E+03  0.91811207681E+02 0.  0.
        -13    1    3    3    0    0 -0.30274147296E+02 -0.17780841804E+02 -0.56122483734E+01  0.35555304268E+02  0.00000000000E+00 0.  1.
         14    1    3    3    0    0 -0.13395510882E+02  0.63502092593E+01 -0.10383045220E+03  0.10488340037E+03  0.00000000000E+00 0. -1.
        -11    1    4    4    0    0 -0.42137568673E+01  0.60568598055E+02 -0.47577231693E+02  0.77135619482E+02  0.00000000000E+00 0.  1.
         11    1    4    4    0    0 -0.20994612047E+02 -0.24105756672E+02  0.67780787016E+01  0.32677264123E+02  0.00000000000E+00 0. -1.
          1    1    1    2  501    0  0.68878027092E+02 -0.25032208839E+02  0.84427297600E+02  0.11179786525E+03  0.00000000000E+00 0. -1.
<scales pt_clust_5="13000.00000" pt_clust_6="13000.00000" pt_clust_7="13000.00000" pt_clust_8="13000.00000" pt_clust_9="73.28570"></scales>
<clustering>
<clus scale="   73.286">  1  9  2 -1</clus>
<clus scale="   75.549">  5  6 -1 -1</clus>
<clus scale="   81.081">  2  5  1 -1</clus>
<clus scale="   91.811">  7  8 -1 -1</clus>
<clus scale="   73.286">  1  5  2 -1</clus>
</clustering>
</event>
<event>
 9    2  0.9254368E-005  0.1125550E+03  0.7546771E-02  0.1261425E+00
         21   -1    0    0  501  502  0.00000000000E+00  0.00000000000E+00  0.20900610312E+03  0.20900610312E+03  0.00000000000E+00 0.  1.
          4   -1    0    0  502    0 -0.00000000000E+00 -0.00000000000E+00 -0.13291536590E+03  0.13291536590E+03  0.00000000000E+00 0. -1.
         23    2    1    2    0    0 -0.19182244154E+02  0.67500674519E+02 -0.48474431208E+02  0.12595233213E+03  0.92681820964E+02 0.  0.
         24    2    1    2    0    0  0.61269318438E+02 -0.29311359006E+02  0.33943072713E+02  0.10900133858E+03  0.78205335359E+02 0.  0.
        -13    1    4    4    0    0  0.47627327169E+02  0.88866424907E+01  0.45874566660E+02  0.66721889768E+02  0.00000000000E+00 0.  1.
         14    1    4    4    0    0  0.13641991270E+02 -0.38198001497E+02 -0.11931493946E+02  0.42279448813E+02  0.00000000000E+00 0. -1.
        -13    1    3    3    0    0  0.90850087713E+01  0.80476746922E+02 -0.49345507365E+02  0.94836824476E+02  0.00000000000E+00 0.  1.
         13    1    3    3    0    0 -0.28267252926E+02 -0.12976072404E+02  0.87107615797E+00  0.31115507655E+02  0.00000000000E+00 0. -1.
          3    1    1    2  501    0 -0.42087074284E+02 -0.38189315512E+02  0.90622095715E+02  0.10696779830E+03  0.00000000000E+00 0. -1.
<scales pt_clust_5="13000.00000" pt_clust_6="13000.00000" pt_clust_7="13000.00000" pt_clust_8="13000.00000" pt_clust_9="56.83085"></scales>
<clustering>
<clus scale="   56.831">  1  9  2 -1</clus>
<clus scale="   78.205">  5  6 -1 -1</clus>
<clus scale="   92.682">  7  8 -1 -1</clus>
<clus scale="  100.969">  1  5  2 -1</clus>
<clus scale="   56.831">  1  5  2 -1</clus>
</clustering>
</event>
<event>
 9    2  0.9254368E-005  0.1085965E+03  0.7546771E-02  0.1268866E+00
          2   -1    0    0  502    0 -0.00000000000E+00  0.00000000000E+00  0.53840231794E+03  0.53840231794E+03  0.00000000000E+00 0. -1.
         21   -1    0    0  501  502  0.00000000000E+00 -0.00000000000E+00 -0.10581740269E+03  0.10581740269E+03  0.00000000000E+00 0.  1.
         23    2    1    2    0    0 -0.59480939751E+02  0.30985873244E+02  0.44394996711E+03  0.45869478107E+03  0.93868111458E+02 0.  0.
         24    2    1    2    0    0 -0.52533654210E+01 -0.30711363815E+02  0.47096861720E+02  0.98298791190E+02  0.80459631182E+02 0.  0.
        -11    1    4    4    0    0  0.46493405714E+01  0.24467305727E+02 -0.27047938277E+00  0.24906597045E+02  0.00000000000E+00 0.  1.
         12    1    4    4    0    0 -0.99027059924E+01 -0.55178669541E+02  0.47367341102E+02  0.73392194145E+02  0.00000000000E+00 0. -1.
        -13    1    3    3    0    0 -0.47684193255E+02 -0.27729178218E+02  0.22988149106E+03  0.23640683057E+03  0.00000000000E+00 0.  1.
         13    1    3    3    0    0 -0.11796746496E+02  0.58715051462E+02  0.21406847605E+03  0.22228795049E+03  0.00000000000E+00 0. -1.
          1    1    1    2  501    0  0.64734305172E+02 -0.27450942886E+00 -0.58461913574E+02  0.87226148375E+02  0.00000000000E+00 0. -1.
<scales pt_clust_5="13000.00000" pt_clust_6="13000.00000" pt_clust_7="13000.00000" pt_clust_8="13000.00000" pt_clust_9="64.73489"></scales>
<clustering>
<clus scale="   64.735">  2  9  1 -1</clus>
<clus scale="   80.460">  5  6 -1 -1</clus>
<clus scale="   93.868">  7  8 -1 -1</clus>
<clus scale="   97.241">  2  5  1 -1</clus>
<clus scale="   64.735">  2  5  1 -1</clus>
</clustering>
</event>
<event>
 9    2  0.9254368E-005  0.1294730E+03  0.7546771E-02  0.1250156E+00
         -3   -1    0    0    0  501 -0.00000000000E+00  0.00000000000E+00  0.81355089951E+02  0.81355089951E+02  0.00000000000E+00 0.  1.
         21   -1    0    0  501  502  0.00000000000E+00 -0.00000000000E+00 -0.70370883865E+03  0.70370883865E+03  0.00000000000E+00 0.  1.
         24    2    1    2    0    0  0.25558114131E+02  0.25904701229E+02  0.84875299333E+01  0.83342049208E+02  0.74495558647E+02 0.  0.
         23    2    1    2    0    0 -0.11408819099E+03 -0.25063667815E+02 -0.14381422095E+03  0.20671315547E+03  0.91670582676E+02 0.  0.
        -11    1    3    3    0    0  0.48385075181E+02  0.20852800448E+02 -0.98861523569E+01  0.53606816686E+02  0.00000000000E+00 0.  1.
         12    1    3    3    0    0 -0.22826961050E+02  0.50519007809E+01  0.18373682290E+02  0.29735232522E+02  0.00000000000E+00 0. -1.
        -13    1    4    4    0    0 -0.29865506949E+01  0.25889179902E+02 -0.29440176417E+02  0.39317847201E+02  0.00000000000E+00 0. -1.
         13    1    4    4    0    0 -0.11110164030E+03 -0.50952847717E+02 -0.11437404453E+03  0.16739530826E+03  0.00000000000E+00 0.  1.
         -4    1    1    2    0  502  0.88530076859E+02 -0.84103341422E+00 -0.48702705769E+03  0.49500872393E+03  0.00000000000E+00 0.  1.
<scales pt_clust_5="13000.00000" pt_clust_6="13000.00000" pt_clust_7="13000.00000" pt_clust_8="13000.00000" pt_clust_9="91.43168"></scales>
<clustering>
<clus scale="   74.496">  5  6 -1 -1</clus>
<clus scale="   82.909">  1  5  2 -1</clus>
<clus scale="   91.432">  2  9  1 -1</clus>
<clus scale="   91.671">  7  8 -1 -1</clus>
<clus scale="   91.432">  2  5  1 -1</clus>
</clustering>
</event>
<event>
 9    2  0.9254368E-005  0.2122921E+03  0.7546771E-02  0.1177613E+00
         21   -1    0    0  501  502  0.00000000000E+00  0.00000000000E+00  0.16546057626E+03  0.16546057626E+03  0.00000000000E+00 0. -1.
          2   -1    0    0  502    0 -0.00000000000E+00 -0.00000000000E+00 -0.57851438329E+03  0.57851438329E+03  0.00000000000E+00 0. -1.
         24    2    1    2    0    0 -0.35410167991E+02 -0.10740601446E+02 -0.25651767735E+03  0.27111469865E+03  0.79577763938E+02 0.  0.
         23    2    1    2    0    0  0.11294675162E+03  0.17699868700E+03 -0.17400393156E+03  0.28858113317E+03  0.94425623230E+02 0.  0.
        -11    1    3    3    0    0 -0.47272393914E+02  0.20962894348E+02 -0.18322909414E+03  0.19038650978E+03  0.00000000000E+00 0.  1.
         12    1    3    3    0    0  0.11862225923E+02 -0.31703495794E+02 -0.73288583210E+02  0.80728188871E+02  0.00000000000E+00 0. -1.
        -11    1    4    4    0    0  0.16801924885E+02  0.13746580097E+02 -0.68217473652E+02  0.71588384922E+02  0.00000000000E+00 0.  1.
         11    1    4    4    0    0  0.96144826733E+02  0.16325210690E+03 -0.10578645791E+03  0.21699274825E+03  0.00000000000E+00 0. -1.
          1    1    1    2  501    0 -0.77536583627E+02 -0.16625808555E+03  0.17467801883E+02  0.18427912773E+03  0.00000000000E+00 0. -1.
<scales pt_clust_5="13000.00000" pt_clust_6="13000.00000" pt_clust_7="13000.00000" pt_clust_8="13000.00000" pt_clust_9="190.13612"></scales>
<clustering>
<clus scale="   79.578">  5  6 -1 -1</clus>
<clus scale="   87.760">  2  5  1 -1</clus>
<clus scale="   94.426">  7  8 -1 -1</clus>
<clus scale="  190.136">  1  9  2 -1</clus>
<clus scale="  190.136">  1  5  2 -1</clus>
</clustering>
</event>
<event>
 9    2  0.9254368E-005  0.1143618E+03  0.7546771E-02  0.1255650E+00
          2   -1    0    0  502    0 -0.00000000000E+00  0.00000000000E+00  0.81346459880E+03  0.81346459880E+03  0.00000000000E+00 0. -1.
         21   -1    0    0  501  502  0.00000000000E+00 -0.00000000000E+00 -0.52843181571E+02  0.52843181571E+02  0.00000000000E+00 0. -1.
         24    2    1    2    0    0  0.67961133026E+02 -0.20223398795E+02  0.21333264120E+03  0.23904848656E+03  0.81275221706E+02 0.  0.
         23    2    1    2    0    0 -0.20093795778E+01 -0.66486279164E+02  0.58494022606E+02  0.12647140158E+03  0.90271821812E+02 0.  0.
        -13    1    3    3    0    0  0.43319661471E+02  0.16567556085E+02  0.43673552976E+02  0.63706013956E+02  0.00000000000E+00 0.  1.
         14    1    3    3    0    0  0.24641471555E+02 -0.36790954880E+02  0.16965908822E+03  0.17534247260E+03  0.00000000000E+00 0. -1.
        -13    1    4    4    0    0 -0.37840317051E+02 -0.47020313350E+02  0.69596226911E+01  0.60755541394E+02  0.00000000000E+00 0. -1.
         13    1    4    4    0    0  0.35830937473E+02 -0.19465965815E+02  0.51534399915E+02  0.65715860185E+02  0.00000000000E+00 0.  1.
          1    1    1    2  501    0 -0.65951753448E+02  0.86709677959E+02  0.48879475342E+03  0.50078789223E+03  0.00000000000E+00 0. -1.
<scales pt_clust_5="13000.00000" pt_clust_6="13000.00000" pt_clust_7="13000.00000" pt_clust_8="13000.00000" pt_clust_9="70.21128"></scales>
<clustering>
<clus scale="   81.275">  5  6 -1 -1</clus>
<clus scale="   90.272">  7  8 -1 -1</clus>
<clus scale="  107.858">  1  5  2 -1</clus>
<clus scale="   70.211">  2  9  1 -1</clus>
<clus scale="   70.211">  2  5  1 -1</clus>
</clustering>
</event>
<event>
 9    2  0.9254368E-005  0.1562826E+03  0.7546771E-02  0.1194888E+00
         21   -1    0    0  501  502  0.00000000000E+00  0.00000000000E+00  0.10053604287E+03  0.10053604287E+03  0.00000000000E+00 0. -1.
          2   -1    0    0  502    0 -0.00000000000E+00 -0.00000000000E+00 -0.44703431907E+03  0.44703431907E+03  0.00000000000E+00 0. -1.
         24    2    1    2    0    0 -0.11315621807E+03 -0.11685028474E+03 -0.15925988179E+03  0.24059694185E+03  0.77877209414E+02 0.  0.
         23    2    1    2    0    0  0.92739166039E+02  0.27735477659E+02 -0.48059640685E+02  0.14045305994E+03  0.89707989307E+02 0.  0.
        -11    1    3    3    0    0 -0.30876517748E+02 -0.59101593830E+02 -0.11004954009E+03  0.12867501318E+03  0.00000000000E+00 0.  1.
         12    1    3    3    0    0 -0.82279700326E+02 -0.57748690907E+02 -0.49210341699E+02  0.11192192867E+03  0.00000000000E+00 0. -1.
        -13    1    4    4    0    0  0.10174318653E+03  0.66113302107E+01 -0.19498395311E+02  0.10380545800E+03  0.00000000000E+00 0. -1.
         13    1    4    4    0    0 -0.90040204882E+01  0.21124147448E+02 -0.28561245374E+02  0.36647601936E+02  0.00000000000E+00 0.  1.
          1    1    1    2  501    0  0.20417052034E+02  0.89114807079E+02 -0.13917875373E+03  0.16652036015E+03  0.00000000000E+00 0. -1.
<scales pt_clust_5="13000.00000" pt_clust_6="13000.00000" pt_clust_7="13000.00000" pt_clust_8="13000.00000" pt_clust_9="91.42381"></scales>
<clustering>
<clus scale="   77.877">  5  6 -1 -1</clus>
<clus scale="   89.708">  7  8 -1 -1</clus>
<clus scale="   91.424">  1  9  2 -1</clus>
<clus scale="  149.805">  2  5  1 -1</clus>
<clus scale="   91.424">  1  5  2 -1</clus>
</clustering>
</event>
<event>
 9    2  0.9254368E-005  0.1043277E+03  0.7546771E-02  0.1276288E+00
          2   -1    0    0  502    0 -0.00000000000E+00  0.00000000000E+00  0.81208244433E+02  0.81208244433E+02  0.00000000000E+00 0. -1.
         21   -1    0    0  501  502  0.00000000000E+00 -0.00000000000E+00 -0.37656072583E+03  0.37656072583E+03  0.00000000000E+00 0.  1.
         23    2    1    2    0    0 -0.45157229801E+02  0.62977121128E+02 -0.12694420438E+03  0.17422747618E+03  0.90747392479E+02 0.  0.
         24    2    1    2    0    0  0.34997673384E+02  0.99784513236E+01 -0.18784568393E+03  0.20736049300E+03  0.79924754958E+02 0.  0.
        -11    1    4    4    0    0  0.42205577880E+02 -0.19226433214E+01 -0.18874689496E+03  0.19341767685E+03  0.00000000000E+00 0.  1.
         12    1    4    4    0    0 -0.72079044958E+01  0.11901094645E+02  0.90121103072E+00  0.13942816154E+02  0.00000000000E+00 0. -1.
        -13    1    3    3    0    0 -0.57083820568E+02  0.73057595091E+01 -0.88366206905E+02  0.10545389142E+03  0.00000000000E+00 0.  1.
         13    1    3    3    0    0  0.11926590767E+02  0.55671361619E+02 -0.38577997474E+02  0.68773584761E+02  0.00000000000E+00 0. -1.
          1    1    1    2  501    0  0.10159556417E+02 -0.72955572451E+02  0.19437406908E+02  0.76181001080E+02  0.00000000000E+00 0. -1.
<scales pt_clust_5="13000.00000" pt_clust_6="13000.00000" pt_clust_7="13000.00000" pt_clust_8="13000.00000" pt_clust_9="73.65961"></scales>
<clustering>
<clus scale="   73.660">  2  9  1 -1</clus>
<clus scale="   79.925">  5  6 -1 -1</clus>
<clus scale="   90.747">  7  8 -1 -1</clus>
<clus scale="   95.064">  2  5  1 -1</clus>
<clus scale="   73.660">  2  5  1 -1</clus>
</clustering>
</event>
<event>
 9    2  0.9254368E-005  0.1131208E+03  0.7546771E-02  0.1259073E+00
         21   -1    0    0  501  502  0.00000000000E+00  0.00000000000E+00  0.34781648278E+02  0.34781648278E+02  0.00000000000E+00 0.  1.
          2   -1    0    0  502    0 -0.00000000000E+00 -0.00000000000E+00 -0.63168407395E+03  0.63168407395E+03  0.00000000000E+00 0. -1.
         23    2    1    2    0    0  0.42999973613E+02  0.41732606726E+02 -0.27171868106E+03  0.29246012973E+03  0.90062631816E+02 0.  0.
         24    2    1    2    0    0 -0.43340626657E+02 -0.78192344380E+02 -0.13326501476E+03  0.17865404431E+03  0.78519110721E+02 0.  0.
        -13    1    4    4    0    0  0.17909299895E+02 -0.44323450179E+02 -0.66718061259E+02  0.82076860056E+02  0.00000000000E+00 0.  1.
         14    1    4    4    0    0 -0.61249926552E+02 -0.33868894201E+02 -0.66546953503E+02  0.96577184250E+02  0.00000000000E+00 0. -1.
        -13    1    3    3    0    0  0.70955264825E+02  0.32718877113E+02 -0.18225011855E+03  0.19829341956E+03  0.00000000000E+00 0. -1.
         13    1    3    3    0    0 -0.27955291211E+02  0.90137296127E+01 -0.89468562507E+02  0.94166710176E+02  0.00000000000E+00 0.  1.
          1    1    1    2  501    0  0.34065304399E+00  0.36459737654E+02 -0.19191872985E+03  0.19535154819E+03  0.00000000000E+00 0. -1.
<scales pt_clust_5="13000.00000" pt_clust_6="13000.00000" pt_clust_7="13000.00000" pt_clust_8="13000.00000" pt_clust_9="36.46135"></scales>
<clustering>
<clus scale="   36.461">  1  9  2 -1</clus>
<clus scale="   78.519">  5  6 -1 -1</clus>
<clus scale="   90.063">  7  8 -1 -1</clus>
<clus scale="  104.165">  1  5  2 -1</clus>
<clus scale="   36.461">  1  5  2 -1</clus>
</clustering>
</event>
<event>
 9    2  0.9254368E-005  0.9073813E+02  0.7546771E-02  0.1307019E+00
          2   -1    0    0  502    0 -0.00000000000E+00  0.00000000000E+00  0.23638654949E+03  0.23638654949E+03  0.00000000000E+00 0. -1.
         21   -1    0    0  501  502  0.00000000000E+00 -0.00000000000E+00 -0.93536596893E+02  0.93536596893E+02  0.00000000000E+00 0. -1.
         23    2    1    2    0    0  0.13843368442E+01  0.13767542324E+02  0.19008744513E+03  0.21084160421E+03  0.90163649335E+02 0.  0.
         24    2    1    2    0    0  0.96193082913E+01  0.89101697181E+01 -0.25163731078E+02  0.85576172836E+02  0.80735034396E+02 0.  0.
        -11    1    4    4    0    0 -0.35763495871E+02  0.37967618541E+01 -0.84489738395E+01  0.36943581262E+02  0.00000000000E+00 0.  1.
         12    1    4    4    0    0  0.45382804162E+02  0.51134078640E+01 -0.16714757239E+02  0.48632591574E+02  0.00000000000E+00 0. -1.
        -11    1    3    3    0    0  0.80920629385E+01  0.33821293516E+02  0.18610219452E+03  0.18932350140E+03  0.00000000000E+00 0. -1.
         11    1    3    3    0    0 -0.67077260943E+01 -0.20053751192E+02  0.39852506097E+01  0.21518102813E+02  0.00000000000E+00 0.  1.
          1    1    1    2  501    0 -0.11003645135E+02 -0.22677712042E+02 -0.22073761452E+02  0.33505369336E+02  0.00000000000E+00 0. -1.
<scales pt_clust_5="13000.00000" pt_clust_6="13000.00000" pt_clust_7="13000.00000" pt_clust_8="13000.00000" pt_clust_9="25.20633"></scales>
<clustering>
<clus scale="   25.206">  2  9  1 -1</clus>
<clus scale="   80.735">  5  6 -1 -1</clus>
<clus scale="   81.376">  2  5  1 -1</clus>
<clus scale="   90.164">  7  8 -1 -1</clus>
<clus scale="   25.206">  2  5  1 -1</clus>
</clustering>
</event>
<event>
 9    2  0.9254368E-005  0.9650818E+02  0.7546771E-02  0.1290161E+00
         21   -1    0    0  501  502  0.00000000000E+00  0.00000000000E+00  0.26296391576E+03  0.26296391576E+03  0.00000000000E+00 0. -1.
          2   -1    0    0  502    0 -0.00000000000E+00 -0.00000000000E+00 -0.75337416685E+02  0.75337416685E+02  0.00000000000E+00 0. -1.
         24    2    1    2    0    0 -0.31842136525E+02 -0.11981669420E+02 -0.20082128145E+01  0.93011715715E+02  0.86542846504E+02 0.  0.
         23    2    1    2    0    0  0.18116220631E+02  0.27808865569E+02  0.59869426330E+02  0.11384407576E+03  0.90964800457E+02 0.  0.
        -13    1    3    3    0    0 -0.30318470038E+02  0.14271608001E+02  0.34449762011E+02  0.48059073264E+02  0.00000000000E+00 0.  1.
         14    1    3    3    0    0 -0.15236664872E+01 -0.26253277422E+02 -0.36457974826E+02  0.44952642451E+02  0.00000000000E+00 0. -1.
        -13    1    4    4    0    0  0.44414902879E+02 -0.96203808481E+01  0.10702958306E+02  0.46688206669E+02  0.00000000000E+00 0.  1.
         13    1    4    4    0    0 -0.26298682248E+02  0.37429246417E+02  0.49166468023E+02  0.67155869090E+02  0.00000000000E+00 0. -1.
          1    1    1    2  501    0  0.13725915894E+02 -0.15827196149E+02  0.12976528556E+03  0.13144554097E+03  0.00000000000E+00 0. -1.
<scales pt_clust_5="13000.00000" pt_clust_6="13000.00000" pt_clust_7="13000.00000" pt_clust_8="13000.00000" pt_clust_9="20.94996"></scales>
<clustering>
<clus scale="   20.950">  1  9  2 -1</clus>
<clus scale="   86.543">  5  6 -1 -1</clus>
<clus scale="   90.965">  7  8 -1 -1</clus>
<clus scale="   92.352">  2  5  1 -1</clus>
<clus scale="   20.950">  1  5  2 -1</clus>
</clustering>
</event>
<event>
 9    2  0.9254368E-005  0.8818724E+02  0.7546771E-02  0.1308341E+00
         21   -1    0    0  501  502  0.00000000000E+00  0.00000000000E+00  0.99883584330E+02  0.99883584330E+02  0.00000000000E+00 0. -1.
          2   -1    0    0  502    0 -0.00000000000E+00 -0.00000000000E+00 -0.20653705434E+03  0.20653705434E+03  0.00000000000E+00 0. -1.
         24    2    1    2    0    0  0.13856725278E+02  0.33226377332E+02 -0.13739529484E+03  0.16335114997E+03  0.80685377647E+02 0.  0.
         23    2    1    2    0    0 -0.41906359799E+02 -0.15750941543E+02 -0.92775605087E+01  0.91168389912E+02  0.78875642876E+02 0.  0.
        -13    1    3    3    0    0  0.47656860078E+02  0.15123108798E+02 -0.76507114829E+02  0.91395970106E+02  0.00000000000E+00 0.  1.
         14    1    3    3    0    0 -0.33800134800E+02  0.18103268533E+02 -0.60888180013E+02  0.71955179864E+02  0.00000000000E+00 0. -1.
        -13    1    4    4    0    0 -0.32131809788E+02  0.24780160367E+02  0.14597812803E+02  0.43123145603E+02  0.00000000000E+00 0. -1.
         13    1    4    4    0    0 -0.97745500107E+01 -0.40531101910E+02 -0.23875373312E+02  0.48045244309E+02  0.00000000000E+00 0.  1.
          1    1    1    2  501    0  0.28049634521E+02 -0.17475435789E+02  0.40019385338E+02  0.51901098790E+02  0.00000000000E+00 0. -1.
<scales pt_clust_5="13000.00000" pt_clust_6="13000.00000" pt_clust_7="13000.00000" pt_clust_8="13000.00000" pt_clust_9="33.04804"></scales>
<clustering>
<clus scale="   33.048">  1  9  2 -1</clus>
<clus scale="   78.876">  7  8 -1 -1</clus>
<clus scale="   80.685">  5  6 -1 -1</clus>
<clus scale="   86.535">  1  7  2 -1</clus>
<clus scale="   33.048">  1  5  2 -1</clus>
</clustering>
</event>
<event>
 9    2  0.9254368E-005  0.1499199E+03  0.7546771E-02  0.1202348E+00
          2   -1    0    0  502    0 -0.00000000000E+00  0.00000000000E+00  0.46409753483E+03  0.46409753483E+03  0.00000000000E+00 0. -1.
         21   -1    0    0  501  502  0.00000000000E+00 -0.00000000000E+00 -0.89594736642E+02  0.89594736642E+02  0.00000000000E+00 0.  1.
         24    2    1    2    0    0 -0.86498019620E+02  0.76344322208E+02  0.25932007748E+03  0.29487970740E+03  0.79979849463E+02 0.  0.
         23    2    1    2    0    0  0.13519459691E+03 -0.40562322930E+02  0.10506265034E+03  0.19754165795E+03  0.89786775499E+02 0.  0.
        -13    1    3    3    0    0 -0.45038570523E+02 -0.54800835388E+01  0.57923428404E+02  0.73577358667E+02  0.00000000000E+00 0.  1.
         14    1    3    3    0    0 -0.41459449097E+02  0.81824405747E+02  0.20139664908E+03  0.22130234874E+03  0.00000000000E+00 0. -1.
        -11    1    4    4    0    0  0.71614204167E+02  0.19630597640E+02  0.23506666408E+02  0.77887855073E+02  0.00000000000E+00 0.  1.
         11    1    4    4    0    0  0.63580392745E+02 -0.60192920570E+02  0.81555983936E+02  0.11965380288E+03  0.00000000000E+00 0. -1.
          1    1    1    2  501    0 -0.48696577292E+02 -0.35781999278E+02  0.10120070365E+02  0.61270906118E+02  0.00000000000E+00 0. -1.
<scales pt_clust_5="13000.00000" pt_clust_6="13000.00000" pt_clust_7="13000.00000" pt_clust_8="13000.00000" pt_clust_9="60.42936"></scales>
<clustering>
<clus scale="   60.429">  2  9  1 -1</clus>
<clus scale="   79.980">  5  6 -1 -1</clus>
<clus scale="   89.787">  7  8 -1 -1</clus>
<clus scale="  144.261">  1  5  2 -1</clus>
<clus scale="   60.429">  2  5  1 -1</clus>
</clustering>
</event>
<event>
 9    2  0.9254368E-005  0.1009342E+03  0.7546771E-02  0.1289084E+00
         -3   -1    0    0    0  501 -0.00000000000E+00  0.00000000000E+00  0.74240607577E+02  0.74240607577E+02  0.00000000000E+00 0.  1.
         21   -1    0    0  501  502  0.00000000000E+00 -0.00000000000E+00 -0.30792958750E+03  0.30792958750E+03  0.00000000000E+00 0. -1.
         23    2    1    2    0    0  0.11890769902E+02 -0.58146296768E+01  0.48247127946E+01  0.99845300887E+02  0.98846375394E+02 0.  0.
         24    2    1    2    0    0 -0.53599266371E+02 -0.23753047862E+02 -0.17150629903E+03  0.19804063088E+03  0.79803460038E+02 0.  0.
        -13    1    4    4    0    0 -0.19820743886E+02  0.14514855381E+02 -0.66329795499E+01  0.25446794152E+02  0.00000000000E+00 0.  1.
         14    1    4    4    0    0 -0.33778522485E+02 -0.38267903243E+02 -0.16487331948E+03  0.17259383673E+03  0.00000000000E+00 0. -1.
        -11    1    3    3    0    0  0.21532488730E+02 -0.49956682264E+02  0.53262375214E+01  0.54659738198E+02  0.00000000000E+00 0. -1.
         11    1    3    3    0    0 -0.96417188274E+01  0.44142052587E+02 -0.50152472678E+00  0.45185562690E+02  0.00000000000E+00 0.  1.
         -4    1    1    2    0  502  0.41708496468E+02  0.29567677539E+02 -0.67007393681E+02  0.84284263304E+02  0.00000000000E+00 0.  1.
<scales pt_clust_5="13000.00000" pt_clust_6="13000.00000" pt_clust_7="13000.00000" pt_clust_8="13000.00000" pt_clust_9="51.12579"></scales>
<clustering>
<clus scale="   51.126">  2  9  1 -1</clus>
<clus scale="   79.803">  5  6 -1 -1</clus>
<clus scale="   82.375">  2  5  1 -1</clus>
<clus scale="   98.846">  7  8 -1 -1</clus>
<clus scale="   51.126">  2  5  1 -1</clus>
</clustering>
</event>
<event>
 9    2  0.9254368E-005  0.3512808E+03  0.7546771E-02  0.1062589E+00
         21   -1    0    0  501  502  0.00000000000E+00  0.00000000000E+00  0.47889152043E+03  0.47889152043E+03  0.00000000000E+00 0.  1.
         -3   -1    0    0    0  501 -0.00000000000E+00 -0.00000000000E+00 -0.70723859776E+03  0.70723859776E+03  0.00000000000E+00 0.  1.
         23    2    1    2    0    0 -0.16163510425E+03  0.33109657625E+03 -0.55868725649E+03  0.67605790506E+03  0.95770510624E+02 0.  0.
         24    2    1    2    0    0  0.12201151743E+03 -0.18388618675E+03  0.16962814855E+03  0.28855633516E+03  0.76092770449E+02 0.  0.
        -11    1    4    4    0    0  0.54801380829E+02 -0.95152595955E+02  0.13053441917E+03  0.17057679339E+03  0.00000000000E+00 0.  1.
         12    1    4    4    0    0  0.67210136597E+02 -0.88733590798E+02  0.39093729389E+02  0.11797954176E+03  0.00000000000E+00 0. -1.
        -11    1    3    3    0    0 -0.73398483864E+02  0.24918612792E+03 -0.36502656788E+03  0.44802394919E+03  0.00000000000E+00 0.  1.
         11    1    3    3    0    0 -0.88236620390E+02  0.81910448331E+02 -0.19366068860E+03  0.22803395588E+03  0.00000000000E+00 0. -1.
         -4    1    1    2    0  502  0.39623586828E+02 -0.14721038950E+03  0.16071203061E+03  0.22151587797E+03  0.00000000000E+00 0.  1.
<scales pt_clust_5="13000.00000" pt_clust_6="13000.00000" pt_clust_7="13000.00000" pt_clust_8="13000.00000" pt_clust_9="152.44975"></scales>
<clustering>
<clus scale="   76.093">  5  6 -1 -1</clus>
<clus scale="   95.771">  7  8 -1 -1</clus>
<clus scale="  152.450">  1  9  2 -1</clus>
<clus scale="  346.434">  1  5  2 -1</clus>
<clus scale="  152.450">  1  5  2 -1</clus>
</clustering>
</event>
<event>
 9    2  0.9254368E-005  0.1033484E+03  0.7546771E-02  0.1274380E+00
          2   -1    0    0  502    0 -0.00000000000E+00  0.00000000000E+00  0.99409248441E+03  0.99409248441E+03  0.00000000000E+00 0. -1.
         21   -1    0    0  501  502  0.00000000000E+00 -0.00000000000E+00 -0.23817846665E+02  0.23817846665E+02  0.00000000000E+00 0. -1.
         24    2    1    2    0    0  0.46956682890E+02 -0.37610378336E+02  0.58596806280E+03  0.59549935679E+03  0.87415345864E+02 0.  0.
         23    2    1    2    0    0 -0.41336807155E+02  0.99754006089E+01  0.38136593349E+03  0.39405744947E+03  0.89627328476E+02 0.  0.
        -13    1    3    3    0    0  0.68510307856E+02 -0.87287787492E+01  0.34423810029E+03  0.35109788315E+03  0.00000000000E+00 0.  1.
         14    1    3    3    0    0 -0.21553624966E+02 -0.28881599587E+02  0.24172996251E+03  0.24440147364E+03  0.00000000000E+00 0. -1.
        -13    1    4    4    0    0  0.13346593516E+02  0.32437466334E+02  0.86824553959E+02  0.93641998862E+02  0.00000000000E+00 0.  1.
         13    1    4    4    0    0 -0.54683400672E+02 -0.22462065725E+02  0.29454137953E+03  0.30041545060E+03  0.00000000000E+00 0. -1.
          1    1    1    2  501    0 -0.56198757346E+01  0.27634977727E+02  0.29406414540E+01  0.28353524815E+02  0.00000000000E+00 0. -1.
<scales pt_clust_5="13000.00000" pt_clust_6="13000.00000" pt_clust_7="13000.00000" pt_clust_8="13000.00000" pt_clust_9="28.20062"></scales>
<clustering>
<clus scale="   28.201">  2  9  1 -1</clus>
<clus scale="   87.415">  5  6 -1 -1</clus>
<clus scale="   89.627">  7  8 -1 -1</clus>
<clus scale="  101.436">  1  5  2 -1</clus>
<clus scale="   28.201">  2  5  1 -1</clus>
</clustering>
</event>
<event>
 9    2  0.9254368E-005  0.1031348E+03  0.7546771E-02  0.1278741E+00
         21   -1    0    0  501  502  0.00000000000E+00  0.00000000000E+00  0.13917655866E+03  0.13917655866E+03  0.00000000000E+00 0. -1.
          2   -1    0    0  502    0 -0.00000000000E+00 -0.00000000000E+00 -0.30233229112E+03  0.30233229112E+03  0.00000000000E+00 0. -1.
         23    2    1    2    0    0  0.42898904738E+02 -0.29759536603E+02 -0.13956766321E+03  0.17469930357E+03  0.91185349747E+02 0.  0.
         24    2    1    2    0    0  0.71904759291E+01  0.44265319618E+02  0.97963287850E+02  0.13454429677E+03  0.80586851052E+02 0.  0.
        -13    1    4    4    0    0 -0.33005603699E+02  0.12794791647E+01  0.29757496764E+02  0.44458020155E+02  0.00000000000E+00 0.  1.
         14    1    4    4    0    0  0.40196079628E+02  0.42985840453E+02  0.68205791086E+02  0.90086276616E+02  0.00000000000E+00 0. -1.
        -11    1    3    3    0    0  0.29464863388E+02 -0.61863051827E+02 -0.10685054427E+03  0.12693405440E+03  0.00000000000E+00 0. -1.
         11    1    3    3    0    0  0.13434041350E+02  0.32103515225E+02 -0.32717118943E+02  0.47765249175E+02  0.00000000000E+00 0.  1.
          1    1    1    2  501    0 -0.50089380667E+02 -0.14505783015E+02 -0.12155135710E+03  0.13226524944E+03  0.00000000000E+00 0. -1.
<scales pt_clust_5="13000.00000" pt_clust_6="13000.00000" pt_clust_7="13000.00000" pt_clust_8="13000.00000" pt_clust_9="52.14755"></scales>
<clustering>
<clus scale="   52.148">  1  9  2 -1</clus>
<clus scale="   80.587">  5  6 -1 -1</clus>
<clus scale="   91.185">  7  8 -1 -1</clus>
<clus scale="   93.895">  1  5  2 -1</clus>
<clus scale="   52.148">  1  5  2 -1</clus>
</clustering>
</event>
<event>
 9    2  0.9254368E-005  0.8965082E+02  0.7546771E-02  0.1304214E+00
          4   -1    0    0  502    0 -0.00000000000E+00  0.00000000000E+00  0.16484127334E+03  0.16484127334E+03  0.00000000000E+00 0. -1.
         21   -1    0    0  501  502  0.00000000000E+00 -0.00000000000E+00 -0.31136920936E+03  0.31136920936E+03  0.00000000000E+00 0.  1.
         23    2    1    2    0    0 -0.98502119310E+01  0.38560513678E+02  0.41042022736E+02  0.96968527530E+02  0.78323098833E+02 0.  0.
         24    2    1    2    0    0  0.22068811267E+02 -0.78625993289E+02 -0.26684256651E+03  0.28958325137E+03  0.77359064888E+02 0.  0.
        -11    1    4    4    0    0  0.13662487667E+00 -0.47210486505E+02 -0.23520211372E+03  0.23989348261E+03  0.00000000000E+00 0.  1.
         12    1    4    4    0    0  0.21932186391E+02 -0.31415506784E+02 -0.31640452797E+02  0.49689768762E+02  0.00000000000E+00 0. -1.
        -11    1    3    3    0    0  0.17795413257E+02  0.26569501408E+02  0.55107179171E+02  0.63713549063E+02  0.00000000000E+00 0.  1.
         11    1    3    3    0    0 -0.27645625188E+02  0.11991012270E+02 -0.14065156435E+02  0.33254978467E+02  0.00000000000E+00 0. -1.
          3    1    1    2  501    0 -0.12218599336E+02  0.40065479611E+02  0.79272607757E+02  0.89658703799E+02  0.00000000000E+00 0. -1.
<scales pt_clust_5="13000.00000" pt_clust_6="13000.00000" pt_clust_7="13000.00000" pt_clust_8="13000.00000" pt_clust_9="41.88721"></scales>
<clustering>
<clus scale="   41.887">  2  9  1 -1</clus>
<clus scale="   77.359">  5  6 -1 -1</clus>
<clus scale="   78.323">  7  8 -1 -1</clus>
<clus scale="   88.810">  2  5  1 -1</clus>
<clus scale="   41.887">  2  5  1 -1</clus>
</clustering>
</event>
<event>
 9    2  0.9254368E-005  0.1199807E+03  0.7546771E-02  0.1248689E+00
         21   -1    0    0  501  502  0.00000000000E+00  0.00000000000E+00  0.22677195729E+03  0.22677195729E+03  0.00000000000E+00 0. -1.
         -3   -1    0    0    0  501 -0.00000000000E+00 -0.00000000000E+00 -0.15729802962E+03  0.15729802962E+03  0.00000000000E+00 0.  1.
         23    2    1    2    0    0  0.62330987948E+02 -0.23664479458E+02 -0.10411199125E+03  0.15743611201E+03  0.97476474071E+02 0.  0.
         24    2    1    2    0    0 -0.85829326472E+02  0.25209738561E+02  0.13326653627E+03  0.17994113075E+03  0.81342711079E+02 0.  0.
        -11    1    4    4    0    0 -0.33864025054E+02  0.51909269047E+02  0.76809418883E+02  0.98696662735E+02  0.00000000000E+00 0.  1.
         12    1    4    4    0    0 -0.51965301418E+02 -0.26699530486E+02  0.56457117386E+02  0.81244468016E+02  0.00000000000E+00 0. -1.
        -11    1    3    3    0    0  0.35851501443E+01  0.30849694917E+02 -0.55791462993E+02  0.63853303132E+02  0.00000000000E+00 0.  1.
         11    1    3    3    0    0  0.58745837804E+02 -0.54514174375E+02 -0.48320528256E+02  0.93582808881E+02  0.00000000000E+00 0. -1.
         -4    1    1    2    0  502  0.23498338524E+02 -0.15452591031E+01  0.40319382642E+02  0.46692744145E+02  0.00000000000E+00 0.  1.
<scales pt_clust_5="13000.00000" pt_clust_6="13000.00000" pt_clust_7="13000.00000" pt_clust_8="13000.00000" pt_clust_9="23.54909"></scales>
<clustering>
<clus scale="   23.549">  1  9  2 -1</clus>
<clus scale="   81.343">  5  6 -1 -1</clus>
<clus scale="   97.476">  7  8 -1 -1</clus>
<clus scale="  107.286">  1  5  2 -1</clus>
<clus scale="   23.549">  1  5  2 -1</clus>
</clustering>
</event>
<event>
 9    2  0.9254368E-005  0.8579626E+02  0.7546771E-02  0.1314094E+00
         21   -1    0    0  501  502  0.00000000000E+00  0.00000000000E+00  0.61656146974E+03  0.61656146974E+03  0.00000000000E+00 0.  1.
          2   -1    0    0  502    0 -0.00000000000E+00 -0.00000000000E+00 -0.71644987557E+02  0.71644987557E+02  0.00000000000E+00 0. -1.
         23    2    1    2    0    0  0.17494172089E+01  0.11875397999E+02 -0.29919907589E+02  0.90308318025E+02  0.84358199935E+02 0.  0.
         24    2    1    2    0    0  0.27467045391E+02 -0.61189217197E+02  0.35801149684E+03  0.37362489377E+03  0.83215205913E+02 0.  0.
        -13    1    4    4    0    0  0.96493707893E+01 -0.74890014279E+02  0.32521400535E+03  0.33386490362E+03  0.00000000000E+00 0.  1.
         14    1    4    4    0    0  0.17817674601E+02  0.13700797082E+02  0.32797491491E+02  0.39759990154E+02  0.00000000000E+00 0. -1.
        -11    1    3    3    0    0 -0.35462182431E+02 -0.93787430018E+01 -0.30106028216E+02  0.47454189889E+02  0.00000000000E+00 0.  1.
         11    1    3    3    0    0  0.37211599640E+02  0.21254141000E+02  0.18612062733E+00  0.42854128136E+02  0.00000000000E+00 0. -1.
          1    1    1    2  501    0 -0.29216462600E+02  0.49313819199E+02  0.21682489294E+03  0.22427324550E+03  0.00000000000E+00 0. -1.
<scales pt_clust_5="13000.00000" pt_clust_6="13000.00000" pt_clust_7="13000.00000" pt_clust_8="13000.00000" pt_clust_9="57.31888"></scales>
<clustering>
<clus scale="   57.319">  1  9  2 -1</clus>
<clus scale="   83.215">  5  6 -1 -1</clus>
<clus scale="   84.358">  7  8 -1 -1</clus>
<clus scale="   84.673">  1  5  2 -1</clus>
<clus scale="   57.319">  1  5  2 -1</clus>
</clustering>
</event>
<event>
 9    2  0.9254368E-005  0.2440315E+03  0.7546771E-02  0.1117136E+00
         21   -1    0    0  501  502  0.00000000000E+00  0.00000000000E+00  0.52917926294E+02  0.52917926294E+02  0.00000000000E+00 0.  1.
          4   -1    0    0  502    0 -0.00000000000E+00 -0.00000000000E+00 -0.88766618218E+03  0.88766618218E+03  0.00000000000E+00 0. -1.
         24    2    1    2    0    0 -0.11591057906E+03 -0.12242215447E+02 -0.16230541006E+03  0.21540012011E+03  0.80430289263E+02 0.  0.
         23    2    1    2    0    0 -0.35557968135E+02  0.25566808782E+02 -0.14928683307E+03  0.18037899641E+03  0.91279751358E+02 0.  0.
        -11    1    3    3    0    0 -0.37070145416E+02  0.14050880169E+02 -0.84523659018E+01  0.40534743172E+02  0.00000000000E+00 0.  1.
         12    1    3    3    0    0 -0.78840433647E+02 -0.26293095616E+02 -0.15385304416E+03  0.17486537694E+03  0.00000000000E+00 0. -1.
        -13    1    4    4    0    0 -0.62140695176E+02  0.16508669076E+01 -0.11559330726E+03  0.13124787252E+03  0.00000000000E+00 0.  1.
         13    1    4    4    0    0  0.26582727041E+02  0.23915941874E+02 -0.33693525806E+02  0.49131123882E+02  0.00000000000E+00 0. -1.
          3    1    1    2  501    0  0.15146854720E+03 -0.13324593335E+02 -0.52315601276E+03  0.54480499196E+03  0.00000000000E+00 0. -1.
<scales pt_clust_5="13000.00000" pt_clust_6="13000.00000" pt_clust_7="13000.00000" pt_clust_8="13000.00000" pt_clust_9="152.05357"></scales>
<clustering>
<clus scale="   80.430">  5  6 -1 -1</clus>
<clus scale="   91.280">  7  8 -1 -1</clus>
<clus scale="   96.467">  5  7 -1 -1</clus>
<clus scale="  152.054">  1  9  2 -1</clus>
<clus scale="  152.054">  1  5  2 -1</clus>
</clustering>
</event>
<event>
 9    2  0.9254368E-005  0.9100193E+02  0.7546771E-02  0.1304266E+00
          2   -1    0    0  502    0 -0.00000000000E+00  0.00000000000E+00  0.38282135266E+03  0.38282135266E+03  0.00000000000E+00 0. -1.
         21   -1    0    0  501  502  0.00000000000E+00 -0.00000000000E+00 -0.50676467003E+02  0.50676467003E+02  0.00000000000E+00 0. -1.
         24    2    1    2    0    0 -0.12301983948E+02  0.23899612116E+02  0.11599254305E+03  0.14587768796E+03  0.84282261092E+02 0.  0.
         23    2    1    2    0    0 -0.22374453479E+02  0.20435160479E+02  0.41390854946E+02  0.10401837532E+03  0.90489820309E+02 0.  0.
        -13    1    3    3    0    0 -0.34403698182E+02 -0.16986295144E+02  0.73459425506E+02  0.82876027094E+02  0.00000000000E+00 0.  1.
         14    1    3    3    0    0  0.22101714233E+02  0.40885907260E+02  0.42533117541E+02  0.63001660869E+02  0.00000000000E+00 0. -1.
        -11    1    4    4    0    0  0.32211586301E+02  0.21553800911E+02  0.67015890631E+01  0.39332733464E+02  0.00000000000E+00 0.  1.
         11    1    4    4    0    0 -0.54586039780E+02 -0.11186404320E+01  0.34689265883E+02  0.64685641860E+02  0.00000000000E+00 0. -1.
          1    1    1    2  501    0  0.34676437427E+02 -0.44334772595E+02  0.17476148767E+03  0.18360175638E+03  0.00000000000E+00 0. -1.
<scales pt_clust_5="13000.00000" pt_clust_6="13000.00000" pt_clust_7="13000.00000" pt_clust_8="13000.00000" pt_clust_9="56.28526"></scales>
<clustering>
<clus scale="   56.285">  2  9  1 -1</clus>
<clus scale="   84.282">  5  6 -1 -1</clus>
<clus scale="   84.832">  1  5  2 -1</clus>
<clus scale="   90.490">  7  8 -1 -1</clus>
<clus scale="   56.285">  2  5  1 -1</clus>
</clustering>
</event>
<event>
 9    2  0.9254368E-005  0.9676132E+02  0.7546771E-02  0.1292793E+00
          2   -1    0    0  502    0 -0.00000000000E+00  0.00000000000E+00  0.45411255877E+03  0.45411255877E+03  0.00000000000E+00 0. -1.
         21   -1    0    0  501  502  0.00000000000E+00 -0.00000000000E+00 -0.16871977976E+03  0.16871977976E+03  0.00000000000E+00 0.  1.
         24    2    1    2    0    0 -0.33853331542E+02  0.20038596024E+01  0.32699144927E+03  0.33833285512E+03  0.79972804394E+02 0.  0.
         23    2    1    2    0    0  0.57213468780E+02 -0.44643872122E+02 -0.13580378158E+03  0.17848783463E+03  0.90270613676E+02 0.  0.
        -11    1    3    3    0    0 -0.14054681223E+02  0.38425437986E+02  0.10881522766E+03  0.11625318112E+03  0.00000000000E+00 0.  1.
         12    1    3    3    0    0 -0.19798650319E+02 -0.36421578384E+02  0.21817622161E+03  0.22207967400E+03  0.00000000000E+00 0. -1.
        -13    1    4    4    0    0  0.75085924394E+02 -0.29263097100E+02 -0.63991700344E+02  0.10290365692E+03  0.00000000000E+00 0. -1.
         13    1    4    4    0    0 -0.17872455614E+02 -0.15380775022E+02 -0.71812081232E+02  0.75584177715E+02  0.00000000000E+00 0.  1.
          1    1    1    2  501    0 -0.23360137238E+02  0.42640012519E+02  0.94205111315E+02  0.10601164878E+03  0.00000000000E+00 0. -1.
<scales pt_clust_5="13000.00000" pt_clust_6="13000.00000" pt_clust_7="13000.00000" pt_clust_8="13000.00000" pt_clust_9="48.61964"></scales>
<clustering>
<clus scale="   48.620">  2  9  1 -1</clus>
<clus scale="   79.973">  5  6 -1 -1</clus>
<clus scale="   87.233">  1  5  2 -1</clus>
<clus scale="   90.271">  7  8 -1 -1</clus>
<clus scale="   48.620">  2  5  1 -1</clus>
</clustering>
</event>
<event>
 9    2  0.9254368E-005  0.9145822E+02  0.7546771E-02  0.1306647E+00
         21   -1    0    0  501  502  0.00000000000E+00  0.00000000000E+00  0.55215843483E+02  0.55215843483E+02  0.00000000000E+00 0.  1.
         -1   -1    0    0    0  501 -0.00000000000E+00 -0.00000000000E+00 -0.30214783605E+03  0.30214783605E+03  0.00000000000E+00 0.  1.
         23    2    1    2    0    0 -0.57140060001E+01 -0.29828340933E+02 -0.13319663131E+03  0.16360123773E+03  0.90009125143E+02 0.  0.
         24    2    1    2    0    0  0.29309210437E+02 -0.31643785249E+02 -0.78929475778E+02  0.11928421925E+03  0.78348604673E+02 0.  0.
        -11    1    4    4    0    0  0.26105164160E+02 -0.30013652845E+02 -0.94907686759E+02  0.10290659823E+03  0.00000000000E+00 0.  1.
         12    1    4    4    0    0  0.32040462767E+01 -0.16301324039E+01  0.15978210981E+02  0.16377621022E+02  0.00000000000E+00 0. -1.
        -11    1    3    3    0    0 -0.46904154322E+02 -0.20881799491E+02 -0.58520601708E+02  0.77850562406E+02  0.00000000000E+00 0. -1.
         11    1    3    3    0    0  0.41190148322E+02 -0.89465414424E+01 -0.74676029598E+02  0.85750675327E+02  0.00000000000E+00 0.  1.
         -2    1    1    2    0  502 -0.23595204437E+02  0.61472126182E+02 -0.34805885482E+02  0.74478222548E+02  0.00000000000E+00 0.  1.
<scales pt_clust_5="13000.00000" pt_clust_6="13000.00000" pt_clust_7="13000.00000" pt_clust_8="13000.00000" pt_clust_9="65.84494"></scales>
<clustering>
<clus scale="   65.845">  1  9  2 -1</clus>
<clus scale="   78.349">  5  6 -1 -1</clus>
<clus scale="   80.009">  1  5  2 -1</clus>
<clus scale="   90.009">  7  8 -1 -1</clus>
<clus scale="   65.845">  1  5  2 -1</clus>
</clustering>
</event>
<event>
 9    2  0.9254368E-005  0.1182864E+03  0.7546771E-02  0.1246192E+00
         21   -1    0    0  501  502  0.00000000000E+00  0.00000000000E+00  0.40695968285E+02  0.40695968285E+02  0.00000000000E+00 0. -1.
          2   -1    0    0  502    0 -0.00000000000E+00 -0.00000000000E+00 -0.78191298770E+03  0.78191298770E+03  0.00000000000E+00 0. -1.
         24    2    1    2    0    0 -0.29634327086E+02 -0.62393210573E+02 -0.43214790173E+03  0.44712539873E+03  0.91641732573E+02 0.  0.
         23    2    1    2    0    0  0.12288172865E+02  0.96878223271E+02 -0.11287744531E+03  0.17553036904E+03  0.92375340112E+02 0.  0.
        -11    1    3    3    0    0 -0.41195187291E+02  0.81286348773E+01 -0.19370108525E+03  0.19819997121E+03  0.00000000000E+00 0.  1.
         12    1    3    3    0    0  0.11560860205E+02 -0.70521845450E+02 -0.23844681648E+03  0.24892542751E+03  0.00000000000E+00 0. -1.
        -13    1    4    4    0    0  0.86288355094E+01  0.31562252684E+02  0.11758588820E+02  0.34769196248E+02  0.00000000000E+00 0. -1.
         13    1    4    4    0    0  0.36593373561E+01  0.65315970587E+02 -0.12463603413E+03  0.14076117280E+03  0.00000000000E+00 0.  1.
          1    1    1    2  501    0  0.17346154221E+02 -0.34485012698E+02 -0.19619167238E+03  0.19995318821E+03  0.00000000000E+00 0. -1.
<scales pt_clust_5="13000.00000" pt_clust_6="13000.00000" pt_clust_7="13000.00000" pt_clust_8="13000.00000" pt_clust_9="38.60190"></scales>
<clustering>
<clus scale="   38.602">  1  9  2 -1</clus>
<clus scale="   91.642">  5  6 -1 -1</clus>
<clus scale="   92.375">  7  8 -1 -1</clus>
<clus scale="  117.714">  2  5  1 -1</clus>
<clus scale="   38.602">  1  5  2 -1</clus>
</clustering>
</event>
<event>
 9    2  0.9254368E-005  0.1217062E+03  0.7546771E-02  0.1248308E+00
         21   -1    0    0  501  502  0.00000000000E+00  0.00000000000E+00  0.23566109997E+03  0.23566109997E+03  0.00000000000E+00 0. -1.
          2   -1    0    0  502    0 -0.00000000000E+00 -0.00000000000E+00 -0.43175954847E+03  0.43175954847E+03  0.00000000000E+00 0. -1.
         23    2    1    2    0    0 -0.37789511297E+02 -0.38285135959E+02 -0.25014138922E+03  0.27787647308E+03  0.10840120335E+03 0.  0.
         24    2    1    2    0    0  0.83563281932E+01  0.63684061950E+02 -0.14812956647E+03  0.18366765807E+03  0.87555423526E+02 0.  0.
        -11    1    4    4    0    0  0.46455473032E+02  0.37887621899E+02 -0.63412856759E+02  0.87262668250E+02  0.00000000000E+00 0.  1.
         12    1    4    4    0    0 -0.38099144839E+02  0.25796440052E+02 -0.84716709714E+02  0.96404989817E+02  0.00000000000E+00 0. -1.
        -13    1    3    3    0    0 -0.25628544260E+02 -0.57778536951E+02 -0.24667065602E+03  0.25464012675E+03  0.00000000000E+00 0. -1.
         13    1    3    3    0    0 -0.12160967037E+02  0.19493400992E+02 -0.34707332047E+01  0.23236346324E+02  0.00000000000E+00 0.  1.
          1    1    1    2  501    0  0.29433183104E+02 -0.25398925991E+02  0.20217250719E+03  0.20587651729E+03  0.00000000000E+00 0. -1.
<scales pt_clust_5="13000.00000" pt_clust_6="13000.00000" pt_clust_7="13000.00000" pt_clust_8="13000.00000" pt_clust_9="38.87696"></scales>
<clustering>
<clus scale="   38.877">  1  9  2 -1</clus>
<clus scale="   87.555">  5  6 -1 -1</clus>
<clus scale="  103.574">  1  5  2 -1</clus>
<clus scale="  108.401">  7  8 -1 -1</clus>
<clus scale="   38.877">  1  5  2 -1</clus>
</clustering>
</event>
<event>
 9    2  0.9254368E-005  0.9417599E+02  0.7546771E-02  0.1304684E+00
          2   -1    0    0  502    0 -0.00000000000E+00  0.00000000000E+00  0.13838550417E+04  0.13838550417E+04  0.00000000000E+00 0. -1.
         21   -1    0    0  501  502  0.00000000000E+00 -0.00000000000E+00 -0.20425692280E+02  0.20425692280E+02  0.00000000000E+00 0. -1.
         24    2    1    2    0    0  0.21377687163E+02 -0.16239429122E+02  0.10845432443E+04  0.10872799634E+04  0.72269948728E+02 0.  0.
         23    2    1    2    0    0  0.30155792561E+02  0.22570154906E+02  0.18777394000E+03  0.21213321480E+03  0.91228638939E+02 0.  0.
        -11    1    3    3    0    0 -0.17919796313E+02 -0.10811058711E+02  0.11265965892E+03  0.11458707099E+03  0.00000000000E+00 0.  1.
         12    1    3    3    0    0  0.39297483476E+02 -0.54283704118E+01  0.97188358543E+03  0.97269289246E+03  0.00000000000E+00 0. -1.
        -11    1    4    4    0    0  0.58083802972E+02 -0.52258489206E+01  0.97087890648E+02  0.11325677099E+03  0.00000000000E+00 0. -1.
         11    1    4    4    0    0 -0.27928010411E+02  0.27796003827E+02  0.90686049350E+02  0.98876443812E+02  0.00000000000E+00 0.  1.
          1    1    1    2  501    0 -0.51533479724E+02 -0.63307257835E+01  0.91112165121E+02  0.10486755578E+03  0.00000000000E+00 0. -1.
<scales pt_clust_5="13000.00000" pt_clust_6="13000.00000" pt_clust_7="13000.00000" pt_clust_8="13000.00000" pt_clust_9="51.92088"></scales>
<clustering>
<clus scale="   51.921">  2  9  1 -1</clus>
<clus scale="   72.270">  5  6 -1 -1</clus>
<clus scale="   75.957">  1  5  2 -1</clus>
<clus scale="   91.229">  7  8 -1 -1</clus>
<clus scale="   51.921">  2  5  1 -1</clus>
</clustering>
</event>
<event>
 9    2  0.9254368E-005  0.1365654E+03  0.7546771E-02  0.1220188E+00
         21   -1    0    0  501  502  0.00000000000E+00  0.00000000000E+00  0.14896671574E+03  0.14896671574E+03  0.00000000000E+00 0. -1.
          2   -1    0    0  502    0 -0.00000000000E+00 -0.00000000000E+00 -0.23570906892E+03  0.23570906892E+03  0.00000000000E+00 0. -1.
         24    2    1    2    0    0  0.81120906575E+02 -0.60499410784E+02 -0.11670142282E+03  0.17407930055E+03  0.80272041217E+02 0.  0.
         23    2    1    2    0    0 -0.10072314835E+03  0.40557708714E+02 -0.30335020895E+02  0.14413373727E+03  0.89801115679E+02 0.  0.
        -11    1    3    3    0    0  0.69830945162E+02 -0.24177884873E+01 -0.59343239061E+02  0.91672387476E+02  0.00000000000E+00 0.  1.
         12    1    3    3    0    0  0.11289961413E+02 -0.58081622297E+02 -0.57358183759E+02  0.82406913069E+02  0.00000000000E+00 0. -1.
        -13    1    4    4    0    0 -0.11889498099E+02  0.50118758230E+02 -0.12925927347E+02  0.53106776303E+02  0.00000000000E+00 0.  1.
         13    1    4    4    0    0 -0.88833650250E+02 -0.95610495161E+01 -0.17409093548E+02  0.91026960966E+02  0.00000000000E+00 0. -1.
          1    1    1    2  501    0  0.19602241773E+02  0.19941702070E+02  0.60294090538E+02  0.66462746842E+02  0.00000000000E+00 0. -1.
<scales pt_clust_5="13000.00000" pt_clust_6="13000.00000" pt_clust_7="13000.00000" pt_clust_8="13000.00000" pt_clust_9="27.96282"></scales>
<clustering>
<clus scale="   27.963">  1  9  2 -1</clus>
<clus scale="   80.272">  5  6 -1 -1</clus>
<clus scale="   89.801">  7  8 -1 -1</clus>
<clus scale="  130.497">  2  5  1 -1</clus>
<clus scale="   27.963">  1  5  2 -1</clus>
</clustering>
</event>
<event>
 9    2  0.9254368E-005  0.1064530E+03  0.7546771E-02  0.1271780E+00
          2   -1    0    0  502    0 -0.00000000000E+00  0.00000000000E+00  0.40301013474E+03  0.40301013474E+03  0.00000000000E+00 0. -1.
         21   -1    0    0  501  502  0.00000000000E+00 -0.00000000000E+00 -0.46230093726E+02  0.46230093726E+02  0.00000000000E+00 0. -1.
         23    2    1    2    0    0 -0.59085144759E+02 -0.17805500813E+02  0.21027010191E+03  0.23708472821E+03  0.90485150171E+02 0.  0.
         24    2    1    2    0    0  0.37910904956E+02  0.21395240443E+02  0.33189001660E+02  0.96817434013E+02  0.79856826067E+02 0.  0.
        -13    1    4    4    0    0 -0.94057585160E+01  0.36277764690E+02  0.28325831216E+02  0.46977624655E+02  0.00000000000E+00 0.  1.
         14    1    4    4    0    0  0.47316663472E+02 -0.14882524247E+02  0.48631704439E+01  0.49839809358E+02  0.00000000000E+00 0. -1.
        -13    1    3    3    0    0 -0.15464219307E+02 -0.31897414271E+02  0.18644740610E+02  0.40052633725E+02  0.00000000000E+00 0.  1.
         13    1    3    3    0    0 -0.43620925452E+02  0.14091913458E+02  0.19162536130E+03  0.19703209448E+03  0.00000000000E+00 0. -1.
          1    1    1    2  501    0  0.21174239803E+02 -0.35897396304E+01  0.11332093744E+03  0.11533806624E+03  0.00000000000E+00 0. -1.
<scales pt_clust_5="13000.00000" pt_clust_6="13000.00000" pt_clust_7="13000.00000" pt_clust_8="13000.00000" pt_clust_9="21.47639"></scales>
<clustering>
<clus scale="   21.476">  2  9  1 -1</clus>
<clus scale="   79.857">  5  6 -1 -1</clus>
<clus scale="   90.485">  7  8 -1 -1</clus>
<clus scale="   97.580">  2  5  1 -1</clus>
<clus scale="   21.476">  2  5  1 -1</clus>
</clustering>
</event>
<event>
 9    2  0.9254368E-005  0.1643372E+03  0.7546771E-02  0.1189707E+00
         -1   -1    0    0    0  501 -0.00000000000E+00  0.00000000000E+00  0.52191295638E+03  0.52191295638E+03  0.00000000000E+00 0.  1.
         21   -1    0    0  501  502  0.00000000000E+00 -0.00000000000E+00 -0.37241244510E+03  0.37241244510E+03  0.00000000000E+00 0.  1.
         23    2    1    2    0    0  0.11102807414E+03  0.20759705163E+02 -0.45758987512E+02  0.15147732696E+03  0.89962753623E+02 0.  0.
         24    2    1    2    0    0 -0.19541509877E+02 -0.14323743463E+03 -0.23416851366E+03  0.28702025225E+03  0.81528517246E+02 0.  0.
        -11    1    4    4    0    0 -0.30582729106E+02 -0.34640020161E+02 -0.12221478733E+03  0.13065867196E+03  0.00000000000E+00 0.  1.
         12    1    4    4    0    0  0.11041219229E+02 -0.10859741447E+03 -0.11195372633E+03  0.15636158029E+03  0.00000000000E+00 0. -1.
        -11    1    3    3    0    0  0.11944767218E+03  0.17698920989E+01 -0.24878156175E+02  0.12202377457E+03  0.00000000000E+00 0.  1.
         11    1    3    3    0    0 -0.84195980308E+01  0.18989813064E+02 -0.20880831337E+02  0.29453552392E+02  0.00000000000E+00 0. -1.
         -2    1    1    2    0  502 -0.91486564268E+02  0.12247772947E+03  0.42942801246E+03  0.45582782226E+03  0.00000000000E+00 0.  1.
<scales pt_clust_5="13000.00000" pt_clust_6="13000.00000" pt_clust_7="13000.00000" pt_clust_8="13000.00000" pt_clust_9="142.68786"></scales>
<clustering>
<clus scale="   81.529">  5  6 -1 -1</clus>
<clus scale="   89.963">  7  8 -1 -1</clus>
<clus scale="  144.401">  1  7  2 -1</clus>
<clus scale="  142.688">  2  9  1 -1</clus>
<clus scale="  142.688">  2  5  1 -1</clus>
</clustering>
</event>
<event>
 9    2  0.9254368E-005  0.2509723E+03  0.7546771E-02  0.1152377E+00
          2   -1    0    0  502    0 -0.00000000000E+00  0.00000000000E+00  0.23335368543E+04  0.23335368543E+04  0.00000000000E+00 0. -1.
         21   -1    0    0  501  502  0.00000000000E+00 -0.00000000000E+00 -0.52880039730E+02  0.52880039730E+02  0.00000000000E+00 0.  1.
         24    2    1    2    0    0  0.22583448013E+02  0.48009515548E+02  0.11594517092E+04  0.11633446868E+04  0.78915579859E+02 0.  0.
         23    2    1    2    0    0 -0.21769671925E+03  0.84836972622E+02  0.62601606057E+03  0.67450173029E+03  0.92017947046E+02 0.  0.
        -13    1    3    3    0    0  0.13563715360E+02 -0.15578473361E+02  0.10954317025E+03  0.11147362627E+03  0.00000000000E+00 0.  1.
         14    1    3    3    0    0  0.90197326532E+01  0.63587988908E+02  0.10499085389E+04  0.10518710605E+04  0.00000000000E+00 0. -1.
        -13    1    4    4    0    0 -0.11537133032E+03  0.22150851716E+02  0.20043433657E+03  0.23232547722E+03  0.00000000000E+00 0. -1.
         13    1    4    4    0    0 -0.10232538893E+03  0.62686120906E+02  0.42558172400E+03  0.44217625307E+03  0.00000000000E+00 0.  1.
          1    1    1    2  501    0  0.19511327123E+03 -0.13284648817E+03  0.49518904485E+03  0.54857047694E+03  0.00000000000E+00 0. -1.
<scales pt_clust_5="13000.00000" pt_clust_6="13000.00000" pt_clust_7="13000.00000" pt_clust_8="13000.00000" pt_clust_9="233.49469"></scales>
<clustering>
<clus scale="   78.916">  5  6 -1 -1</clus>
<clus scale="   92.018">  7  8 -1 -1</clus>
<clus scale="   95.093">  1  5  2 -1</clus>
<clus scale="  233.495">  2  9  1 -1</clus>
<clus scale="  233.495">  2  5  1 -1</clus>
</clustering>
</event>
<event>
 9    2  0.9254368E-005  0.3152171E+03  0.7546771E-02  0.1116649E+00
          2   -1    0    0  502    0 -0.00000000000E+00  0.00000000000E+00  0.57272272818E+03  0.57272272818E+03  0.00000000000E+00 0. -1.
         21   -1    0    0  501  502  0.00000000000E+00 -0.00000000000E+00 -0.34679658430E+03  0.34679658430E+03  0.00000000000E+00 0. -1.
         23    2    1    2    0    0  0.51164253087E+02 -0.46702093725E+02 -0.76092316626E+02  0.13758013679E+03  0.91320244398E+02 0.  0.
         24    2    1    2    0    0 -0.67036993601E+02 -0.28772480652E+03 -0.32987439952E+02  0.30831247792E+03  0.81785634711E+02 0.  0.
        -13    1    4    4    0    0 -0.10793811421E+02 -0.66333544104E+02 -0.42801257097E+02  0.79678058759E+02  0.00000000000E+00 0.  1.
         14    1    4    4    0    0 -0.56243182180E+02 -0.22139126242E+03  0.98138171454E+01  0.22863441916E+03  0.00000000000E+00 0. -1.
        -11    1    3    3    0    0  0.30427624447E+02 -0.24926702667E+02  0.14658943968E+02  0.41976963606E+02  0.00000000000E+00 0.  1.
         11    1    3    3    0    0  0.20736628641E+02 -0.21775391058E+02 -0.90751260594E+02  0.95603173182E+02  0.00000000000E+00 0. -1.
          1    1    1    2  501    0  0.15872740514E+02  0.33442690025E+03  0.33500590047E+03  0.47362669778E+03  0.00000000000E+00 0. -1.
<scales pt_clust_5="13000.00000" pt_clust_6="13000.00000" pt_clust_7="13000.00000" pt_clust_8="13000.00000" pt_clust_9="304.42241"></scales>
<clustering>
<clus scale="   81.786">  5  6 -1 -1</clus>
<clus scale="   91.320">  7  8 -1 -1</clus>
<clus scale="  114.622">  1  7  2 -1</clus>
<clus scale="  304.422">  2  9  1 -1</clus>
<clus scale="  304.422">  2  5  1 -1</clus>
</clustering>
</event>
<event>
 9    2  0.9254368E-005  0.1442574E+03  0.7546771E-02  0.1209676E+00
         -3   -1    0    0    0  501 -0.00000000000E+00  0.00000000000E+00  0.31006552849E+03  0.31006552849E+03  0.00000000000E+00 0.  1.
         21   -1    0    0  501  502  0.00000000000E+00 -0.00000000000E+00 -0.18804911242E+03  0.18804911242E+03  0.00000000000E+00 0.  1.
         23    2    1    2    0    0  0.11388568716E+03 -0.45011141357E+02  0.36183479404E+02  0.15678660963E+03  0.90977163014E+02 0.  0.
         24    2    1    2    0    0 -0.76308866875E+02  0.50478748522E+02 -0.96032022584E+02  0.15554112229E+03  0.81238809347E+02 0.  0.
        -11    1    4    4    0    0 -0.74204563310E+02  0.38565364841E+02 -0.30678584600E+02  0.89077382844E+02  0.00000000000E+00 0.  1.
         12    1    4    4    0    0 -0.21043035651E+01  0.11913383680E+02 -0.65353437983E+02  0.66463739441E+02  0.00000000000E+00 0. -1.
        -11    1    3    3    0    0  0.36094695585E+02  0.28141561361E+02  0.11209393193E+02  0.47121386026E+02  0.00000000000E+00 0.  1.
         11    1    3    3    0    0  0.77790991574E+02 -0.73152702719E+02  0.24974086211E+02  0.10966522360E+03  0.00000000000E+00 0. -1.
         -4    1    1    2    0  502 -0.37576820284E+02 -0.54676071641E+01  0.18186495925E+03  0.18578690900E+03  0.00000000000E+00 0.  1.
<scales pt_clust_5="13000.00000" pt_clust_6="13000.00000" pt_clust_7="13000.00000" pt_clust_8="13000.00000" pt_clust_9="37.97254"></scales>
<clustering>
<clus scale="   37.973">  2  9  1 -1</clus>
<clus scale="   81.239">  5  6 -1 -1</clus>
<clus scale="   90.977">  7  8 -1 -1</clus>
<clus scale="  138.322">  2  5  1 -1</clus>
<clus scale="   37.973">  2  5  1 -1</clus>
</clustering>
</event>
<event>
 9    2  0.9254368E-005  0.1611870E+03  0.7546771E-02  0.1189004E+00
          2   -1    0    0  502    0 -0.00000000000E+00  0.00000000000E+00  0.20194800606E+04  0.20194800606E+04  0.00000000000E+00 0. -1.
         21   -1    0    0  501  502  0.00000000000E+00 -0.00000000000E+00 -0.86398664610E+02  0.86398664610E+02  0.00000000000E+00 0. -1.
         24    2    1    2    0    0  0.12225811841E+03 -0.12718605413E+03  0.14677714454E+04  0.14805961781E+04  0.81784391836E+02 0.  0.
         23    2    1    2    0    0 -0.50223031519E+02  0.64270264081E+02  0.50642150374E+03  0.52117870391E+03  0.92257694630E+02 0.  0.
        -13    1    3    3    0    0  0.60426458695E+02 -0.19546781236E+02  0.32857970427E+03  0.33466110563E+03  0.00000000000E+00 0.  1.
         14    1    3    3    0    0  0.61831659713E+02 -0.10763927290E+03  0.11391917411E+04  0.11459350724E+04  0.00000000000E+00 0. -1.
        -13    1    4    4    0    0  0.98494326705E+01  0.62190363103E+02  0.26788276794E+03  0.27518326611E+03  0.00000000000E+00 0.  1.
         13    1    4    4    0    0 -0.60072464190E+02  0.20799009775E+01  0.23853873581E+03  0.24599543781E+03  0.00000000000E+00 0. -1.
          1    1    1    2  501    0 -0.72035086889E+02  0.62915790053E+02 -0.41111553110E+02  0.10410384325E+03  0.00000000000E+00 0. -1.
<scales pt_clust_5="13000.00000" pt_clust_6="13000.00000" pt_clust_7="13000.00000" pt_clust_8="13000.00000" pt_clust_9="95.64230"></scales>
<clustering>
<clus scale="   81.784">  5  6 -1 -1</clus>
<clus scale="   92.258">  7  8 -1 -1</clus>
<clus scale="   95.642">  2  9  1 -1</clus>
<clus scale="  155.430">  1  5  2 -1</clus>
<clus scale="   95.642">  2  5  1 -1</clus>
</clustering>
</event>
<event>
 9    2  0.9254368E-005  0.1088642E+03  0.7546771E-02  0.1263202E+00
         -3   -1    0    0    0  501 -0.00000000000E+00  0.00000000000E+00  0.13986297402E+03  0.13986297402E+03  0.00000000000E+00 0.  1.
         21   -1    0    0  501  502  0.00000000000E+00 -0.00000000000E+00 -0.23555667892E+03  0.23555667892E+03  0.00000000000E+00 0. -1.
         23    2    1    2    0    0 -0.74882424186E+02  0.10996197046E+02 -0.16816572016E+02  0.11597462487E+03  0.86249769381E+02 0.  0.
         24    2    1    2    0    0  0.37380240401E+02  0.90044163089E+02 -0.83319293857E+02  0.15157797583E+03  0.80799408106E+02 0.  0.
        -13    1    4    4    0    0 -0.82550426591E+00  0.31546675680E+02  0.11682197511E+02  0.33650378043E+02  0.00000000000E+00 0.  1.
         14    1    4    4    0    0  0.38205744667E+02  0.58497487409E+02 -0.95001491368E+02  0.11792759779E+03  0.00000000000E+00 0. -1.
        -13    1    3    3    0    0 -0.65532560766E+02  0.36012952013E+02  0.13052833315E+02  0.75906690686E+02  0.00000000000E+00 0.  1.
         13    1    3    3    0    0 -0.93498634194E+01 -0.25016754968E+02 -0.29869405331E+02  0.40067934186E+02  0.00000000000E+00 0. -1.
         -4    1    1    2    0  502  0.37502183784E+02 -0.10104036013E+03  0.44421609687E+01  0.10786705224E+03  0.00000000000E+00 0.  1.
<scales pt_clust_5="13000.00000" pt_clust_6="13000.00000" pt_clust_7="13000.00000" pt_clust_8="13000.00000" pt_clust_9="107.77560"></scales>
<clustering>
<clus scale="   80.799">  5  6 -1 -1</clus>
<clus scale="   86.250">  7  8 -1 -1</clus>
<clus scale="  107.776">  2  9  1 -1</clus>
<clus scale="  107.776">  2  5  1 -1</clus>
<clus scale="  107.776">  2  5  1 -1</clus>
</clustering>
</event>
<event>
 9    2  0.9254368E-005  0.1171848E+03  0.7546771E-02  0.1253011E+00
          2   -1    0    0  502    0 -0.00000000000E+00  0.00000000000E+00  0.39202882218E+03  0.39202882218E+03  0.00000000000E+00 0. -1.
         21   -1    0    0  501  502  0.00000000000E+00 -0.00000000000E+00 -0.70973019272E+02  0.70973019272E+02  0.00000000000E+00 0.  1.
         23    2    1    2    0    0 -0.36239197476E+02 -0.62763534269E+02  0.30583692930E+03  0.32847238972E+03  0.95421920009E+02 0.  0.
         24    2    1    2    0    0  0.40947396047E+02  0.38311738032E+02  0.33191578894E+02  0.10381991562E+03  0.80823359590E+02 0.  0.
        -13    1    4    4    0    0  0.47219859851E+02  0.54824660848E+02  0.76423419124E+01  0.72758944408E+02  0.00000000000E+00 0.  1.
         14    1    4    4    0    0 -0.62724638046E+01 -0.16512922817E+02  0.25549236982E+02  0.31060971209E+02  0.00000000000E+00 0. -1.
        -11    1    3    3    0    0 -0.55969361871E+02 -0.74380078978E+02  0.27306062864E+03  0.28849102678E+03  0.00000000000E+00 0. -1.
         11    1    3    3    0    0  0.19730164395E+02  0.11616544709E+02  0.32776300659E+02  0.39981362945E+02  0.00000000000E+00 0.  1.
          1    1    1    2  501    0 -0.47081985707E+01  0.24451796237E+02 -0.17972705286E+02  0.30709536113E+02  0.00000000000E+00 0. -1.
<scales pt_clust_5="13000.00000" pt_clust_6="13000.00000" pt_clust_7="13000.00000" pt_clust_8="13000.00000" pt_clust_9="24.90095"></scales>
<clustering>
<clus scale="   24.901">  2  9  1 -1</clus>
<clus scale="   80.823">  5  6 -1 -1</clus>
<clus scale="   95.422">  7  8 -1 -1</clus>
<clus scale="  105.638">  2  5  1 -1</clus>
<clus scale="   24.901">  2  5  1 -1</clus>
</clustering>
</event>
<event>
 9    2  0.9254368E-005  0.1370751E+03  0.7546771E-02  0.1219550E+00
         21   -1    0    0  501  502  0.00000000000E+00  0.00000000000E+00  0.10457810471E+03  0.10457810471E+03  0.00000000000E+00 0. -1.
          2   -1    0    0  502    0 -0.00000000000E+00 -0.00000000000E+00 -0.71647245489E+03  0.71647245489E+03  0.00000000000E+00 0. -1.
         23    2    1    2    0    0 -0.11905377366E+03  0.13643186444E+01 -0.38373973663E+03  0.41188249834E+03  0.90638538076E+02 0.  0.
         24    2    1    2    0    0  0.58963010187E+02  0.10242500514E+03 -0.24920438749E+03  0.28740510888E+03  0.80816778063E+02 0.  0.
        -13    1    4    4    0    0  0.24744626644E+02  0.15891242781E+02 -0.10536618196E+02  0.31238573397E+02  0.00000000000E+00 0.  1.
         14    1    4    4    0    0  0.34218383543E+02  0.86533762363E+02 -0.23866776930E+03  0.25616653549E+03  0.00000000000E+00 0. -1.
        -11    1    3    3    0    0 -0.46658338306E+02  0.45225781888E+02 -0.16422767206E+03  0.17661568489E+03  0.00000000000E+00 0.  1.
         11    1    3    3    0    0 -0.72395435355E+02 -0.43861463244E+02 -0.21951206457E+03  0.23526681345E+03  0.00000000000E+00 0. -1.
          1    1    1    2  501    0  0.60090763473E+02 -0.10378932379E+03  0.21049773944E+02  0.12176295237E+03  0.00000000000E+00 0. -1.
<scales pt_clust_5="13000.00000" pt_clust_6="13000.00000" pt_clust_7="13000.00000" pt_clust_8="13000.00000" pt_clust_9="119.92966"></scales>
<clustering>
<clus scale="   80.817">  5  6 -1 -1</clus>
<clus scale="   90.639">  7  8 -1 -1</clus>
<clus scale="  119.930">  1  9  2 -1</clus>
<clus scale="  130.788">  1  5  2 -1</clus>
<clus scale="  119.930">  1  5  2 -1</clus>
</clustering>
</event>
<event>
 9    2  0.9254368E-005  0.9670523E+02  0.7546771E-02  0.1293853E+00
         21   -1    0    0  501  502  0.00000000000E+00  0.00000000000E+00  0.49212196473E+02  0.49212196473E+02  0.00000000000E+00 0.  1.
         -1   -1    0    0    0  501 -0.00000000000E+00 -0.00000000000E+00 -0.64140673467E+03  0.64140673467E+03  0.00000000000E+00 0.  1.
         24    2    1    2    0    0  0.40901355985E+02 -0.14707533625E+02 -0.47740946595E+03  0.48557811071E+03  0.77311518921E+02 0.  0.
         23    2    1    2    0    0  0.89205112488E+01 -0.28025440047E+02 -0.31989553527E+02  0.99383717435E+02  0.89380036617E+02 0.  0.
        -13    1    3    3    0    0  0.54633450958E+02 -0.33830206859E+02 -0.31670866968E+03  0.32316200010E+03  0.00000000000E+00 0.  1.
         14    1    3    3    0    0 -0.13732094973E+02  0.19122673234E+02 -0.16070079627E+03  0.16241611061E+03  0.00000000000E+00 0. -1.
        -13    1    4    4    0    0 -0.24249811288E+02 -0.48220858435E+02 -0.26610846195E+02  0.60178415324E+02  0.00000000000E+00 0. -1.
         13    1    4    4    0    0  0.33170322536E+02  0.20195418388E+02 -0.53787073320E+01  0.39205302111E+02  0.00000000000E+00 0.  1.
         -2    1    1    2    0  502 -0.49821867233E+02  0.42732973672E+02 -0.82795518724E+02  0.10565710300E+03  0.00000000000E+00 0.  1.
<scales pt_clust_5="13000.00000" pt_clust_6="13000.00000" pt_clust_7="13000.00000" pt_clust_8="13000.00000" pt_clust_9="65.63784"></scales>
<clustering>
<clus scale="   65.638">  1  9  2 -1</clus>
<clus scale="   77.312">  5  6 -1 -1</clus>
<clus scale="   85.675">  2  5  1 -1</clus>
<clus scale="   89.380">  7  8 -1 -1</clus>
<clus scale="   65.638">  1  5  2 -1</clus>
</clustering>
</event>
<event>
 9    2  0.9254368E-005  0.1845915E+03  0.7546771E-02  0.1187622E+00
         -1   -1    0    0    0  501 -0.00000000000E+00  0.00000000000E+00  0.88486598360E+03  0.88486598360E+03  0.00000000000E+00 0.  1.
         21   -1    0    0  501  502  0.00000000000E+00 -0.00000000000E+00 -0.88829721415E+02  0.88829721415E+02  0.00000000000E+00 0.  1.
         23    2    1    2    0    0  0.49510668685E+02  0.24517626909E+02  0.33109781875E+03  0.34786758341E+03  0.91288935046E+02 0.  0.
         24    2    1    2    0    0 -0.65050014085E+02 -0.18388579961E+03  0.40197557777E+03  0.45376996813E+03  0.79229585510E+02 0.  0.
        -13    1    4    4    0    0 -0.54190970281E+02 -0.10208154113E+03  0.30654364005E+03  0.32760693759E+03  0.00000000000E+00 0.  1.
         14    1    4    4    0    0 -0.10859043804E+02 -0.81804258486E+02  0.95431937720E+02  0.12616303054E+03  0.00000000000E+00 0. -1.
        -11    1    3    3    0    0  0.68972839367E+02 -0.25307705789E+01  0.26506182855E+03  0.27390040220E+03  0.00000000000E+00 0.  1.
         11    1    3    3    0    0 -0.19462170682E+02  0.27048397488E+02  0.66035990199E+02  0.73967181208E+02  0.00000000000E+00 0. -1.
         -2    1    1    2    0  502  0.15539345399E+02  0.15936817270E+03  0.62962865665E+02  0.17205815348E+03  0.00000000000E+00 0.  1.
<scales pt_clust_5="13000.00000" pt_clust_6="13000.00000" pt_clust_7="13000.00000" pt_clust_8="13000.00000" pt_clust_9="166.72346"></scales>
<clustering>
<clus scale="   79.230">  5  6 -1 -1</clus>
<clus scale="   91.289">  7  8 -1 -1</clus>
<clus scale="  106.706">  1  7  2 -1</clus>
<clus scale="  166.723">  2  9  1 -1</clus>
<clus scale="  166.723">  2  5  1 -1</clus>
</clustering>
</event>
<event>
 9    2  0.9254368E-005  0.1024323E+03  0.7546771E-02  0.1282227E+00
         21   -1    0    0  501  502  0.00000000000E+00  0.00000000000E+00  0.68024302506E+02  0.68024302506E+02  0.00000000000E+00 0. -1.
          2   -1    0    0  502    0 -0.00000000000E+00 -0.00000000000E+00 -0.35100773132E+03  0.35100773132E+03  0.00000000000E+00 0. -1.
         24    2    1    2    0    0  0.25356771033E+02 -0.36204830005E+02 -0.14559776684E+03  0.17124113755E+03  0.78556106880E+02 0.  0.
         23    2    1    2    0    0 -0.75982375485E+02 -0.29123204894E+02 -0.78156245951E+02  0.14611087025E+03  0.92835904567E+02 0.  0.
        -11    1    3    3    0    0  0.20265115678E+02 -0.20463844488E+02 -0.44675164758E+01  0.29144511458E+02  0.00000000000E+00 0.  1.
         12    1    3    3    0    0  0.50916553549E+01 -0.15740985517E+02 -0.14113025036E+03  0.14209662609E+03  0.00000000000E+00 0. -1.
        -11    1    4    4    0    0 -0.20966687914E+02  0.31878411208E+02 -0.40827792950E+02  0.55881515552E+02  0.00000000000E+00 0.  1.
         11    1    4    4    0    0 -0.55015687571E+02 -0.61001616102E+02 -0.37328453001E+02  0.90229354699E+02  0.00000000000E+00 0. -1.
          1    1    1    2  501    0  0.50625604452E+02  0.65328034898E+02 -0.59229416028E+02  0.10168002603E+03  0.00000000000E+00 0. -1.
<scales pt_clust_5="13000.00000" pt_clust_6="13000.00000" pt_clust_7="13000.00000" pt_clust_8="13000.00000" pt_clust_9="82.64807"></scales>
<clustering>
<clus scale="   78.556">  5  6 -1 -1</clus>
<clus scale="   82.648">  1  9  2 -1</clus>
<clus scale="   89.694">  2  5  1 -1</clus>
<clus scale="   92.836">  7  8 -1 -1</clus>
<clus scale="   82.648">  1  5  2 -1</clus>
</clustering>
</event>
<event>
 9    2  0.9254368E-005  0.1859913E+03  0.7546771E-02  0.1197472E+00
         21   -1    0    0  501  502  0.00000000000E+00  0.00000000000E+00  0.58170703300E+02  0.58170703300E+02  0.00000000000E+00 0. -1.
          2   -1    0    0  502    0 -0.00000000000E+00 -0.00000000000E+00 -0.14400347379E+04  0.14400347379E+04  0.00000000000E+00 0. -1.
         24    2    1    2    0    0  0.13447683528E+02  0.11399759105E+02 -0.77441501608E+03  0.77895661307E+03  0.82121819322E+02 0.  0.
         23    2    1    2    0    0 -0.13279889328E+02 -0.16925107136E+03 -0.47560585856E+03  0.51357995891E+03  0.93494175653E+02 0.  0.
        -11    1    3    3    0    0  0.18424576950E+02  0.38693429635E+02 -0.23821450465E+03  0.24203883316E+03  0.00000000000E+00 0.  1.
         12    1    3    3    0    0 -0.49768934212E+01 -0.27293670530E+02 -0.53620051143E+03  0.53691777991E+03  0.00000000000E+00 0. -1.
        -13    1    4    4    0    0 -0.26006982861E+02 -0.21794228484E+01 -0.71491145565E+02  0.76105827212E+02  0.00000000000E+00 0.  1.
         13    1    4    4    0    0  0.12727093533E+02 -0.16707164851E+03 -0.40411471300E+03  0.43747413170E+03  0.00000000000E+00 0. -1.
          1    1    1    2  501    0 -0.16779420075E+00  0.15785131226E+03 -0.13184315994E+03  0.20566886920E+03  0.00000000000E+00 0. -1.
<scales pt_clust_5="13000.00000" pt_clust_6="13000.00000" pt_clust_7="13000.00000" pt_clust_8="13000.00000" pt_clust_9="160.78433"></scales>
<clustering>
<clus scale="   82.122">  5  6 -1 -1</clus>
<clus scale="   83.993">  2  5  1 -1</clus>
<clus scale="   93.494">  7  8 -1 -1</clus>
<clus scale="  160.784">  1  9  2 -1</clus>
<clus scale="  160.784">  1  5  2 -1</clus>
</clustering>
</event>
<event>
 9    2  0.9254368E-005  0.1190753E+03  0.7546771E-02  0.1247656E+00
          2   -1    0    0  502    0 -0.00000000000E+00  0.00000000000E+00  0.29659230509E+03  0.29659230509E+03  0.00000000000E+00 0. -1.
         21   -1    0    0  501  502  0.00000000000E+00 -0.00000000000E+00 -0.93902322711E+02  0.93902322711E+02  0.00000000000E+00 0.  1.
         23    2    1    2    0    0  0.93387233396E+02  0.20199009581E+02  0.17805155542E+03  0.22159054405E+03  0.90944144809E+02 0.  0.
         24    2    1    2    0    0 -0.40805637516E+02  0.26401290514E+02  0.14784616325E+01  0.94925734299E+02  0.81526566158E+02 0.  0.
        -11    1    4    4    0    0 -0.81558745504E+01  0.26790002962E+02 -0.35746423594E+02  0.45409573309E+02  0.00000000000E+00 0.  1.
         12    1    4    4    0    0 -0.32649762966E+02 -0.38871244839E+00  0.37224885226E+02  0.49516160990E+02  0.00000000000E+00 0. -1.
        -11    1    3    3    0    0  0.91882469171E+01  0.40796680528E+02  0.83062978385E+02  0.92995975191E+02  0.00000000000E+00 0. -1.
         11    1    3    3    0    0  0.84198986479E+02 -0.20597670947E+02  0.94988577031E+02  0.12859456885E+03  0.00000000000E+00 0.  1.
          1    1    1    2  501    0 -0.52581595880E+02 -0.46600300094E+02  0.23159965330E+02  0.73978349456E+02  0.00000000000E+00 0. -1.
<scales pt_clust_5="13000.00000" pt_clust_6="13000.00000" pt_clust_7="13000.00000" pt_clust_8="13000.00000" pt_clust_9="70.25961"></scales>
<clustering>
<clus scale="   70.260">  2  9  1 -1</clus>
<clus scale="   81.527">  5  6 -1 -1</clus>
<clus scale="   90.944">  7  8 -1 -1</clus>
<clus scale="  112.048">  2  5  1 -1</clus>
<clus scale="   70.260">  2  5  1 -1</clus>
</clustering>
</event>
<event>
 9    2  0.9254368E-005  0.9452963E+02  0.7546771E-02  0.1299747E+00
         21   -1    0    0  501  502  0.00000000000E+00  0.00000000000E+00  0.54576211584E+02  0.54576211584E+02  0.00000000000E+00 0.  1.
          4   -1    0    0  502    0 -0.00000000000E+00 -0.00000000000E+00 -0.37905314058E+03  0.37905314058E+03  0.00000000000E+00 0. -1.
         24    2    1    2    0    0 -0.71573368721E+00 -0.12926151508E+01 -0.29763178533E+03  0.30877642718E+03  0.82195007232E+02 0.  0.
         23    2    1    2    0    0  0.12557276123E+02 -0.19854733536E+02 -0.25106788764E+02  0.10055365829E+03  0.94492283955E+02 0.  0.
        -13    1    3    3    0    0  0.30139980467E+02 -0.25635857417E+02 -0.10572915442E+03  0.11289052087E+03  0.00000000000E+00 0.  1.
         14    1    3    3    0    0 -0.30855714154E+02  0.24343242266E+02 -0.19190263091E+03  0.19588590631E+03  0.00000000000E+00 0. -1.
        -11    1    4    4    0    0 -0.30907497318E+02 -0.37741548651E+02 -0.37450961933E+01  0.48925694993E+02  0.00000000000E+00 0.  1.
         11    1    4    4    0    0  0.43464773441E+02  0.17886815115E+02 -0.21361692571E+02  0.51627963302E+02  0.00000000000E+00 0. -1.
          3    1    1    2  501    0 -0.11841542436E+02  0.21147348687E+02 -0.17383548973E+01  0.24299266686E+02  0.00000000000E+00 0. -1.
<scales pt_clust_5="13000.00000" pt_clust_6="13000.00000" pt_clust_7="13000.00000" pt_clust_8="13000.00000" pt_clust_9="24.23701"></scales>
<clustering>
<clus scale="   24.237">  1  9  2 -1</clus>
<clus scale="   82.195">  5  6 -1 -1</clus>
<clus scale="   82.238">  2  5  1 -1</clus>
<clus scale="   94.492">  7  8 -1 -1</clus>
<clus scale="   24.237">  1  5  2 -1</clus>
</clustering>
</event>
<event>
 9    2  0.9254368E-005  0.1381373E+03  0.7546771E-02  0.1218223E+00
         21   -1    0    0  501  502  0.00000000000E+00  0.00000000000E+00  0.20874396794E+03  0.20874396794E+03  0.00000000000E+00 0. -1.
          2   -1    0    0  502    0 -0.00000000000E+00 -0.00000000000E+00 -0.13368500107E+03  0.13368500107E+03  0.00000000000E+00 0. -1.
         23    2    1    2    0    0  0.84572603643E+01 -0.91863018342E+02  0.42965728532E+02  0.13659471542E+03  0.91113791822E+02 0.  0.
         24    2    1    2    0    0  0.12285759640E+01  0.11883320434E+03  0.68853042656E+02  0.15922428071E+03  0.80553027450E+02 0.  0.
        -13    1    4    4    0    0  0.15756508643E+02  0.61179007487E+02 -0.61949035810E+01  0.63478463687E+02  0.00000000000E+00 0.  1.
         14    1    4    4    0    0 -0.14527932679E+02  0.57654196855E+02  0.75047946237E+02  0.95745817022E+02  0.00000000000E+00 0. -1.
        -11    1    3    3    0    0  0.33372171237E+02 -0.70533690111E+02  0.61110805431E+02  0.99112228278E+02  0.00000000000E+00 0. -1.
         11    1    3    3    0    0 -0.24914910873E+02 -0.21329328231E+02 -0.18145076899E+02  0.37482487141E+02  0.00000000000E+00 0.  1.
          1    1    1    2  501    0 -0.96858363284E+01 -0.26970186000E+02 -0.36759804322E+02  0.46609972882E+02  0.00000000000E+00 0. -1.
<scales pt_clust_5="13000.00000" pt_clust_6="13000.00000" pt_clust_7="13000.00000" pt_clust_8="13000.00000" pt_clust_9="28.65671"></scales>
<clustering>
<clus scale="   28.657">  1  9  2 -1</clus>
<clus scale="   80.553">  5  6 -1 -1</clus>
<clus scale="   91.114">  7  8 -1 -1</clus>
<clus scale="  131.412">  1  5  2 -1</clus>
<clus scale="   28.657">  1  5  2 -1</clus>
</clustering>
</event>
<event>
 9    2  0.9254368E-005  0.2585022E+03  0.7546771E-02  0.1108550E+00
         -1   -1    0    0    0  501 -0.00000000000E+00  0.00000000000E+00  0.57116293911E+03  0.57116293911E+03  0.00000000000E+00 0.  1.
         21   -1    0    0  501  502  0.00000000000E+00 -0.00000000000E+00 -0.61966341254E+03  0.61966341254E+03  0.00000000000E+00 0.  1.
         23    2    1    2    0    0 -0.14056833666E+03 -0.19991121350E+03  0.47880119316E+03  0.54507271303E+03  0.90165011867E+02 0.  0.
         24    2    1    2    0    0  0.31085262150E+02  0.24086973705E+03 -0.35490266801E+03  0.43746163452E+03  0.80201335222E+02 0.  0.
        -13    1    4    4    0    0  0.11483653681E+02  0.23377461932E+03 -0.31495272334E+03  0.39239987880E+03  0.00000000000E+00 0.  1.
         14    1    4    4    0    0  0.19601608469E+02  0.70951177275E+01 -0.39949944664E+02  0.45061755723E+02  0.00000000000E+00 0. -1.
        -13    1    3    3    0    0 -0.13493778052E+03 -0.15330797633E+03  0.43635609687E+03  0.48178645010E+03  0.00000000000E+00 0.  1.
         13    1    3    3    0    0 -0.56305561348E+01 -0.46603237172E+02  0.42445096285E+02  0.63286262932E+02  0.00000000000E+00 0. -1.
         -2    1    1    2    0  502  0.10948307451E+03 -0.40958523552E+02 -0.17239899859E+03  0.20829200409E+03  0.00000000000E+00 0.  1.
<scales pt_clust_5="13000.00000" pt_clust_6="13000.00000" pt_clust_7="13000.00000" pt_clust_8="13000.00000" pt_clust_9="116.89373"></scales>
<clustering>
<clus scale="   80.201">  5  6 -1 -1</clus>
<clus scale="   90.165">  7  8 -1 -1</clus>
<clus scale="  116.894">  2  9  1 -1</clus>
<clus scale="  255.198">  2  5  1 -1</clus>
<clus scale="  116.894">  2  5  1 -1</clus>
</clustering>
</event>
<event>
 9    2  0.9254368E-005  0.1270682E+03  0.7546771E-02  0.1235053E+00
          2   -1    0    0  502    0 -0.00000000000E+00  0.00000000000E+00  0.94419964872E+03  0.94419964872E+03  0.00000000000E+00 0. -1.
         21   -1    0    0  501  502  0.00000000000E+00 -0.00000000000E+00 -0.30235455967E+03  0.30235455967E+03  0.00000000000E+00 0. -1.
         24    2    1    2    0    0  0.84125852361E+02 -0.30950221598E+02  0.87891971403E+03  0.88721428418E+03  0.81328021520E+02 0.  0.
         23    2    1    2    0    0 -0.51210199898E+02  0.20391713799E+02  0.11427259044E+02  0.10844530764E+03  0.92690322769E+02 0.  0.
        -11    1    3    3    0    0  0.58136920895E+02 -0.55975769299E+02  0.48747283590E+03  0.49410824124E+03  0.00000000000E+00 0.  1.
         12    1    3    3    0    0  0.25988931466E+02  0.25025547702E+02  0.39144687813E+03  0.39310604294E+03  0.00000000000E+00 0. -1.
        -11    1    4    4    0    0 -0.14100208679E+02  0.45526779170E+02  0.33723646763E+02  0.58384825575E+02  0.00000000000E+00 0. -1.
         11    1    4    4    0    0 -0.37109991219E+02 -0.25135065370E+02 -0.22296387720E+02  0.50060482067E+02  0.00000000000E+00 0.  1.
          1    1    1    2  501    0 -0.32915652463E+02  0.10558507798E+02 -0.24850188403E+03  0.25089461658E+03  0.00000000000E+00 0. -1.
<scales pt_clust_5="13000.00000" pt_clust_6="13000.00000" pt_clust_7="13000.00000" pt_clust_8="13000.00000" pt_clust_9="34.56765"></scales>
<clustering>
<clus scale="   34.568">  2  9  1 -1</clus>
<clus scale="   81.328">  5  6 -1 -1</clus>
<clus scale="   92.690">  7  8 -1 -1</clus>
<clus scale="  119.034">  1  5  2 -1</clus>
<clus scale="   34.568">  2  5  1 -1</clus>
</clustering>
</event>
<event>
 9    2  0.9254368E-005  0.1558151E+03  0.7546771E-02  0.1196562E+00
         21   -1    0    0  501  502  0.00000000000E+00  0.00000000000E+00  0.24540830390E+02  0.24540830390E+02  0.00000000000E+00 0.  1.
          2   -1    0    0  502    0 -0.00000000000E+00 -0.00000000000E+00 -0.13960300088E+04  0.13960300088E+04  0.00000000000E+00 0. -1.
         24    2    1    2    0    0 -0.71866363980E+02  0.10247251281E+03 -0.53687527190E+03  0.55624023101E+03  0.74180501912E+02 0.  0.
         23    2    1    2    0    0  0.11827736719E+03 -0.62097732343E+02 -0.57327787182E+03  0.59585225310E+03  0.92448500568E+02 0.  0.
        -13    1    3    3    0    0 -0.52803970191E+02  0.75101011998E+02 -0.23135729765E+03  0.24890685095E+03  0.00000000000E+00 0.  1.
         14    1    3    3    0    0 -0.19062393789E+02  0.27371500816E+02 -0.30551797424E+03  0.30733338006E+03  0.00000000000E+00 0. -1.
        -13    1    4    4    0    0  0.62543982997E+02  0.12834337387E+02 -0.30988826841E+03  0.31639723280E+03  0.00000000000E+00 0.  1.
         13    1    4    4    0    0  0.55733384192E+02 -0.74932069731E+02 -0.26338960341E+03  0.27945502030E+03  0.00000000000E+00 0. -1.
          1    1    1    2  501    0 -0.46411003209E+02 -0.40374780471E+02 -0.26133603469E+03  0.26847835508E+03  0.00000000000E+00 0. -1.
<scales pt_clust_5="13000.00000" pt_clust_6="13000.00000" pt_clust_7="13000.00000" pt_clust_8="13000.00000" pt_clust_9="61.51510"></scales>
<clustering>
<clus scale="   61.515">  1  9  2 -1</clus>
<clus scale="   74.181">  5  6 -1 -1</clus>
<clus scale="   92.449">  7  8 -1 -1</clus>
<clus scale="  145.720">  2  5  1 -1</clus>
<clus scale="   61.515">  1  5  2 -1</clus>
</clustering>
</event>
<event>
 9    2  0.9254368E-005  0.1661345E+03  0.7546771E-02  0.1185151E+00
         21   -1    0    0  501  502  0.00000000000E+00  0.00000000000E+00  0.96411181789E+02  0.96411181789E+02  0.00000000000E+00 0. -1.
          2   -1    0    0  502    0 -0.00000000000E+00 -0.00000000000E+00 -0.35244298166E+03  0.35244298166E+03  0.00000000000E+00 0. -1.
         23    2    1    2    0    0  0.10613380892E+03 -0.10225978659E+03 -0.14586509443E+03  0.23031682185E+03  0.10023853203E+03 0.  0.
         24    2    1    2    0    0 -0.77530050303E+02  0.84938889144E+02 -0.47997652373E+02  0.14794570148E+03  0.79741033126E+02 0.  0.
        -13    1    4    4    0    0 -0.52164155354E+02  0.53352343670E+01 -0.35849556940E+02  0.63519717902E+02  0.00000000000E+00 0.  1.
         14    1    4    4    0    0 -0.25365894949E+02  0.79603654777E+02 -0.12148095433E+02  0.84425983578E+02  0.00000000000E+00 0. -1.
        -11    1    3    3    0    0  0.59243771181E+02 -0.39024250712E+01 -0.90127389834E+02  0.10792589932E+03  0.00000000000E+00 0.  1.
         11    1    3    3    0    0  0.46890037742E+02 -0.98357361517E+02 -0.55737704592E+02  0.12239092253E+03  0.00000000000E+00 0. -1.
          1    1    1    2  501    0 -0.28603758621E+02  0.17320897444E+02 -0.62169053076E+02  0.70591640128E+02  0.00000000000E+00 0. -1.
<scales pt_clust_5="13000.00000" pt_clust_6="13000.00000" pt_clust_7="13000.00000" pt_clust_8="13000.00000" pt_clust_9="33.43934"></scales>
<clustering>
<clus scale="   33.439">  1  9  2 -1</clus>
<clus scale="   79.741">  5  6 -1 -1</clus>
<clus scale="  100.239">  7  8 -1 -1</clus>
<clus scale="  154.634">  1  5  2 -1</clus>
<clus scale="   33.439">  1  5  2 -1</clus>
</clustering>
</event>
<event>
 9    2  0.9254368E-005  0.1456966E+03  0.7546771E-02  0.1232702E+00
         21   -1    0    0  501  502  0.00000000000E+00  0.00000000000E+00  0.16468211072E+03  0.16468211072E+03  0.00000000000E+00 0. -1.
          2   -1    0    0  502    0 -0.00000000000E+00 -0.00000000000E+00 -0.30583348607E+03  0.30583348607E+03  0.00000000000E+00 0. -1.
         24    2    1    2    0    0 -0.93195708374E+01 -0.16270421874E+02  0.80928023168E+02  0.11582942697E+03  0.80718834165E+02 0.  0.
         23    2    1    2    0    0 -0.10526315130E+03  0.26085093322E+02 -0.18601556626E+03  0.23416178231E+03  0.92028182029E+02 0.  0.
        -13    1    3    3    0    0  0.10380812929E+02  0.29680568844E+02  0.41996377335E+02  0.52463255267E+02  0.00000000000E+00 0.  1.
         14    1    3    3    0    0 -0.19700383766E+02 -0.45950990719E+02  0.38931645833E+02  0.63366171699E+02  0.00000000000E+00 0. -1.
        -11    1    4    4    0    0 -0.44865880028E+01  0.40105259220E+02 -0.48394434243E+02  0.63012558707E+02  0.00000000000E+00 0.  1.
         11    1    4    4    0    0 -0.10077656330E+03 -0.14020165898E+02 -0.13762113202E+03  0.17114922360E+03  0.00000000000E+00 0. -1.
          1    1    1    2  501    0  0.11458272214E+03 -0.98146714475E+01 -0.36063832251E+02  0.12052438751E+03  0.00000000000E+00 0. -1.
<scales pt_clust_5="13000.00000" pt_clust_6="13000.00000" pt_clust_7="13000.00000" pt_clust_8="13000.00000" pt_clust_9="112.95272"></scales>
<clustering>
<clus scale="   80.719">  5  6 -1 -1</clus>
<clus scale="   82.868">  2  5  1 -1</clus>
<clus scale="   92.028">  7  8 -1 -1</clus>
<clus scale="  112.953">  1  9  2 -1</clus>
<clus scale="  112.953">  1  5  2 -1</clus>
</clustering>
</event>
<event>
 9    2  0.9254368E-005  0.1494622E+03  0.7546771E-02  0.1202883E+00
         -3   -1    0    0    0  501 -0.00000000000E+00  0.00000000000E+00  0.54291343798E+03  0.54291343798E+03  0.00000000000E+00 0.  1.
         21   -1    0    0  501  502  0.00000000000E+00 -0.00000000000E+00 -0.21115297549E+03  0.21115297549E+03  0.00000000000E+00 0.  1.
         23    2    1    2    0    0  0.27118442306E+02 -0.12975429207E+03  0.41075238840E+03  0.44074635902E+03  0.89265011021E+02 0.  0.
         24    2    1    2    0    0  0.99699629908E+02  0.74374480716E+02  0.11243005057E+02  0.14811687738E+03  0.79628039130E+02 0.  0.
        -13    1    4    4    0    0  0.11057201464E+03  0.77320304602E+02  0.45228572079E+01  0.13500020801E+03  0.00000000000E+00 0.  1.
         14    1    4    4    0    0 -0.10872384733E+02 -0.29458238867E+01  0.67201478495E+01  0.13116669367E+02  0.00000000000E+00 0. -1.
        -11    1    3    3    0    0 -0.64205921066E+01 -0.12588265805E+03  0.32272823608E+03  0.34646959746E+03  0.00000000000E+00 0.  1.
         11    1    3    3    0    0  0.33539034412E+02 -0.38716340208E+01  0.88024152324E+02  0.94276761567E+02  0.00000000000E+00 0. -1.
         -4    1    1    2    0  502 -0.12681807221E+03  0.55379811358E+02 -0.90234930972E+02  0.16520317707E+03  0.00000000000E+00 0.  1.
<scales pt_clust_5="13000.00000" pt_clust_6="13000.00000" pt_clust_7="13000.00000" pt_clust_8="13000.00000" pt_clust_9="138.38261"></scales>
<clustering>
<clus scale="   79.628">  5  6 -1 -1</clus>
<clus scale="   89.265">  7  8 -1 -1</clus>
<clus scale="  138.383">  2  9  1 -1</clus>
<clus scale="  143.914">  2  5  1 -1</clus>
<clus scale="  138.383">  2  5  1 -1</clus>
</clustering>
</event>
<event>
 9    2  0.9254368E-005  0.1237273E+03  0.7546771E-02  0.1239876E+00
         21   -1    0    0  501  502  0.00000000000E+00  0.00000000000E+00  0.17536147951E+03  0.17536147951E+03  0.00000000000E+00 0. -1.
         -3   -1    0    0    0  501 -0.00000000000E+00 -0.00000000000E+00 -0.35039624390E+03  0.35039624390E+03  0.00000000000E+00 0.  1.
         24    2    1    2    0    0 -0.37083016232E+02  0.78910008882E+02 -0.28445441631E+03  0.30882482913E+03  0.82804109405E+02 0.  0.
         23    2    1    2    0    0  0.21090130830E+02 -0.56187674105E+02  0.64000249482E+01  0.11023181453E+03  0.92240144595E+02 0.  0.
        -11    1    3    3    0    0 -0.29585142775E+02  0.93301359588E+02 -0.26962711184E+03  0.28684351799E+03  0.00000000000E+00 0.  1.
         12    1    3    3    0    0 -0.74978734574E+01 -0.14391350706E+02 -0.14827304467E+02  0.21981311137E+02  0.00000000000E+00 0. -1.
        -13    1    4    4    0    0 -0.30760147047E+00 -0.59843017926E+02  0.38735074899E+02  0.71285955423E+02  0.00000000000E+00 0. -1.
         13    1    4    4    0    0  0.21397732301E+02  0.36553438207E+01 -0.32335049951E+02  0.38945859105E+02  0.00000000000E+00 0.  1.
         -4    1    1    2    0  502  0.15992885402E+02 -0.22722334777E+02  0.10301962696E+03  0.10670107975E+03  0.00000000000E+00 0.  1.
<scales pt_clust_5="13000.00000" pt_clust_6="13000.00000" pt_clust_7="13000.00000" pt_clust_8="13000.00000" pt_clust_9="27.78627"></scales>
<clustering>
<clus scale="   27.786">  1  9  2 -1</clus>
<clus scale="   82.804">  5  6 -1 -1</clus>
<clus scale="   92.240">  7  8 -1 -1</clus>
<clus scale="  116.862">  2  5  1 -1</clus>
<clus scale="   27.786">  1  5  2 -1</clus>
</clustering>
</event>
<event>
 9    2  0.9254368E-005  0.2064991E+03  0.7546771E-02  0.1177007E+00
         21   -1    0    0  501  502  0.00000000000E+00  0.00000000000E+00  0.14443021895E+04  0.14443021895E+04  0.00000000000E+00 0.  1.
         -3   -1    0    0    0  501 -0.00000000000E+00 -0.00000000000E+00 -0.43082404129E+02  0.43082404129E+02  0.00000000000E+00 0.  1.
         24    2    1    2    0    0  0.35545227743E+01 -0.55175640780E+02  0.18721090512E+03  0.21069570285E+03  0.79295461646E+02 0.  0.
         23    2    1    2    0    0 -0.76646637748E+02  0.19865033824E+03  0.72504462441E+03  0.76189428166E+03  0.97244666077E+02 0.  0.
        -11    1    3    3    0    0 -0.79974124821E+01 -0.63198267361E+02  0.18596861233E+03  0.19657645936E+03  0.00000000000E+00 0.  1.
         12    1    3    3    0    0  0.11551935256E+02  0.80226265812E+01  0.12422927924E+01  0.14119243493E+02  0.00000000000E+00 0. -1.
        -11    1    4    4    0    0 -0.14150140625E+02  0.13917097432E+03  0.53835642801E+03  0.55623415047E+03  0.00000000000E+00 0. -1.
         11    1    4    4    0    0 -0.62496497123E+02  0.59479363924E+02  0.18668819640E+03  0.20566013119E+03  0.00000000000E+00 0.  1.
         -4    1    1    2    0  502  0.73092114974E+02 -0.14347469746E+03  0.48896425589E+03  0.51479460916E+03  0.00000000000E+00 0.  1.
<scales pt_clust_5="13000.00000" pt_clust_6="13000.00000" pt_clust_7="13000.00000" pt_clust_8="13000.00000" pt_clust_9="182.16842"></scales>
<clustering>
<clus scale="   79.295">  5  6 -1 -1</clus>
<clus scale="   96.668">  2  5  1 -1</clus>
<clus scale="   97.245">  7  8 -1 -1</clus>
<clus scale="  182.168">  1  9  2 -1</clus>
<clus scale="  182.168">  1  5  2 -1</clus>
</clustering>
</event>
<event>
 9    2  0.9254368E-005  0.1573862E+03  0.7546771E-02  0.1194216E+00
          2   -1    0    0  502    0 -0.00000000000E+00  0.00000000000E+00  0.33986823277E+03  0.33986823277E+03  0.00000000000E+00 0. -1.
         21   -1    0    0  501  502  0.00000000000E+00 -0.00000000000E+00 -0.11287401211E+03  0.11287401211E+03  0.00000000000E+00 0. -1.
         23    2    1    2    0    0 -0.10329913004E+02 -0.13044074712E+03  0.14185271078E+03  0.21420985636E+03  0.92963301333E+02 0.  0.
         24    2    1    2    0    0 -0.32899536385E+02  0.12003094856E+03  0.48753933314E+01  0.14677292761E+03  0.77644798356E+02 0.  0.
        -11    1    4    4    0    0 -0.49155529551E+02  0.51585807687E+02 -0.16706284632E+02  0.73187851358E+02  0.00000000000E+00 0.  1.
         12    1    4    4    0    0  0.16255993166E+02  0.68445140872E+02  0.21581677964E+02  0.73585076249E+02  0.00000000000E+00 0. -1.
        -13    1    3    3    0    0 -0.44172807939E+02 -0.60685874132E+02  0.10311165813E+03  0.12753833276E+03  0.00000000000E+00 0.  1.
         13    1    3    3    0    0  0.33842894935E+02 -0.69754872985E+02  0.38741052647E+02  0.86671523599E+02  0.00000000000E+00 0. -1.
          1    1    1    2  501    0  0.43229449389E+02  0.10409798558E+02  0.80266116557E+02  0.91759460916E+02  0.00000000000E+00 0. -1.
<scales pt_clust_5="13000.00000" pt_clust_6="13000.00000" pt_clust_7="13000.00000" pt_clust_8="13000.00000" pt_clust_9="44.46517"></scales>
<clustering>
<clus scale="   44.465">  2  9  1 -1</clus>
<clus scale="   77.645">  5  6 -1 -1</clus>
<clus scale="   92.963">  7  8 -1 -1</clus>
<clus scale="  148.852">  2  5  1 -1</clus>
<clus scale="   44.465">  2  5  1 -1</clus>
</clustering>
</event>
<event>
 9    2  0.9254368E-005  0.1502294E+03  0.7546771E-02  0.1201699E+00
          2   -1    0    0  502    0 -0.00000000000E+00  0.00000000000E+00  0.14574114627E+03  0.14574114627E+03  0.00000000000E+00 0. -1.
         21   -1    0    0  501  502  0.00000000000E+00 -0.00000000000E+00 -0.26924351015E+03  0.26924351015E+03  0.00000000000E+00 0. -1.
         23    2    1    2    0    0  0.11287758864E+01  0.11947912387E+03  0.46108125607E+02  0.15593776902E+03  0.88961190335E+02 0.  0.
         24    2    1    2    0    0 -0.27700339672E+02 -0.12375031098E+03 -0.90251877393E+02  0.17524903328E+03  0.80531819852E+02 0.  0.
        -13    1    4    4    0    0 -0.43241403811E+02 -0.24454457758E+02 -0.27946338600E+02  0.56998573219E+02  0.00000000000E+00 0.  1.
         14    1    4    4    0    0  0.15541064140E+02 -0.99295853218E+02 -0.62305538793E+02  0.11825046006E+03  0.00000000000E+00 0. -1.
        -11    1    3    3    0    0 -0.31048241164E+02  0.27089757085E+02  0.40760903039E+02  0.57959463722E+02  0.00000000000E+00 0. -1.
         11    1    3    3    0    0  0.32177017051E+02  0.92389366781E+02  0.53472225682E+01  0.97978305301E+02  0.00000000000E+00 0.  1.
          1    1    1    2  501    0  0.26571563785E+02  0.42711871101E+01 -0.79358612093E+02  0.83797854117E+02  0.00000000000E+00 0. -1.
<scales pt_clust_5="13000.00000" pt_clust_6="13000.00000" pt_clust_7="13000.00000" pt_clust_8="13000.00000" pt_clust_9="26.91266"></scales>
<clustering>
<clus scale="   26.913">  2  9  1 -1</clus>
<clus scale="   80.532">  5  6 -1 -1</clus>
<clus scale="   88.961">  7  8 -1 -1</clus>
<clus scale="  145.396">  2  5  1 -1</clus>
<clus scale="   26.913">  2  5  1 -1</clus>
</clustering>
</event>
<event>
 9    2  0.9254368E-005  0.1406027E+03  0.7546771E-02  0.1214542E+00
         21   -1    0    0  501  502  0.00000000000E+00  0.00000000000E+00  0.77168201570E+03  0.77168201570E+03  0.00000000000E+00 0.  1.
          4   -1    0    0  502    0 -0.00000000000E+00 -0.00000000000E+00 -0.35592919836E+02  0.35592919836E+02  0.00000000000E+00 0. -1.
         24    2    1    2    0    0  0.10455011884E+03  0.69121618129E+01  0.25588615034E+03  0.28867668850E+03  0.82933727866E+02 0.  0.
         23    2    1    2    0    0 -0.10587762691E+03 -0.30182216407E+02  0.47281883448E+03  0.49414864961E+03  0.92218217303E+02 0.  0.
        -11    1    3    3    0    0  0.79805339773E+02  0.29623939786E+02  0.11064371219E+03  0.13960122175E+03  0.00000000000E+00 0.  1.
         12    1    3    3    0    0  0.24744779063E+02 -0.22711777973E+02  0.14524243814E+03  0.14907546675E+03  0.00000000000E+00 0. -1.
        -13    1    4    4    0    0 -0.43577720674E+02  0.31718657286E+02  0.14245525648E+03  0.15231083697E+03  0.00000000000E+00 0. -1.
         13    1    4    4    0    0 -0.62299906234E+02 -0.61900873693E+02  0.33036357800E+03  0.34183781264E+03  0.00000000000E+00 0.  1.
          3    1    1    2  501    0  0.13275080714E+01  0.23270054594E+02  0.73841110420E+01  0.24449597427E+02  0.00000000000E+00 0. -1.
<scales pt_clust_5="13000.00000" pt_clust_6="13000.00000" pt_clust_7="13000.00000" pt_clust_8="13000.00000" pt_clust_9="23.30790"></scales>
<clustering>
<clus scale="   23.308">  1  9  2 -1</clus>
<clus scale="   82.934">  5  6 -1 -1</clus>
<clus scale="   92.218">  7  8 -1 -1</clus>
<clus scale="  134.696">  2  5  1 -1</clus>
<clus scale="   23.308">  1  5  2 -1</clus>
</clustering>
</event>
<event>
 9    2  0.9254368E-005  0.9995307E+02  0.7546771E-02  0.1284640E+00
         21   -1    0    0  501  502  0.00000000000E+00  0.00000000000E+00  0.39713620855E+03  0.39713620855E+03  0.00000000000E+00 0. -1.
          2   -1    0    0  502    0 -0.00000000000E+00 -0.00000000000E+00 -0.71315392541E+02  0.71315392541E+02  0.00000000000E+00 0. -1.
         23    2    1    2    0    0 -0.13559570997E+02 -0.58633923815E+02  0.57169816732E+01  0.10868805825E+03  0.90325030518E+02 0.  0.
         24    2    1    2    0    0 -0.11956612796E+02  0.13666400409E+02  0.85918995885E+02  0.11993924809E+03  0.81692216814E+02 0.  0.
        -13    1    4    4    0    0  0.24565820720E+02  0.17012600184E+02  0.39526190009E+01  0.30141853122E+02  0.00000000000E+00 0.  1.
         14    1    4    4    0    0 -0.36522433516E+02 -0.33461997741E+01  0.81966376884E+02  0.89797394964E+02  0.00000000000E+00 0. -1.
        -11    1    3    3    0    0  0.35503124342E+02 -0.31331313802E+02  0.18949474562E+02  0.51002016125E+02  0.00000000000E+00 0.  1.
         11    1    3    3    0    0 -0.49062695340E+02 -0.27302610013E+02 -0.13232492889E+02  0.57686042121E+02  0.00000000000E+00 0. -1.
          1    1    1    2  501    0  0.25516183793E+02  0.44967523406E+02  0.23418483845E+03  0.23982429476E+03  0.00000000000E+00 0. -1.
<scales pt_clust_5="13000.00000" pt_clust_6="13000.00000" pt_clust_7="13000.00000" pt_clust_8="13000.00000" pt_clust_9="51.70255"></scales>
<clustering>
<clus scale="   51.703">  1  9  2 -1</clus>
<clus scale="   81.692">  5  6 -1 -1</clus>
<clus scale="   90.325">  7  8 -1 -1</clus>
<clus scale="   92.226">  1  5  2 -1</clus>
<clus scale="   51.703">  1  5  2 -1</clus>
</clustering>
</event>
<event>
 9    2  0.9254368E-005  0.1171198E+03  0.7546771E-02  0.1252063E+00
          2   -1    0    0  502    0 -0.00000000000E+00  0.00000000000E+00  0.60178158484E+03  0.60178158484E+03  0.00000000000E+00 0. -1.
         21   -1    0    0  501  502  0.00000000000E+00 -0.00000000000E+00 -0.33745488892E+02  0.33745488892E+02  0.00000000000E+00 0. -1.
         24    2    1    2    0    0  0.62036205914E+02 -0.16297644028E+02  0.27486833392E+03  0.29321814009E+03  0.79436595118E+02 0.  0.
         23    2    1    2    0    0 -0.87769231931E+02 -0.22007111302E+01  0.28104976752E+03  0.30837924808E+03  0.91654283135E+02 0.  0.
        -11    1    3    3    0    0  0.69705579279E+02 -0.15805778352E+02  0.13171252497E+03  0.14985619656E+03  0.00000000000E+00 0.  1.
         12    1    3    3    0    0 -0.76693733650E+01 -0.49186567622E+00  0.14315580895E+03  0.14336194354E+03  0.00000000000E+00 0. -1.
        -13    1    4    4    0    0 -0.80485461711E+02  0.35537898215E+02  0.18253706698E+03  0.20263423348E+03  0.00000000000E+00 0. -1.
         13    1    4    4    0    0 -0.72837702196E+01 -0.37738609345E+02  0.98512700542E+02  0.10574501460E+03  0.00000000000E+00 0.  1.
          1    1    1    2  501    0  0.25733026017E+02  0.18498355158E+02  0.12117994510E+02  0.33929685564E+02  0.00000000000E+00 0. -1.
<scales pt_clust_5="13000.00000" pt_clust_6="13000.00000" pt_clust_7="13000.00000" pt_clust_8="13000.00000" pt_clust_9="31.69192"></scales>
<clustering>
<clus scale="   31.692">  2  9  1 -1</clus>
<clus scale="   79.437">  5  6 -1 -1</clus>
<clus scale="   91.654">  7  8 -1 -1</clus>
<clus scale="  107.827">  1  5  2 -1</clus>
<clus scale="   31.692">  2  5  1 -1</clus>
</clustering>
</event>
<event>
 9    2  0.9254368E-005  0.9757661E+02  0.7546771E-02  0.1287684E+00
         -1   -1    0    0    0  501 -0.00000000000E+00  0.00000000000E+00  0.23583277492E+03  0.23583277492E+03  0.00000000000E+00 0.  1.
         21   -1    0    0  501  502  0.00000000000E+00 -0.00000000000E+00 -0.85134356398E+02  0.85134356398E+02  0.00000000000E+00 0. -1.
         23    2    1    2    0    0 -0.38517747388E+02  0.23172447028E+02  0.15888327357E+03  0.18836678960E+03  0.90650833634E+02 0.  0.
         24    2    1    2    0    0 -0.42887734851E+01 -0.16192874885E+02 -0.13146947878E+02  0.88945616642E+02  0.86359004778E+02 0.  0.
        -11    1    4    4    0    0  0.13024825596E+02 -0.36200430095E+02  0.22487462704E+02  0.44562351820E+02  0.00000000000E+00 0.  1.
         12    1    4    4    0    0 -0.17313599081E+02  0.20007555210E+02 -0.35634410583E+02  0.44383264822E+02  0.00000000000E+00 0. -1.
        -13    1    3    3    0    0  0.23179078851E+02 -0.15621363236E+02  0.37254191403E+02  0.46574364867E+02  0.00000000000E+00 0. -1.
         13    1    3    3    0    0 -0.61696826239E+02  0.38793810263E+02  0.12162908216E+03  0.14179242473E+03  0.00000000000E+00 0.  1.
         -2    1    1    2    0  502  0.42806520873E+02 -0.69795721426E+01  0.49620928348E+01  0.43654725081E+02  0.00000000000E+00 0.  1.
<scales pt_clust_5="13000.00000" pt_clust_6="13000.00000" pt_clust_7="13000.00000" pt_clust_8="13000.00000" pt_clust_9="43.37180"></scales>
<clustering>
<clus scale="   43.372">  2  9  1 -1</clus>
<clus scale="   86.359">  5  6 -1 -1</clus>
<clus scale="   90.651">  7  8 -1 -1</clus>
<clus scale="   93.603">  2  5  1 -1</clus>
<clus scale="   43.372">  2  5  1 -1</clus>
</clustering>
</event>
<event>
 9    2  0.9254368E-005  0.1337823E+03  0.7546771E-02  0.1244966E+00
          2   -1    0    0  502    0 -0.00000000000E+00  0.00000000000E+00  0.12341111692E+04  0.12341111692E+04  0.00000000000E+00 0. -1.
         21   -1    0    0  501  502  0.00000000000E+00 -0.00000000000E+00 -0.22683874174E+02  0.22683874174E+02  0.00000000000E+00 0. -1.
         24    2    1    2    0    0  0.28420797650E+02 -0.89770864695E+01  0.17720869192E+03  0.19585223709E+03  0.77889976655E+02 0.  0.
         23    2    1    2    0    0  0.63538192269E+02 -0.48192998372E+02  0.67578895368E+03  0.68651432443E+03  0.90837991885E+02 0.  0.
        -11    1    3    3    0    0  0.42693697921E+02  0.22503280466E+02  0.11434620345E+03  0.12411367257E+03  0.00000000000E+00 0.  1.
         12    1    3    3    0    0 -0.14272900271E+02 -0.31480366936E+02  0.62862488461E+02  0.71738564524E+02  0.00000000000E+00 0. -1.
        -13    1    4    4    0    0 -0.22088665469E+01 -0.54630242779E+02  0.28962967314E+03  0.29474512733E+03  0.00000000000E+00 0. -1.
         13    1    4    4    0    0  0.65747058816E+02  0.64372444077E+01  0.38615928053E+03  0.39176919710E+03  0.00000000000E+00 0.  1.
          1    1    1    2  501    0 -0.91958989919E+02  0.57170084841E+02  0.35842964947E+03  0.37442848188E+03  0.00000000000E+00 0. -1.
<scales pt_clust_5="13000.00000" pt_clust_6="13000.00000" pt_clust_7="13000.00000" pt_clust_8="13000.00000" pt_clust_9="98.21488"></scales>
<clustering>
<clus scale="   77.890">  5  6 -1 -1</clus>
<clus scale="   83.398">  1  5  2 -1</clus>
<clus scale="   90.838">  7  8 -1 -1</clus>
<clus scale="   98.215">  2  9  1 -1</clus>
<clus scale="   98.215">  2  5  1 -1</clus>
</clustering>
</event>
<event>
 9    2  0.9254368E-005  0.9738098E+02  0.7546771E-02  0.1290736E+00
          2   -1    0    0  502    0 -0.00000000000E+00  0.00000000000E+00  0.25742197392E+03  0.25742197392E+03  0.00000000000E+00 0. -1.
         21   -1    0    0  501  502  0.00000000000E+00 -0.00000000000E+00 -0.77465302569E+02  0.77465302569E+02  0.00000000000E+00 0.  1.
         23    2    1    2    0    0 -0.28442153907E+02  0.17372230345E+02  0.18526225637E+03  0.20848184778E+03  0.89620459240E+02 0.  0.
         24    2    1    2    0    0  0.47380097362E+02 -0.35687872960E+02 -0.24863693065E+01  0.99909080961E+02  0.80356359572E+02 0.  0.
        -11    1    4    4    0    0  0.68518342999E+02 -0.23747293216E+02 -0.12610312270E+02  0.73605144100E+02  0.00000000000E+00 0.  1.
         12    1    4    4    0    0 -0.21138245638E+02 -0.11940579744E+02  0.10123942964E+02  0.26303936861E+02  0.00000000000E+00 0. -1.
        -11    1    3    3    0    0 -0.23013593041E+02  0.52076370191E+02  0.85552226292E+02  0.10276554491E+03  0.00000000000E+00 0. -1.
         11    1    3    3    0    0 -0.54285608661E+01 -0.34704139846E+02  0.99710030078E+02  0.10571630288E+03  0.00000000000E+00 0.  1.
          1    1    1    2  501    0 -0.18937943455E+02  0.18315642615E+02 -0.28192157100E+01  0.26496347747E+02  0.00000000000E+00 0. -1.
<scales pt_clust_5="13000.00000" pt_clust_6="13000.00000" pt_clust_7="13000.00000" pt_clust_8="13000.00000" pt_clust_9="26.34594"></scales>
<clustering>
<clus scale="   26.346">  2  9  1 -1</clus>
<clus scale="   80.356">  5  6 -1 -1</clus>
<clus scale="   88.929">  2  5  1 -1</clus>
<clus scale="   89.620">  7  8 -1 -1</clus>
<clus scale="   26.346">  2  5  1 -1</clus>
</clustering>
</event>
<event>
 9    2  0.9254368E-005  0.9865857E+02  0.7546771E-02  0.1288568E+00
         21   -1    0    0  501  502  0.00000000000E+00  0.00000000000E+00  0.55434512936E+02  0.55434512936E+02  0.00000000000E+00 0. -1.
          2   -1    0    0  502    0 -0.00000000000E+00 -0.00000000000E+00 -0.65360096958E+03  0.65360096958E+03  0.00000000000E+00 0. -1.
         24    2    1    2    0    0  0.16448268708E+02 -0.16788626070E+02 -0.40815921131E+03  0.41743202477E+03  0.84280187603E+02 0.  0.
         23    2    1    2    0    0 -0.51356278885E+02  0.12803244783E+01 -0.21880955473E+03  0.24376362477E+03  0.94360886519E+02 0.  0.
        -13    1    3    3    0    0  0.44626772532E+02  0.10202663386E+02 -0.16808089658E+03  0.17420341834E+03  0.00000000000E+00 0.  1.
         14    1    3    3    0    0 -0.28178503824E+02 -0.26991289456E+02 -0.24007831473E+03  0.24322860643E+03  0.00000000000E+00 0. -1.
        -13    1    4    4    0    0  0.91866968529E+01 -0.35311401880E+02 -0.67370871337E+02  0.76616739728E+02  0.00000000000E+00 0.  1.
         13    1    4    4    0    0 -0.60542975738E+02  0.36591726358E+02 -0.15143868340E+03  0.16714688504E+03  0.00000000000E+00 0. -1.
          1    1    1    2  501    0  0.34908010177E+02  0.15508301592E+02  0.28802309396E+02  0.47839832978E+02  0.00000000000E+00 0. -1.
<scales pt_clust_5="13000.00000" pt_clust_6="13000.00000" pt_clust_7="13000.00000" pt_clust_8="13000.00000" pt_clust_9="38.19786"></scales>
<clustering>
<clus scale="   38.198">  1  9  2 -1</clus>
<clus scale="   84.280">  5  6 -1 -1</clus>
<clus scale="   89.066">  2  5  1 -1</clus>
<clus scale="   94.361">  7  8 -1 -1</clus>
<clus scale="   38.198">  1  5  2 -1</clus>
</clustering>
</event>
<event>
 9    2  0.9254368E-005  0.1053143E+03  0.7546771E-02  0.1271227E+00
          2   -1    0    0  502    0 -0.00000000000E+00  0.00000000000E+00  0.13643635453E+03  0.13643635453E+03  0.00000000000E+00 0. -1.
         21   -1    0    0  501  502  0.00000000000E+00 -0.00000000000E+00 -0.31529126560E+03  0.31529126560E+03  0.00000000000E+00 0. -1.
         24    2    1    2    0    0 -0.71263906422E+02 -0.44719568195E+02 -0.11516636105E+03  0.17079299876E+03  0.93960489408E+02 0.  0.
         23    2    1    2    0    0 -0.13818741194E+01  0.14879736488E+02 -0.14277848534E+03  0.16947591665E+03  0.90072605801E+02 0.  0.
        -11    1    3    3    0    0 -0.12113698479E+02 -0.58614148100E+02 -0.82151123077E+02  0.10164234881E+03  0.00000000000E+00 0.  1.
         12    1    3    3    0    0 -0.59150207943E+02  0.13894579905E+02 -0.33015237977E+02  0.69150649954E+02  0.00000000000E+00 0. -1.
        -13    1    4    4    0    0  0.42673687013E+02  0.18017555378E+02 -0.61763339393E+02  0.77203535917E+02  0.00000000000E+00 0. -1.
         13    1    4    4    0    0 -0.44055561133E+02 -0.31378188904E+01 -0.81015145945E+02  0.92272380736E+02  0.00000000000E+00 0.  1.
          1    1    1    2  501    0  0.72645780541E+02  0.29839831707E+02  0.79089935319E+02  0.11145870471E+03  0.00000000000E+00 0. -1.
<scales pt_clust_5="13000.00000" pt_clust_6="13000.00000" pt_clust_7="13000.00000" pt_clust_8="13000.00000" pt_clust_9="78.53554"></scales>
<clustering>
<clus scale="   78.536">  2  9  1 -1</clus>
<clus scale="   90.073">  7  8 -1 -1</clus>
<clus scale="   93.960">  5  6 -1 -1</clus>
<clus scale="  101.861">  2  7  1 -1</clus>
<clus scale="   78.536">  2  5  1 -1</clus>
</clustering>
</event>
<event>
 9    2  0.9254368E-005  0.9900726E+02  0.7546771E-02  0.1287096E+00
         21   -1    0    0  501  502  0.00000000000E+00  0.00000000000E+00  0.13734821656E+03  0.13734821656E+03  0.00000000000E+00 0. -1.
          2   -1    0    0  502    0 -0.00000000000E+00 -0.00000000000E+00 -0.12061376297E+04  0.12061376297E+04  0.00000000000E+00 0. -1.
         24    2    1    2    0    0  0.16284082727E+02 -0.36992188619E+02 -0.97167780543E+03  0.97576959951E+03  0.79592464370E+02 0.  0.
         23    2    1    2    0    0 -0.18226998074E+02  0.58480915883E+02 -0.21884852928E+03  0.24408203469E+03  0.89045605767E+02 0.  0.
        -13    1    3    3    0    0  0.67910057922E+01 -0.22664937420E+02 -0.69293252200E+02  0.73221389964E+02  0.00000000000E+00 0.  1.
         14    1    3    3    0    0  0.94930769344E+01 -0.14327251199E+02 -0.90238455323E+03  0.90254820954E+03  0.00000000000E+00 0. -1.
        -11    1    4    4    0    0  0.29290238813E+02  0.28818761169E+02 -0.14891707565E+03  0.15448214947E+03  0.00000000000E+00 0. -1.
         11    1    4    4    0    0 -0.47517236886E+02  0.29662154714E+02 -0.69931453634E+02  0.89599885217E+02  0.00000000000E+00 0.  1.
          1    1    1    2  501    0  0.19429153470E+01 -0.21488727264E+02  0.12173692157E+03  0.12363421207E+03  0.00000000000E+00 0. -1.
<scales pt_clust_5="13000.00000" pt_clust_6="13000.00000" pt_clust_7="13000.00000" pt_clust_8="13000.00000" pt_clust_9="21.57638"></scales>
<clustering>
<clus scale="   21.576">  1  9  2 -1</clus>
<clus scale="   79.592">  5  6 -1 -1</clus>
<clus scale="   89.046">  7  8 -1 -1</clus>
<clus scale="   90.600">  2  5  1 -1</clus>
<clus scale="   21.576">  1  5  2 -1</clus>
</clustering>
</event>
<event>
 9    2  0.9254368E-005  0.1044106E+03  0.7546771E-02  0.1278600E+00
          2   -1    0    0  502    0 -0.00000000000E+00  0.00000000000E+00  0.11431867196E+04  0.11431867196E+04  0.00000000000E+00 0. -1.
         21   -1    0    0  501  502  0.00000000000E+00 -0.00000000000E+00 -0.42246914363E+02  0.42246914363E+02  0.00000000000E+00 0. -1.
         24    2    1    2    0    0 -0.42068677605E+02  0.39939036934E+02  0.85514097577E+03  0.86082494443E+03  0.79928694465E+02 0.  0.
         23    2    1    2    0    0 -0.33083478327E+02 -0.74803160368E+01  0.21425318892E+03  0.23687874855E+03  0.95166385282E+02 0.  0.
        -13    1    3    3    0    0 -0.31151017995E+02 -0.10927878111E+02  0.14191633139E+03  0.14570535185E+03  0.00000000000E+00 0.  1.
         14    1    3    3    0    0 -0.10917659610E+02  0.50866915045E+02  0.71322464438E+03  0.71511959257E+03  0.00000000000E+00 0. -1.
        -11    1    4    4    0    0 -0.45121969435E+02  0.31322739278E+02  0.83397231285E+02  0.99860924828E+02  0.00000000000E+00 0.  1.
         11    1    4    4    0    0  0.12038491107E+02 -0.38803055315E+02  0.13085595764E+03  0.13701782373E+03  0.00000000000E+00 0. -1.
          1    1    1    2  501    0  0.75152155932E+02 -0.32458720897E+02  0.31545640511E+02  0.87729940948E+02  0.00000000000E+00 0. -1.
<scales pt_clust_5="13000.00000" pt_clust_6="13000.00000" pt_clust_7="13000.00000" pt_clust_8="13000.00000" pt_clust_9="81.86217"></scales>
<clustering>
<clus scale="   79.929">  5  6 -1 -1</clus>
<clus scale="   81.862">  2  9  1 -1</clus>
<clus scale="   90.739">  1  5  2 -1</clus>
<clus scale="   95.166">  7  8 -1 -1</clus>
<clus scale="   81.862">  2  5  1 -1</clus>
</clustering>
</event>
<event>
 9    2  0.9254368E-005  0.9960768E+02  0.7546771E-02  0.1287110E+00
         -1   -1    0    0    0  501 -0.00000000000E+00  0.00000000000E+00  0.91144732096E+03  0.91144732096E+03  0.00000000000E+00 0.  1.
         21   -1    0    0  501  502  0.00000000000E+00 -0.00000000000E+00 -0.43168021522E+02  0.43168021522E+02  0.00000000000E+00 0.  1.
         24    2    1    2    0    0 -0.39328975999E+02  0.35868949717E+01  0.66757587132E+03  0.67348115440E+03  0.79747646907E+02 0.  0.
         23    2    1    2    0    0  0.39359466649E+02  0.24100698726E+02  0.22311049114E+03  0.24551565011E+03  0.91485692316E+02 0.  0.
        -13    1    3    3    0    0 -0.17921357239E+02 -0.19638833837E+02  0.67102650335E+02  0.72177728710E+02  0.00000000000E+00 0.  1.
         14    1    3    3    0    0 -0.21407618760E+02  0.23225728808E+02  0.60047322099E+03  0.60130342569E+03  0.00000000000E+00 0. -1.
        -13    1    4    4    0    0  0.37341111722E+02 -0.28866352775E+02  0.13099632815E+03  0.13923958825E+03  0.00000000000E+00 0.  1.
         13    1    4    4    0    0  0.20183549271E+01  0.52967051501E+02  0.92114162986E+02  0.10627606186E+03  0.00000000000E+00 0. -1.
         -2    1    1    2    0  502 -0.30490649274E-01 -0.27687593697E+02 -0.22407063021E+02  0.35618537978E+02  0.00000000000E+00 0.  1.
<scales pt_clust_5="13000.00000" pt_clust_6="13000.00000" pt_clust_7="13000.00000" pt_clust_8="13000.00000" pt_clust_9="27.68761"></scales>
<clustering>
<clus scale="   27.688">  2  9  1 -1</clus>
<clus scale="   79.748">  5  6 -1 -1</clus>
<clus scale="   88.948">  1  5  2 -1</clus>
<clus scale="   91.486">  7  8 -1 -1</clus>
<clus scale="   27.688">  2  5  1 -1</clus>
</clustering>
</event>
<event>
 9    2  0.9254368E-005  0.9573471E+02  0.7546771E-02  0.1296593E+00
         21   -1    0    0  501  502  0.00000000000E+00  0.00000000000E+00  0.83311537264E+02  0.83311537264E+02  0.00000000000E+00 0. -1.
          2   -1    0    0  502    0 -0.00000000000E+00 -0.00000000000E+00 -0.33314269825E+03  0.33314269825E+03  0.00000000000E+00 0. -1.
         24    2    1    2    0    0  0.19138419501E+02  0.10581596802E+01 -0.93678063748E+02  0.12446960808E+03  0.79685035639E+02 0.  0.
         23    2    1    2    0    0 -0.49556639577E+02 -0.38773911691E+02  0.16459285683E+02  0.11270054895E+03  0.92039279079E+02 0.  0.
        -13    1    3    3    0    0  0.49265913557E+01 -0.39022079893E+02 -0.48099347982E+02  0.62133254364E+02  0.00000000000E+00 0.  1.
         14    1    3    3    0    0  0.14211828146E+02  0.40080239574E+02 -0.45578715766E+02  0.62336353714E+02  0.00000000000E+00 0. -1.
        -11    1    4    4    0    0 -0.34317214785E+02 -0.58855367985E+02  0.39326460050E+02  0.78665087754E+02  0.00000000000E+00 0. -1.
         11    1    4    4    0    0 -0.15239424792E+02  0.20081456295E+02 -0.22867174367E+02  0.34035461191E+02  0.00000000000E+00 0.  1.
          1    1    1    2  501    0  0.30418220076E+02  0.37715752011E+02 -0.17261238293E+03  0.17928407850E+03  0.00000000000E+00 0. -1.
<scales pt_clust_5="13000.00000" pt_clust_6="13000.00000" pt_clust_7="13000.00000" pt_clust_8="13000.00000" pt_clust_9="48.45357"></scales>
<clustering>
<clus scale="   48.454">  1  9  2 -1</clus>
<clus scale="   79.685">  5  6 -1 -1</clus>
<clus scale="   83.926">  2  5  1 -1</clus>
<clus scale="   92.039">  7  8 -1 -1</clus>
<clus scale="   48.454">  1  5  2 -1</clus>
</clustering>
</event>
<event>
 9    2  0.9254368E-005  0.9979390E+02  0.7546771E-02  0.1287433E+00
         21   -1    0    0  501  502  0.00000000000E+00  0.00000000000E+00  0.11896789909E+03  0.11896789909E+03  0.00000000000E+00 0.  1.
          2   -1    0    0  502    0 -0.00000000000E+00 -0.00000000000E+00 -0.13705219504E+03  0.13705219504E+03  0.00000000000E+00 0. -1.
         24    2    1    2    0    0 -0.26413061949E+02  0.33978417355E+02 -0.34871410912E+02  0.97716555432E+02  0.80500479620E+02 0.  0.
         23    2    1    2    0    0  0.97912897788E+00 -0.17924199388E+02  0.54897135456E+02  0.10975463013E+03  0.93328172256E+02 0.  0.
        -13    1    3    3    0    0 -0.11631024460E+02  0.52127777180E+02  0.26691782561E+01  0.53476260118E+02  0.00000000000E+00 0.  1.
         14    1    3    3    0    0 -0.14782037489E+02 -0.18149359824E+02 -0.37540589168E+02  0.44240295313E+02  0.00000000000E+00 0. -1.
        -13    1    4    4    0    0  0.22212519781E+01  0.37748705259E+02  0.32027715217E+02  0.49554750035E+02  0.00000000000E+00 0.  1.
         13    1    4    4    0    0 -0.12421230003E+01 -0.55672904647E+02  0.22869420240E+02  0.60199880096E+02  0.00000000000E+00 0. -1.
          1    1    1    2  501    0  0.25433932971E+02 -0.16054217967E+02 -0.38110020500E+02  0.48548908571E+02  0.00000000000E+00 0. -1.
<scales pt_clust_5="13000.00000" pt_clust_6="13000.00000" pt_clust_7="13000.00000" pt_clust_8="13000.00000" pt_clust_9="30.07696"></scales>
<clustering>
<clus scale="   30.077">  1  9  2 -1</clus>
<clus scale="   80.500">  5  6 -1 -1</clus>
<clus scale="   87.915">  2  5  1 -1</clus>
<clus scale="   93.328">  7  8 -1 -1</clus>
<clus scale="   30.077">  1  5  2 -1</clus>
</clustering>
</event>
<event>
 9    2  0.9254368E-005  0.1303948E+03  0.7546771E-02  0.1229225E+00
         -1   -1    0    0    0  501 -0.00000000000E+00  0.00000000000E+00  0.63780055828E+02  0.63780055828E+02  0.00000000000E+00 0.  1.
         21   -1    0    0  501  502  0.00000000000E+00 -0.00000000000E+00 -0.35180005252E+03  0.35180005252E+03  0.00000000000E+00 0.  1.
         23    2    1    2    0    0  0.84571378310E+02 -0.36273958445E+02 -0.67407645326E+02  0.14579844466E+03  0.90803511636E+02 0.  0.
         24    2    1    2    0    0 -0.96263712353E+02  0.17095911216E+02 -0.15611009535E+03  0.20148049824E+03  0.81639799144E+02 0.  0.
        -13    1    4    4    0    0 -0.65062073245E+02  0.49705484925E+02 -0.93209453230E+02  0.12406333374E+03  0.00000000000E+00 0.  1.
         14    1    4    4    0    0 -0.31201639109E+02 -0.32609573709E+02 -0.62900642118E+02  0.77417164501E+02  0.00000000000E+00 0. -1.
        -11    1    3    3    0    0  0.62991979719E+02 -0.44336414999E+02 -0.86537115229E+02  0.11585499349E+03  0.00000000000E+00 0.  1.
         11    1    3    3    0    0  0.21579398590E+02  0.80624565539E+01  0.19129469902E+02  0.29943451170E+02  0.00000000000E+00 0. -1.
         -2    1    1    2    0  502  0.11692334044E+02  0.19178047229E+02 -0.64502256018E+02  0.68301165453E+02  0.00000000000E+00 0.  1.
<scales pt_clust_5="13000.00000" pt_clust_6="13000.00000" pt_clust_7="13000.00000" pt_clust_8="13000.00000" pt_clust_9="22.46126"></scales>
<clustering>
<clus scale="   22.461">  2  9  1 -1</clus>
<clus scale="   81.640">  5  6 -1 -1</clus>
<clus scale="   90.804">  7  8 -1 -1</clus>
<clus scale="  124.188">  2  5  1 -1</clus>
<clus scale="   22.461">  2  5  1 -1</clus>
</clustering>
</event>
<event>
 9    2  0.9254368E-005  0.2511894E+03  0.7546771E-02  0.1113098E+00
         21   -1    0    0  501  502  0.00000000000E+00  0.00000000000E+00  0.37005613956E+03  0.37005613956E+03  0.00000000000E+00 0.  1.
          2   -1    0    0  502    0 -0.00000000000E+00 -0.00000000000E+00 -0.72009234020E+03  0.72009234020E+03  0.00000000000E+00 0. -1.
         24    2    1    2    0    0  0.16343437074E+03  0.17754590829E+03 -0.62748059907E+03  0.67719992404E+03  0.81452389916E+02 0.  0.
         23    2    1    2    0    0 -0.14818491540E+03 -0.11108966876E+03  0.11407458394E+03  0.23592123030E+03  0.91357170201E+02 0.  0.
        -11    1    3    3    0    0  0.67474884991E+02  0.10630002618E+03 -0.23084261907E+03  0.26294651633E+03  0.00000000000E+00 0.  1.
         12    1    3    3    0    0  0.95959485748E+02  0.71245882105E+02 -0.39663797999E+03  0.41425340770E+03  0.00000000000E+00 0. -1.
        -13    1    4    4    0    0 -0.72498929059E+02 -0.74277968599E+01  0.16581323766E+02  0.74740933756E+02  0.00000000000E+00 0.  1.
         13    1    4    4    0    0 -0.75685986340E+02 -0.10366187190E+03  0.97493260175E+02  0.16118029654E+03  0.00000000000E+00 0. -1.
          1    1    1    2  501    0 -0.15249455340E+02 -0.66456239530E+02  0.16336981449E+03  0.17702732543E+03  0.00000000000E+00 0. -1.
<scales pt_clust_5="13000.00000" pt_clust_6="13000.00000" pt_clust_7="13000.00000" pt_clust_8="13000.00000" pt_clust_9="68.18341"></scales>
<clustering>
<clus scale="   68.183">  1  9  2 -1</clus>
<clus scale="   81.452">  5  6 -1 -1</clus>
<clus scale="   91.357">  7  8 -1 -1</clus>
<clus scale="  247.759">  2  5  1 -1</clus>
<clus scale="   68.183">  1  5  2 -1</clus>
</clustering>
</event>
<event>
 9    2  0.9254368E-005  0.1096968E+03  0.7546771E-02  0.1265625E+00
          4   -1    0    0  502    0 -0.00000000000E+00  0.00000000000E+00  0.12270649056E+03  0.12270649056E+03  0.00000000000E+00 0. -1.
         21   -1    0    0  501  502  0.00000000000E+00 -0.00000000000E+00 -0.27374938929E+03  0.27374938929E+03  0.00000000000E+00 0.  1.
         24    2    1    2    0    0  0.28519323659E+02  0.50120233028E+02  0.78110619812E+02  0.12627972592E+03  0.80745963809E+02 0.  0.
         23    2    1    2    0    0 -0.41636019346E+02 -0.67205054630E+02 -0.20057737857E+03  0.23439159565E+03  0.91967700012E+02 0.  0.
        -13    1    3    3    0    0 -0.21321854068E+02  0.43810422294E+02  0.43036798744E+02  0.65008773320E+02  0.00000000000E+00 0.  1.
         14    1    3    3    0    0  0.49841177727E+02  0.63098107338E+01  0.35073821068E+02  0.61270952604E+02  0.00000000000E+00 0. -1.
        -13    1    4    4    0    0 -0.48829241771E+02  0.32605275232E-01 -0.11770518622E+03  0.12743157685E+03  0.00000000000E+00 0.  1.
         13    1    4    4    0    0  0.71932224250E+01 -0.67237659905E+02 -0.82872192346E+02  0.10696001880E+03  0.00000000000E+00 0. -1.
          3    1    1    2  501    0  0.13116695686E+02  0.17084821602E+02 -0.28576139972E+02  0.35784558270E+02  0.00000000000E+00 0. -1.
<scales pt_clust_5="13000.00000" pt_clust_6="13000.00000" pt_clust_7="13000.00000" pt_clust_8="13000.00000" pt_clust_9="21.53924"></scales>
<clustering>
<clus scale="   21.539">  2  9  1 -1</clus>
<clus scale="   80.746">  5  6 -1 -1</clus>
<clus scale="   91.968">  7  8 -1 -1</clus>
<clus scale="  100.475">  1  5  2 -1</clus>
<clus scale="   21.539">  2  5  1 -1</clus>
</clustering>
</event>
<event>
 9    2  0.9254368E-005  0.1150377E+03  0.7546771E-02  0.1255031E+00
         21   -1    0    0  501  502  0.00000000000E+00  0.00000000000E+00  0.20303385929E+03  0.20303385929E+03  0.00000000000E+00 0. -1.
          2   -1    0    0  502    0 -0.00000000000E+00 -0.00000000000E+00 -0.17306046777E+03  0.17306046777E+03  0.00000000000E+00 0. -1.
         23    2    1    2    0    0 -0.43408864723E+02 -0.41157382260E+02 -0.71776831183E+02  0.13234815597E+03  0.93732925070E+02 0.  0.
         24    2    1    2    0    0  0.37744123993E+02  0.70486603040E+02 -0.20599406584E+02  0.11780283358E+03  0.84024948344E+02 0.  0.
        -11    1    4    4    0    0  0.31995656598E+02 -0.10584337632E+02 -0.13194249913E+02  0.36191690690E+02  0.00000000000E+00 0.  1.
         12    1    4    4    0    0  0.57484673944E+01  0.81070940672E+02 -0.74051566709E+01  0.81611142892E+02  0.00000000000E+00 0. -1.
        -11    1    3    3    0    0 -0.22246173927E+02  0.15587340346E+02 -0.66167739201E+02  0.71526408720E+02  0.00000000000E+00 0. -1.
         11    1    3    3    0    0 -0.21162690795E+02 -0.56744722606E+02 -0.56090919824E+01  0.60821747247E+02  0.00000000000E+00 0.  1.
          1    1    1    2  501    0  0.56647407299E+01 -0.29329220779E+02  0.12234962928E+03  0.12594333751E+03  0.00000000000E+00 0. -1.
<scales pt_clust_5="13000.00000" pt_clust_6="13000.00000" pt_clust_7="13000.00000" pt_clust_8="13000.00000" pt_clust_9="29.87127"></scales>
<clustering>
<clus scale="   29.871">  1  9  2 -1</clus>
<clus scale="   84.025">  5  6 -1 -1</clus>
<clus scale="   93.733">  7  8 -1 -1</clus>
<clus scale="  107.275">  1  5  2 -1</clus>
<clus scale="   29.871">  1  5  2 -1</clus>
</clustering>
</event>
<event>
 9    2  0.9254368E-005  0.1646823E+03  0.7546771E-02  0.1184636E+00
          2   -1    0    0  502    0 -0.00000000000E+00  0.00000000000E+00  0.16039953029E+04  0.16039953029E+04  0.00000000000E+00 0. -1.
         21   -1    0    0  501  502  0.00000000000E+00 -0.00000000000E+00 -0.89061605881E+02  0.89061605881E+02  0.00000000000E+00 0. -1.
         24    2    1    2    0    0  0.12517009350E+03  0.55836200589E+02  0.14199145961E+04  0.14287940334E+04  0.80682687879E+02 0.  0.
         23    2    1    2    0    0 -0.14153078025E+03 -0.69500081893E+02  0.13040782829E+03  0.22295021695E+03  0.88540241809E+02 0.  0.
        -13    1    3    3    0    0  0.33644197205E+02  0.13652630951E+02  0.13079503747E+03  0.13574118079E+03  0.00000000000E+00 0.  1.
         14    1    3    3    0    0  0.91525896292E+02  0.42183569638E+02  0.12891195586E+04  0.12930528526E+04  0.00000000000E+00 0. -1.
        -11    1    4    4    0    0 -0.27243480714E+02  0.20392632183E+02  0.36258516786E+02  0.49726720466E+02  0.00000000000E+00 0. -1.
         11    1    4    4    0    0 -0.11428729953E+03 -0.89892714076E+02  0.94149311506E+02  0.17322349649E+03  0.00000000000E+00 0.  1.
          1    1    1    2  501    0  0.16360686748E+02  0.13663881304E+02 -0.35388727349E+02  0.41312658430E+02  0.00000000000E+00 0. -1.
<scales pt_clust_5="13000.00000" pt_clust_6="13000.00000" pt_clust_7="13000.00000" pt_clust_8="13000.00000" pt_clust_9="21.31604"></scales>
<clustering>
<clus scale="   21.316">  2  9  1 -1</clus>
<clus scale="   80.683">  5  6 -1 -1</clus>
<clus scale="   88.540">  7  8 -1 -1</clus>
<clus scale="  160.594">  1  5  2 -1</clus>
<clus scale="   21.316">  2  5  1 -1</clus>
</clustering>
</event>
<event>
 9    2  0.9254368E-005  0.1292630E+03  0.7546771E-02  0.1233916E+00
         21   -1    0    0  501  502  0.00000000000E+00  0.00000000000E+00  0.20443492793E+03  0.20443492793E+03  0.00000000000E+00 0. -1.
          2   -1    0    0  502    0 -0.00000000000E+00 -0.00000000000E+00 -0.16423749884E+03  0.16423749884E+03  0.00000000000E+00 0. -1.
         23    2    1    2    0    0 -0.80052992266E+02  0.51000967285E+02 -0.92727444119E+02  0.16056484529E+03  0.90405256578E+02 0.  0.
         24    2    1    2    0    0  0.45966572318E+02 -0.77463540312E+02  0.11345606180E+03  0.16076641109E+03  0.69713952158E+02 0.  0.
        -13    1    4    4    0    0  0.33548227272E+02 -0.63813597666E+02  0.34948163963E+02  0.80118867719E+02  0.00000000000E+00 0.  1.
         14    1    4    4    0    0  0.12418345046E+02 -0.13649942646E+02  0.78507897841E+02  0.80647543368E+02  0.00000000000E+00 0. -1.
        -11    1    3    3    0    0 -0.73455559848E+02  0.15197052843E+02 -0.98387798104E+02  0.12372076828E+03  0.00000000000E+00 0. -1.
         11    1    3    3    0    0 -0.65974324187E+01  0.35803914442E+02  0.56603539856E+01  0.36844077016E+02  0.00000000000E+00 0.  1.
          1    1    1    2  501    0  0.34086419948E+02  0.26462573026E+02  0.19468811401E+02  0.47341170385E+02  0.00000000000E+00 0. -1.
<scales pt_clust_5="13000.00000" pt_clust_6="13000.00000" pt_clust_7="13000.00000" pt_clust_8="13000.00000" pt_clust_9="43.15266"></scales>
<clustering>
<clus scale="   43.153">  1  9  2 -1</clus>
<clus scale="   69.714">  5  6 -1 -1</clus>
<clus scale="   90.405">  7  8 -1 -1</clus>
<clus scale="  115.740">  1  5  2 -1</clus>
<clus scale="   43.153">  1  5  2 -1</clus>
</clustering>
</event>
<event>
 9    2  0.9254368E-005  0.1379925E+03  0.7546771E-02  0.1219047E+00
         21   -1    0    0  501  502  0.00000000000E+00  0.00000000000E+00  0.33497520942E+03  0.33497520942E+03  0.00000000000E+00 0.  1.
         -1   -1    0    0    0  501 -0.00000000000E+00 -0.00000000000E+00 -0.26098626301E+03  0.26098626301E+03  0.00000000000E+00 0.  1.
         24    2    1    2    0    0 -0.20730207511E+02 -0.96124929459E+02 -0.17900417893E+03  0.21909438179E+03  0.79310204196E+02 0.  0.
         23    2    1    2    0    0  0.10853403802E+03  0.11560209369E+03  0.13188620636E+03  0.22601697164E+03  0.92445760143E+02 0.  0.
        -11    1    3    3    0    0 -0.13519369386E+02 -0.97808413539E+02 -0.10282471393E+03  0.14255588694E+03  0.00000000000E+00 0.  1.
         12    1    3    3    0    0 -0.72108381245E+01  0.16834840797E+01 -0.76179465006E+02  0.76538494849E+02  0.00000000000E+00 0. -1.
        -13    1    4    4    0    0  0.12549047496E+03  0.99413556921E+02  0.11572472374E+03  0.19754272017E+03  0.00000000000E+00 0.  1.
         13    1    4    4    0    0 -0.16956436946E+02  0.16188536766E+02  0.16161482624E+02  0.28474251476E+02  0.00000000000E+00 0. -1.
         -2    1    1    2    0  502 -0.87803830505E+02 -0.19477164228E+02  0.12110691898E+03  0.15085011900E+03  0.00000000000E+00 0.  1.
<scales pt_clust_5="13000.00000" pt_clust_6="13000.00000" pt_clust_7="13000.00000" pt_clust_8="13000.00000" pt_clust_9="89.93816"></scales>
<clustering>
<clus scale="   79.310">  5  6 -1 -1</clus>
<clus scale="   89.938">  1  9  2 -1</clus>
<clus scale="   92.446">  7  8 -1 -1</clus>
<clus scale="  129.560">  2  5  1 -1</clus>
<clus scale="   89.938">  1  5  2 -1</clus>
</clustering>
</event>
<event>
 9    2  0.9254368E-005  0.9125336E+02  0.7546771E-02  0.1305482E+00
         21   -1    0    0  501  502  0.00000000000E+00  0.00000000000E+00  0.10958851275E+03  0.10958851275E+03  0.00000000000E+00 0.  1.
          2   -1    0    0  502    0 -0.00000000000E+00 -0.00000000000E+00 -0.15537339996E+03  0.15537339996E+03  0.00000000000E+00 0. -1.
         24    2    1    2    0    0  0.10181639161E+02 -0.30997753912E+00 -0.94684390369E+02  0.12492921584E+03  0.80860455902E+02 0.  0.
         23    2    1    2    0    0 -0.39339978901E+02  0.12405936567E+02  0.43012436456E+02  0.10792072783E+03  0.89973732850E+02 0.  0.
        -11    1    3    3    0    0 -0.14301781977E+02  0.26202043944E+02 -0.78075332578E+01  0.30855236997E+02  0.00000000000E+00 0.  1.
         12    1    3    3    0    0  0.24483421138E+02 -0.26512021483E+02 -0.86876857111E+02  0.94073978842E+02  0.00000000000E+00 0. -1.
        -11    1    4    4    0    0 -0.16902574532E+02  0.48500870426E+02  0.40388218332E+02  0.65339418714E+02  0.00000000000E+00 0.  1.
         11    1    4    4    0    0 -0.22437404369E+02 -0.36094933858E+02  0.26242181241E+01  0.42581309114E+02  0.00000000000E+00 0. -1.
          1    1    1    2  501    0  0.29158339740E+02 -0.12095959028E+02  0.58870667040E+01  0.32111969040E+02  0.00000000000E+00 0. -1.
<scales pt_clust_5="13000.00000" pt_clust_6="13000.00000" pt_clust_7="13000.00000" pt_clust_8="13000.00000" pt_clust_9="31.56772"></scales>
<clustering>
<clus scale="   31.568">  1  9  2 -1</clus>
<clus scale="   80.860">  5  6 -1 -1</clus>
<clus scale="   82.282">  2  5  1 -1</clus>
<clus scale="   89.974">  7  8 -1 -1</clus>
<clus scale="   31.568">  1  5  2 -1</clus>
</clustering>
</event>
<event>
 9    2  0.9254368E-005  0.1590349E+03  0.7546771E-02  0.1191297E+00
         21   -1    0    0  501  502  0.00000000000E+00  0.00000000000E+00  0.15737561145E+03  0.15737561145E+03  0.00000000000E+00 0.  1.
         -1   -1    0    0    0  501 -0.00000000000E+00 -0.00000000000E+00 -0.32322231787E+03  0.32322231787E+03  0.00000000000E+00 0.  1.
         23    2    1    2    0    0  0.11172493920E+03 -0.64076199544E+02 -0.13380396540E+03  0.20625616403E+03  0.89721138284E+02 0.  0.
         24    2    1    2    0    0 -0.65863204591E+02  0.14303745120E+03  0.25048481385E+01  0.17671126862E+03  0.80143147125E+02 0.  0.
        -11    1    4    4    0    0 -0.27043989620E+02  0.10636064097E+03  0.33775039660E+02  0.11482472132E+03  0.00000000000E+00 0.  1.
         12    1    4    4    0    0 -0.38819214971E+02  0.36676810221E+02 -0.31270191521E+02  0.61886547300E+02  0.00000000000E+00 0. -1.
        -13    1    3    3    0    0  0.73899647551E+02 -0.84031477771E+02 -0.80163993460E+02  0.13765432435E+03  0.00000000000E+00 0.  1.
         13    1    3    3    0    0  0.37825291651E+02  0.19955278226E+02 -0.53639971941E+02  0.68601839679E+02  0.00000000000E+00 0. -1.
         -2    1    1    2    0  502 -0.45861734611E+02 -0.78961251651E+02 -0.34547589149E+02  0.97630496669E+02  0.00000000000E+00 0.  1.
<scales pt_clust_5="13000.00000" pt_clust_6="13000.00000" pt_clust_7="13000.00000" pt_clust_8="13000.00000" pt_clust_9="91.31367"></scales>
<clustering>
<clus scale="   80.143">  5  6 -1 -1</clus>
<clus scale="   89.721">  7  8 -1 -1</clus>
<clus scale="   91.314">  1  9  2 -1</clus>
<clus scale="  153.835">  1  5  2 -1</clus>
<clus scale="   91.314">  1  5  2 -1</clus>
</clustering>
</event>
<event>
 9    2  0.9823826E-005  0.2688744E+03  0.7546771E-02  0.1145729E+00
          2   -1    0    0  502    0 -0.00000000000E+00  0.00000000000E+00  0.42261145425E+03  0.42261145425E+03  0.00000000000E+00 0. -1.
         21   -1    0    0  501  502  0.00000000000E+00 -0.00000000000E+00 -0.74234270723E+03  0.74234270723E+03  0.00000000000E+00 0. -1.
         24    2    1    2    0    0 -0.21314513160E+01 -0.40922585368E+02  0.12985156838E+03  0.15830712403E+03  0.80749703589E+02 0.  0.
         23    2    1    2    0    0 -0.15332449041E+03  0.20491137445E+03 -0.65005436863E+03  0.70457467191E+03  0.91420541366E+02 0.  0.
        -11    1    3    3    0    0 -0.19833367973E+02 -0.60194431085E+02  0.80578510493E+02  0.10251647854E+03  0.00000000000E+00 0.  1.
         12    1    3    3    0    0  0.17701916657E+02  0.19271845717E+02  0.49273057885E+02  0.55790645488E+02  0.00000000000E+00 0. -1.
        -11    1    4    4    0    0 -0.69863862561E+02  0.15489354263E+03 -0.34862923947E+03  0.38783413395E+03  0.00000000000E+00 0. -1.
         11    1    4    4    0    0 -0.83460627849E+02  0.50017831824E+02 -0.30142512916E+03  0.31674053796E+03  0.00000000000E+00 0.  1.
          1    1    1    2  501    0  0.15545594173E+03 -0.16398878908E+03  0.20047154726E+03  0.30207236554E+03  0.00000000000E+00 0. -1.
<scales pt_clust_5="13000.00000" pt_clust_6="13000.00000" pt_clust_7="13000.00000" pt_clust_8="13000.00000" pt_clust_9="252.85529"></scales>
<clustering>
<clus scale="   80.750">  5  6 -1 -1</clus>
<clus scale="   90.552">  1  5  2 -1</clus>
<clus scale="   91.421">  7  8 -1 -1</clus>
<clus scale="  252.855">  2  9  1 -1</clus>
<clus scale="  252.855">  2  5  1 -1</clus>
</clustering>
</event>
<event>
 9    2  0.9254368E-005  0.1206447E+03  0.7546771E-02  0.1245092E+00
         21   -1    0    0  501  502  0.00000000000E+00  0.00000000000E+00  0.84051567099E+02  0.84051567099E+02  0.00000000000E+00 0.  1.
          2   -1    0    0  502    0 -0.00000000000E+00 -0.00000000000E+00 -0.30120795482E+03  0.30120795482E+03  0.00000000000E+00 0. -1.
         24    2    1    2    0    0 -0.63193350192E+02  0.46227444170E+02 -0.17100973740E+03  0.20434764859E+03  0.79895275794E+02 0.  0.
         23    2    1    2    0    0  0.54573524818E+02 -0.68141094776E+02 -0.73161731791E+02  0.14507440551E+03  0.89846901600E+02 0.  0.
        -13    1    3    3    0    0 -0.23171135148E+01  0.32320550357E+02 -0.13854814909E+02  0.35241210061E+02  0.00000000000E+00 0.  1.
         14    1    3    3    0    0 -0.60876236678E+02  0.13906893813E+02 -0.15715492249E+03  0.16910643853E+03  0.00000000000E+00 0. -1.
        -13    1    4    4    0    0  0.71136040353E+02 -0.19583056368E+02 -0.39224704419E+02  0.83560814803E+02  0.00000000000E+00 0. -1.
         13    1    4    4    0    0 -0.16562515534E+02 -0.48558038408E+02 -0.33937027372E+02  0.61513590708E+02  0.00000000000E+00 0.  1.
          1    1    1    2  501    0  0.86198253743E+01  0.21913650607E+02  0.27015081475E+02  0.35837467817E+02  0.00000000000E+00 0. -1.
<scales pt_clust_5="13000.00000" pt_clust_6="13000.00000" pt_clust_7="13000.00000" pt_clust_8="13000.00000" pt_clust_9="23.54802"></scales>
<clustering>
<clus scale="   23.548">  1  9  2 -1</clus>
<clus scale="   79.895">  5  6 -1 -1</clus>
<clus scale="   89.847">  7  8 -1 -1</clus>
<clus scale="  113.428">  2  5  1 -1</clus>
<clus scale="   23.548">  1  5  2 -1</clus>
</clustering>
</event>
<event>
 9    2  0.9254368E-005  0.1143889E+03  0.7546771E-02  0.1262869E+00
          2   -1    0    0  502    0 -0.00000000000E+00  0.00000000000E+00  0.49348364900E+03  0.49348364900E+03  0.00000000000E+00 0. -1.
         21   -1    0    0  501  502  0.00000000000E+00 -0.00000000000E+00 -0.10698112896E+03  0.10698112896E+03  0.00000000000E+00 0. -1.
         24    2    1    2    0    0  0.44784395162E+02  0.18446649208E+02  0.36529002977E+03  0.37706828998E+03  0.79986052176E+02 0.  0.
         23    2    1    2    0    0  0.20002070766E+02  0.53303998549E+02 -0.32840294373E+02  0.11263934307E+03  0.91475338622E+02 0.  0.
        -13    1    3    3    0    0  0.20211649215E+02 -0.30767954601E+02  0.18271319877E+03  0.18638479229E+03  0.00000000000E+00 0.  1.
         14    1    3    3    0    0  0.24572745947E+02  0.49214603810E+02  0.18257683101E+03  0.19068349769E+03  0.00000000000E+00 0. -1.
        -13    1    4    4    0    0 -0.93940376282E+01  0.69268274742E+02 -0.36726364212E+02  0.78963077808E+02  0.00000000000E+00 0. -1.
         13    1    4    4    0    0  0.29396108394E+02 -0.15964276193E+02  0.38860698395E+01  0.33676265260E+02  0.00000000000E+00 0.  1.
          1    1    1    2  501    0 -0.64786465928E+02 -0.71750647757E+02  0.54052784638E+02  0.11075714491E+03  0.00000000000E+00 0. -1.
<scales pt_clust_5="13000.00000" pt_clust_6="13000.00000" pt_clust_7="13000.00000" pt_clust_8="13000.00000" pt_clust_9="68.68106"></scales>
<clustering>
<clus scale="   79.986">  5  6 -1 -1</clus>
<clus scale="   91.475">  7  8 -1 -1</clus>
<clus scale="   93.508">  1  5  2 -1</clus>
<clus scale="   68.681">  2  9  1 -1</clus>
<clus scale="   68.681">  2  5  1 -1</clus>
</clustering>
</event>
<event>
 9    2  0.9254368E-005  0.2004577E+03  0.7546771E-02  0.1167212E+00
          2   -1    0    0  502    0 -0.00000000000E+00  0.00000000000E+00  0.87376807023E+03  0.87376807023E+03  0.00000000000E+00 0. -1.
         21   -1    0    0  501  502  0.00000000000E+00 -0.00000000000E+00 -0.86287857333E+02  0.86287857333E+02  0.00000000000E+00 0. -1.
         23    2    1    2    0    0 -0.54258460143E+02  0.83929187974E+02  0.25924364765E+03  0.29096221097E+03  0.86392420230E+02 0.  0.
         24    2    1    2    0    0  0.21737404098E+03 -0.81055206623E+02  0.35099132358E+03  0.42819783001E+03  0.79605603991E+02 0.  0.
        -11    1    4    4    0    0  0.91014200210E+02 -0.14137288015E+02  0.20031894007E+03  0.22047930811E+03  0.00000000000E+00 0.  1.
         12    1    4    4    0    0  0.12635984077E+03 -0.66917918608E+02  0.15067238350E+03  0.20771852190E+03  0.00000000000E+00 0. -1.
        -13    1    3    3    0    0 -0.42793251013E+02  0.35872523643E+02  0.46827011243E+02  0.72875711089E+02  0.00000000000E+00 0.  1.
         13    1    3    3    0    0 -0.11465209130E+02  0.48056664331E+02  0.21241663640E+03  0.21808649988E+03  0.00000000000E+00 0. -1.
          1    1    1    2  501    0 -0.16311558083E+03 -0.28739813511E+01  0.17724524167E+03  0.24089588659E+03  0.00000000000E+00 0. -1.
<scales pt_clust_5="13000.00000" pt_clust_6="13000.00000" pt_clust_7="13000.00000" pt_clust_8="13000.00000" pt_clust_9="183.97347"></scales>
<clustering>
<clus scale="   79.606">  5  6 -1 -1</clus>
<clus scale="   86.392">  7  8 -1 -1</clus>
<clus scale="  132.105">  1  7  2 -1</clus>
<clus scale="  183.973">  2  9  1 -1</clus>
<clus scale="  183.973">  2  5  1 -1</clus>
</clustering>
</event>
<event>
 9    2  0.9254368E-005  0.1027162E+03  0.7546771E-02  0.1279468E+00
          2   -1    0    0  502    0 -0.00000000000E+00  0.00000000000E+00  0.85891856034E+03  0.85891856034E+03  0.00000000000E+00 0. -1.
         21   -1    0    0  501  502  0.00000000000E+00 -0.00000000000E+00 -0.20837918821E+02  0.20837918821E+02  0.00000000000E+00 0.  1.
         24    2    1    2    0    0  0.46824972338E+02 -0.19233932770E+02  0.54030200599E+03  0.54856417256E+03  0.80211417749E+02 0.  0.
         23    2    1    2    0    0 -0.28485234871E+02  0.34597944920E+02  0.14602352727E+03  0.17756284418E+03  0.90538758108E+02 0.  0.
        -13    1    3    3    0    0  0.63205274168E+02 -0.34872381044E+02  0.41544240823E+03  0.42166738574E+03  0.00000000000E+00 0.  1.
         14    1    3    3    0    0 -0.16380301830E+02  0.15638448274E+02  0.12485959776E+03  0.12689678682E+03  0.00000000000E+00 0. -1.
        -13    1    4    4    0    0 -0.67047595845E+01 -0.25974255931E+02  0.83980369500E+02  0.88160752229E+02  0.00000000000E+00 0. -1.
         13    1    4    4    0    0 -0.21780475286E+02  0.60572200851E+02  0.62043157769E+02  0.89402091953E+02  0.00000000000E+00 0.  1.
          1    1    1    2  501    0 -0.18339737468E+02 -0.15364012150E+02  0.15175510826E+03  0.15362946242E+03  0.00000000000E+00 0. -1.
<scales pt_clust_5="13000.00000" pt_clust_6="13000.00000" pt_clust_7="13000.00000" pt_clust_8="13000.00000" pt_clust_9="23.92487"></scales>
<clustering>
<clus scale="   23.925">  2  9  1 -1</clus>
<clus scale="   80.211">  5  6 -1 -1</clus>
<clus scale="   90.539">  7  8 -1 -1</clus>
<clus scale="   93.740">  1  5  2 -1</clus>
<clus scale="   23.925">  2  5  1 -1</clus>
</clustering>
</event>
<event>
 9    2  0.9254368E-005  0.1406728E+03  0.7546771E-02  0.1217712E+00
         21   -1    0    0  501  502  0.00000000000E+00  0.00000000000E+00  0.50138058521E+03  0.50138058521E+03  0.00000000000E+00 0.  1.
         -1   -1    0    0    0  501 -0.00000000000E+00 -0.00000000000E+00 -0.11317959397E+03  0.11317959397E+03  0.00000000000E+00 0.  1.
         23    2    1    2    0    0  0.36947172874E+02  0.76884540180E+02 -0.17941466970E+01  0.13317432538E+03  0.10225387951E+03 0.  0.
         24    2    1    2    0    0 -0.20926284972E+02 -0.16182653730E+03  0.32771332342E+03  0.37484555090E+03  0.80544565965E+02 0.  0.
        -13    1    4    4    0    0 -0.32839461539E+02 -0.16592088362E+03  0.29979517100E+03  0.34421695834E+03  0.00000000000E+00 0.  1.
         14    1    4    4    0    0  0.11913176567E+02  0.40943463176E+01  0.27918152424E+02  0.30628592564E+02  0.00000000000E+00 0. -1.
        -11    1    3    3    0    0 -0.35515557260E+02  0.26955314312E+02  0.52486204614E+01  0.44894228960E+02  0.00000000000E+00 0. -1.
         11    1    3    3    0    0  0.72462730134E+02  0.49929225867E+02 -0.70427671584E+01  0.88280096417E+02  0.00000000000E+00 0.  1.
         -2    1    1    2    0  502 -0.16020887902E+02  0.84941997120E+02  0.62281814514E+02  0.10654030291E+03  0.00000000000E+00 0.  1.
<scales pt_clust_5="13000.00000" pt_clust_6="13000.00000" pt_clust_7="13000.00000" pt_clust_8="13000.00000" pt_clust_9="86.43969"></scales>
<clustering>
<clus scale="   80.545">  5  6 -1 -1</clus>
<clus scale="   86.440">  1  9  2 -1</clus>
<clus scale="  102.254">  7  8 -1 -1</clus>
<clus scale="  125.779">  1  5  2 -1</clus>
<clus scale="   86.440">  1  5  2 -1</clus>
</clustering>
</event>
<event>
 9    2  0.9254368E-005  0.1723108E+03  0.7546771E-02  0.1175609E+00
          2   -1    0    0  502    0 -0.00000000000E+00  0.00000000000E+00  0.54058657366E+03  0.54058657366E+03  0.00000000000E+00 0. -1.
         21   -1    0    0  501  502  0.00000000000E+00 -0.00000000000E+00 -0.12292632545E+03  0.12292632545E+03  0.00000000000E+00 0. -1.
         23    2    1    2    0    0  0.58291046136E+02  0.12894556176E+03  0.11886110250E+03  0.20302301725E+03  0.84057003804E+02 0.  0.
         24    2    1    2    0    0  0.49470874288E+02 -0.17954280797E+03  0.98002363260E+02  0.22705453608E+03  0.85242664527E+02 0.  0.
        -11    1    4    4    0    0  0.70194228153E+02 -0.14602329008E+03  0.94322690363E+02  0.18747480052E+03  0.00000000000E+00 0.  1.
         12    1    4    4    0    0 -0.20723353865E+02 -0.33519517885E+02  0.36796728971E+01  0.39579735563E+02  0.00000000000E+00 0. -1.
        -11    1    3    3    0    0  0.21718011095E+02  0.66653549287E+01  0.56651602769E+02  0.61036899156E+02  0.00000000000E+00 0.  1.
         11    1    3    3    0    0  0.36573035041E+02  0.12228020683E+03  0.62209499728E+02  0.14198611809E+03  0.00000000000E+00 0. -1.
          1    1    1    2  501    0 -0.10776192042E+03  0.50597246213E+02  0.20079678245E+03  0.23343534578E+03  0.00000000000E+00 0. -1.
<scales pt_clust_5="13000.00000" pt_clust_6="13000.00000" pt_clust_7="13000.00000" pt_clust_8="13000.00000" pt_clust_9="119.04926"></scales>
<clustering>
<clus scale="   84.057">  7  8 -1 -1</clus>
<clus scale="   85.243">  5  6 -1 -1</clus>
<clus scale="  119.049">  2  9  1 -1</clus>
<clus scale="  171.727">  1  7  2 -1</clus>
<clus scale="  119.049">  2  5  1 -1</clus>
</clustering>
</event>
<event>
 9    2  0.9254368E-005  0.1232246E+03  0.7546771E-02  0.1258660E+00
         21   -1    0    0  501  502  0.00000000000E+00  0.00000000000E+00  0.40257966525E+02  0.40257966525E+02  0.00000000000E+00 0.  1.
          2   -1    0    0  502    0 -0.00000000000E+00 -0.00000000000E+00 -0.60560432917E+03  0.60560432917E+03  0.00000000000E+00 0. -1.
         24    2    1    2    0    0  0.66087914036E+01  0.93550496886E+01 -0.15117300608E+03  0.17162157174E+03  0.80433158829E+02 0.  0.
         23    2    1    2    0    0  0.67011564114E+02  0.44433230034E+02 -0.13737429584E+03  0.18281173467E+03  0.89908684331E+02 0.  0.
        -11    1    3    3    0    0 -0.18664062996E+02  0.37224685756E+02 -0.98044294527E+02  0.10652092830E+03  0.00000000000E+00 0.  1.
         12    1    3    3    0    0  0.25272854400E+02 -0.27869636068E+02 -0.53128711554E+02  0.65100643433E+02  0.00000000000E+00 0. -1.
        -11    1    4    4    0    0 -0.43945845152E+01  0.46161189236E+02 -0.73972366156E+02  0.87304517177E+02  0.00000000000E+00 0.  1.
         11    1    4    4    0    0  0.71406148629E+02 -0.17279592014E+01 -0.63401929682E+02  0.95507217489E+02  0.00000000000E+00 0. -1.
          1    1    1    2  501    0 -0.73620355517E+02 -0.53788279723E+02 -0.27679906072E+03  0.29142898929E+03  0.00000000000E+00 0. -1.
<scales pt_clust_5="13000.00000" pt_clust_6="13000.00000" pt_clust_7="13000.00000" pt_clust_8="13000.00000" pt_clust_9="84.26594"></scales>
<clustering>
<clus scale="   80.433">  5  6 -1 -1</clus>
<clus scale="   81.245">  2  5  1 -1</clus>
<clus scale="   84.266">  1  9  2 -1</clus>
<clus scale="   89.909">  7  8 -1 -1</clus>
<clus scale="   84.266">  1  5  2 -1</clus>
</clustering>
</event>
<event>
 9    2  0.9254368E-005  0.1100111E+03  0.7546771E-02  0.1264939E+00
         21   -1    0    0  501  502  0.00000000000E+00  0.00000000000E+00  0.58050756227E+02  0.58050756227E+02  0.00000000000E+00 0. -1.
         -1   -1    0    0    0  501 -0.00000000000E+00 -0.00000000000E+00 -0.67845162232E+03  0.67845162232E+03  0.00000000000E+00 0.  1.
         23    2    1    2    0    0 -0.44064713895E+02  0.42916323110E+02 -0.46828873937E+03  0.48074283662E+03  0.89642745048E+02 0.  0.
         24    2    1    2    0    0  0.51457515530E+01 -0.10006196912E+03 -0.59999857360E+02  0.14058584417E+03  0.78265703061E+02 0.  0.
        -13    1    4    4    0    0  0.23476973865E+02 -0.79995963599E+02 -0.72672878748E+02  0.11059778388E+03  0.00000000000E+00 0.  1.
         14    1    4    4    0    0 -0.18331222312E+02 -0.20066005519E+02  0.12673021387E+02  0.29988060291E+02  0.00000000000E+00 0. -1.
        -13    1    3    3    0    0 -0.47479962278E+02  0.67486536368E+02 -0.32430895373E+03  0.33464171419E+03  0.00000000000E+00 0.  1.
         13    1    3    3    0    0  0.34152483826E+01 -0.24570213258E+02 -0.14397978564E+03  0.14610112243E+03  0.00000000000E+00 0. -1.
         -2    1    1    2    0  502  0.38918962342E+02  0.57145646008E+02 -0.92112269357E+02  0.11517369775E+03  0.00000000000E+00 0.  1.
<scales pt_clust_5="13000.00000" pt_clust_6="13000.00000" pt_clust_7="13000.00000" pt_clust_8="13000.00000" pt_clust_9="69.13979"></scales>
<clustering>
<clus scale="   69.140">  1  9  2 -1</clus>
<clus scale="   78.266">  5  6 -1 -1</clus>
<clus scale="   89.643">  7  8 -1 -1</clus>
<clus scale="  100.956">  1  5  2 -1</clus>
<clus scale="   69.140">  1  5  2 -1</clus>
</clustering>
</event>
<event>
 9    2  0.9254368E-005  0.1383640E+03  0.7546771E-02  0.1240409E+00
          2   -1    0    0  502    0 -0.00000000000E+00  0.00000000000E+00  0.11525326321E+04  0.11525326321E+04  0.00000000000E+00 0. -1.
         21   -1    0    0  501  502  0.00000000000E+00 -0.00000000000E+00 -0.51342687860E+02  0.51342687860E+02  0.00000000000E+00 0. -1.
         24    2    1    2    0    0  0.15380296940E+02  0.12204596238E+02  0.36999266713E+03  0.37911366616E+03  0.80293788279E+02 0.  0.
         23    2    1    2    0    0  0.80162336918E+02 -0.63849096520E+02  0.69833350113E+02  0.15453945689E+03  0.92211927441E+02 0.  0.
        -13    1    3    3    0    0 -0.28843370755E+02  0.18468571059E+02  0.10678155351E+03  0.11213977137E+03  0.00000000000E+00 0.  1.
         14    1    3    3    0    0  0.44223667695E+02 -0.62639748212E+01  0.26321111362E+03  0.26697389479E+03  0.00000000000E+00 0. -1.
        -11    1    4    4    0    0  0.49030026986E+02  0.65347318516E+01  0.58724264597E+02  0.76780111481E+02  0.00000000000E+00 0.  1.
         11    1    4    4    0    0  0.31132309932E+02 -0.70383828372E+02  0.11109085516E+02  0.77759345412E+02  0.00000000000E+00 0. -1.
          1    1    1    2  501    0 -0.95542633858E+02  0.51644500282E+02  0.66136392699E+03  0.67022219690E+03  0.00000000000E+00 0. -1.
<scales pt_clust_5="13000.00000" pt_clust_6="13000.00000" pt_clust_7="13000.00000" pt_clust_8="13000.00000" pt_clust_9="103.15801"></scales>
<clustering>
<clus scale="   80.294">  5  6 -1 -1</clus>
<clus scale="   82.660">  1  5  2 -1</clus>
<clus scale="   92.212">  7  8 -1 -1</clus>
<clus scale="  103.158">  2  9  1 -1</clus>
<clus scale="  103.158">  2  5  1 -1</clus>
</clustering>
</event>
<event>
 9    2  0.9254368E-005  0.1009309E+03  0.7546771E-02  0.1282678E+00
         -1   -1    0    0    0  501 -0.00000000000E+00  0.00000000000E+00  0.39389792078E+03  0.39389792078E+03  0.00000000000E+00 0.  1.
         21   -1    0    0  501  502  0.00000000000E+00 -0.00000000000E+00 -0.48070514993E+02  0.48070514993E+02  0.00000000000E+00 0. -1.
         24    2    1    2    0    0  0.12278795559E+02  0.51521521848E+02  0.27776084739E+03  0.29429549316E+03  0.81569068382E+02 0.  0.
         23    2    1    2    0    0  0.33010073516E+01 -0.21094633295E+02  0.64709047741E+02  0.11332474494E+03  0.90550299574E+02 0.  0.
        -11    1    3    3    0    0  0.30934625901E+02 -0.46386043611E+01  0.15360412935E+03  0.15675680618E+03  0.00000000000E+00 0.  1.
         12    1    3    3    0    0 -0.18655830342E+02  0.56160126209E+02  0.12415671804E+03  0.13753868698E+03  0.00000000000E+00 0. -1.
        -11    1    4    4    0    0  0.21837598385E+02 -0.43063020638E+02  0.69047990016E+02  0.84255144502E+02  0.00000000000E+00 0.  1.
         11    1    4    4    0    0 -0.18536591034E+02  0.21968387343E+02 -0.43389422752E+01  0.29069600439E+02  0.00000000000E+00 0. -1.
         -2    1    1    2    0  502 -0.15579802910E+02 -0.30426888553E+02  0.33575106574E+01  0.34348197675E+02  0.00000000000E+00 0.  1.
<scales pt_clust_5="13000.00000" pt_clust_6="13000.00000" pt_clust_7="13000.00000" pt_clust_8="13000.00000" pt_clust_9="34.18371"></scales>
<clustering>
<clus scale="   34.184">  2  9  1 -1</clus>
<clus scale="   81.569">  5  6 -1 -1</clus>
<clus scale="   90.550">  7  8 -1 -1</clus>
<clus scale="   92.958">  1  5  2 -1</clus>
<clus scale="   34.184">  2  5  1 -1</clus>
</clustering>
</event>
<event>
 9    2  0.9254368E-005  0.9793112E+02  0.7546771E-02  0.1290649E+00
         21   -1    0    0  501  502  0.00000000000E+00  0.00000000000E+00  0.21282053055E+02  0.21282053055E+02  0.00000000000E+00 0.  1.
          2   -1    0    0  502    0 -0.00000000000E+00 -0.00000000000E+00 -0.62653175766E+03  0.62653175766E+03  0.00000000000E+00 0. -1.
         24    2    1    2    0    0  0.31143445668E+02 -0.21404708195E+02 -0.30175569499E+03  0.31472892066E+03  0.81053798783E+02 0.  0.
         23    2    1    2    0    0 -0.33238155032E+02 -0.13623961841E+02 -0.18865107471E+03  0.21300035638E+03  0.92138681031E+02 0.  0.
        -11    1    3    3    0    0  0.42796963767E+02 -0.39192010546E+02 -0.13954632185E+03  0.15113163051E+03  0.00000000000E+00 0.  1.
         12    1    3    3    0    0 -0.11653518099E+02  0.17787302350E+02 -0.16220937314E+03  0.16359729015E+03  0.00000000000E+00 0. -1.
        -13    1    4    4    0    0  0.11298389257E+02  0.20258344906E+02 -0.90766047211E+01  0.24908610788E+02  0.00000000000E+00 0.  1.
         13    1    4    4    0    0 -0.44536544289E+02 -0.33882306746E+02 -0.17957446999E+03  0.18809174559E+03  0.00000000000E+00 0. -1.
          1    1    1    2  501    0  0.20947093641E+01  0.35028670036E+02 -0.11484293490E+03  0.12008453368E+03  0.00000000000E+00 0. -1.
<scales pt_clust_5="13000.00000" pt_clust_6="13000.00000" pt_clust_7="13000.00000" pt_clust_8="13000.00000" pt_clust_9="35.09126"></scales>
<clustering>
<clus scale="   35.091">  1  9  2 -1</clus>
<clus scale="   81.054">  5  6 -1 -1</clus>
<clus scale="   87.582">  2  5  1 -1</clus>
<clus scale="   92.139">  7  8 -1 -1</clus>
<clus scale="   35.091">  1  5  2 -1</clus>
</clustering>
</event>
<event>
 9    2  0.9254368E-005  0.3209200E+03  0.7546771E-02  0.1124187E+00
          2   -1    0    0  502    0 -0.00000000000E+00  0.00000000000E+00  0.13012827700E+04  0.13012827700E+04  0.00000000000E+00 0. -1.
         21   -1    0    0  501  502  0.00000000000E+00 -0.00000000000E+00 -0.11366595584E+03  0.11366595584E+03  0.00000000000E+00 0. -1.
         24    2    1    2    0    0 -0.33878278441E+01  0.33385009236E+02  0.18973770139E+03  0.20998798767E+03  0.83477682146E+02 0.  0.
         23    2    1    2    0    0 -0.14519849358E+03  0.24556403036E+03  0.73413306959E+03  0.79331472897E+03  0.94934713319E+02 0.  0.
        -13    1    3    3    0    0  0.20416265039E+02 -0.15985182523E+02  0.23667477796E+02  0.35106971439E+02  0.00000000000E+00 0.  1.
         14    1    3    3    0    0 -0.23804092883E+02  0.49370191759E+02  0.16607022360E+03  0.17488101623E+03  0.00000000000E+00 0. -1.
        -11    1    4    4    0    0 -0.54147938093E+02  0.17895167594E+03  0.48672470125E+03  0.52139873065E+03  0.00000000000E+00 0. -1.
         11    1    4    4    0    0 -0.91050555486E+02  0.66612354419E+02  0.24740836834E+03  0.27191599832E+03  0.00000000000E+00 0.  1.
          1    1    1    2  501    0  0.14858632142E+03 -0.27894903960E+03  0.26374604319E+03  0.41164600922E+03  0.00000000000E+00 0. -1.
<scales pt_clust_5="13000.00000" pt_clust_6="13000.00000" pt_clust_7="13000.00000" pt_clust_8="13000.00000" pt_clust_9="306.55679"></scales>
<clustering>
<clus scale="   83.478">  5  6 -1 -1</clus>
<clus scale="   89.970">  1  5  2 -1</clus>
<clus scale="   94.935">  7  8 -1 -1</clus>
<clus scale="  306.557">  2  9  1 -1</clus>
<clus scale="  306.557">  2  5  1 -1</clus>
</clustering>
</event>
<event>
 9    2  0.9254368E-005  0.1384928E+03  0.7546771E-02  0.1219752E+00
          2   -1    0    0  502    0 -0.00000000000E+00  0.00000000000E+00  0.69207403420E+03  0.69207403420E+03  0.00000000000E+00 0. -1.
         21   -1    0    0  501  502  0.00000000000E+00 -0.00000000000E+00 -0.60708826192E+02  0.60708826192E+02  0.00000000000E+00 0. -1.
         23    2    1    2    0    0  0.19378843392E+02 -0.10571125884E+03  0.34170643756E+03  0.37098120120E+03  0.96505711532E+02 0.  0.
         24    2    1    2    0    0 -0.31974798057E+02  0.69399313864E+02  0.21953305176E+02  0.11135123571E+03  0.77964720299E+02 0.  0.
        -13    1    4    4    0    0  0.27221166075E+01  0.51211296112E+02  0.42959787232E+02  0.66899552221E+02  0.00000000000E+00 0.  1.
         14    1    4    4    0    0 -0.34696914665E+02  0.18188017753E+02 -0.21006482056E+02  0.44451683493E+02  0.00000000000E+00 0. -1.
        -13    1    3    3    0    0 -0.34537995644E+02 -0.72936494587E+02  0.17419824189E+03  0.19198341820E+03  0.00000000000E+00 0. -1.
         13    1    3    3    0    0  0.53916839035E+02 -0.32774764253E+02  0.16750819566E+03  0.17899778300E+03  0.00000000000E+00 0.  1.
          1    1    1    2  501    0  0.12595954666E+02  0.36311944975E+02  0.26770546528E+03  0.27045042348E+03  0.00000000000E+00 0. -1.
<scales pt_clust_5="13000.00000" pt_clust_6="13000.00000" pt_clust_7="13000.00000" pt_clust_8="13000.00000" pt_clust_9="38.43458"></scales>
<clustering>
<clus scale="   38.435">  2  9  1 -1</clus>
<clus scale="   77.965">  5  6 -1 -1</clus>
<clus scale="   96.506">  7  8 -1 -1</clus>
<clus scale="  126.275">  2  5  1 -1</clus>
<clus scale="   38.435">  2  5  1 -1</clus>
</clustering>
</event>
<event>
 9    2  0.9254368E-005  0.1060869E+03  0.7546771E-02  0.1272772E+00
         21   -1    0    0  501  502  0.00000000000E+00  0.00000000000E+00  0.70216575258E+02  0.70216575258E+02  0.00000000000E+00 0.  1.
         -3   -1    0    0    0  501 -0.00000000000E+00 -0.00000000000E+00 -0.29002949361E+03  0.29002949361E+03  0.00000000000E+00 0.  1.
         23    2    1    2    0    0  0.24368191327E+02 -0.16516022600E+02 -0.65507472219E+02  0.11565786879E+03  0.90658292202E+02 0.  0.
         24    2    1    2    0    0 -0.89641931766E+02 -0.79073493604E+01 -0.97402766663E+02  0.15461555302E+03  0.79501372166E+02 0.  0.
        -11    1    4    4    0    0 -0.42760944056E+02  0.25121306191E+02 -0.80985777903E+02  0.94964596476E+02  0.00000000000E+00 0.  1.
         12    1    4    4    0    0 -0.46880987710E+02 -0.33028655551E+02 -0.16416988760E+02  0.59650956540E+02  0.00000000000E+00 0. -1.
        -11    1    3    3    0    0  0.93519478419E+01 -0.34645091648E+02 -0.80232112400E+02  0.87891598938E+02  0.00000000000E+00 0. -1.
         11    1    3    3    0    0  0.15016243485E+02  0.18129069048E+02  0.14724640181E+02  0.27766269850E+02  0.00000000000E+00 0.  1.
         -4    1    1    2    0  502  0.65273740439E+02  0.24423371961E+02 -0.56902679471E+02  0.89972647064E+02  0.00000000000E+00 0.  1.
<scales pt_clust_5="13000.00000" pt_clust_6="13000.00000" pt_clust_7="13000.00000" pt_clust_8="13000.00000" pt_clust_9="69.69338"></scales>
<clustering>
<clus scale="   69.693">  1  9  2 -1</clus>
<clus scale="   79.501">  5  6 -1 -1</clus>
<clus scale="   90.658">  7  8 -1 -1</clus>
<clus scale="   96.726">  1  5  2 -1</clus>
<clus scale="   69.693">  1  5  2 -1</clus>
</clustering>
</event>
<event>
 9    2  0.9254368E-005  0.2457529E+03  0.7546771E-02  0.1147693E+00
         -3   -1    0    0    0  501 -0.00000000000E+00  0.00000000000E+00  0.63239112387E+03  0.63239112387E+03  0.00000000000E+00 0.  1.
         21   -1    0    0  501  502  0.00000000000E+00 -0.00000000000E+00 -0.18632900151E+03  0.18632900151E+03  0.00000000000E+00 0.  1.
         24    2    1    2    0    0 -0.77036309694E+02  0.23492125318E+02 -0.19410073916E+02  0.11482143100E+03  0.79503063368E+02 0.  0.
         23    2    1    2    0    0 -0.19507349205E+03 -0.72021121194E+02  0.10675321628E+03  0.25104318293E+03  0.91573584130E+02 0.  0.
        -11    1    3    3    0    0 -0.29215967338E+02  0.74520066513E+01  0.31186471892E+02  0.43378579733E+02  0.00000000000E+00 0.  1.
         12    1    3    3    0    0 -0.47820342356E+02  0.16040118666E+02 -0.50596545807E+02  0.71442851269E+02  0.00000000000E+00 0. -1.
        -13    1    4    4    0    0 -0.16807663256E+03 -0.62097008819E+02  0.47799478804E+02  0.18544698189E+03  0.00000000000E+00 0.  1.
         13    1    4    4    0    0 -0.26996859486E+02 -0.99241123755E+01  0.58953737473E+02  0.65596201038E+02  0.00000000000E+00 0. -1.
         -4    1    1    2    0  502  0.27210980174E+03  0.48528995877E+02  0.35871898000E+03  0.45285551146E+03  0.00000000000E+00 0.  1.
<scales pt_clust_5="13000.00000" pt_clust_6="13000.00000" pt_clust_7="13000.00000" pt_clust_8="13000.00000" pt_clust_9="228.05445"></scales>
<clustering>
<clus scale="   79.503">  5  6 -1 -1</clus>
<clus scale="   91.574">  7  8 -1 -1</clus>
<clus scale="  113.169">  1  5  2 -1</clus>
<clus scale="  228.054">  2  9  1 -1</clus>
<clus scale="  228.054">  2  5  1 -1</clus>
</clustering>
</event>
<event>
 9    2  0.9254368E-005  0.1343987E+03  0.7546771E-02  0.1222435E+00
         -1   -1    0    0    0  501 -0.00000000000E+00  0.00000000000E+00  0.53484962578E+03  0.53484962578E+03  0.00000000000E+00 0.  1.
         21   -1    0    0  501  502  0.00000000000E+00 -0.00000000000E+00 -0.90010014440E+02  0.90010014440E+02  0.00000000000E+00 0.  1.
         23    2    1    2    0    0 -0.29337615649E+02 -0.10608783290E+03  0.27955091348E+03  0.31358827804E+03  0.89853051777E+02 0.  0.
         24    2    1    2    0    0 -0.75016565246E+02  0.80241723127E+02  0.35652434287E+02  0.14285705966E+03  0.84088193184E+02 0.  0.
        -11    1    4    4    0    0 -0.25572583112E+02  0.34147259706E+02 -0.27166606122E+02  0.50576840952E+02  0.00000000000E+00 0.  1.
         12    1    4    4    0    0 -0.49443982134E+02  0.46094463421E+02  0.62819040409E+02  0.92280218710E+02  0.00000000000E+00 0. -1.
        -11    1    3    3    0    0  0.16670172337E+02 -0.24593814146E+02  0.15640702344E+02  0.33576508303E+02  0.00000000000E+00 0. -1.
         11    1    3    3    0    0 -0.46007787986E+02 -0.81494018754E+02  0.26391021114E+03  0.28001176973E+03  0.00000000000E+00 0.  1.
         -2    1    1    2    0  502  0.10435418090E+03  0.25846109773E+02  0.12963626357E+03  0.16841430252E+03  0.00000000000E+00 0.  1.
<scales pt_clust_5="13000.00000" pt_clust_6="13000.00000" pt_clust_7="13000.00000" pt_clust_8="13000.00000" pt_clust_9="107.50734"></scales>
<clustering>
<clus scale="   84.088">  5  6 -1 -1</clus>
<clus scale="   89.853">  7  8 -1 -1</clus>
<clus scale="  107.507">  2  9  1 -1</clus>
<clus scale="  130.615">  2  5  1 -1</clus>
<clus scale="  107.507">  2  5  1 -1</clus>
</clustering>
</event>
<event>
 9    2  0.9254368E-005  0.1250457E+03  0.7546771E-02  0.1237079E+00
         21   -1    0    0  501  502  0.00000000000E+00  0.00000000000E+00  0.60446027869E+02  0.60446027869E+02  0.00000000000E+00 0.  1.
          2   -1    0    0  502    0 -0.00000000000E+00 -0.00000000000E+00 -0.90679901412E+03  0.90679901412E+03  0.00000000000E+00 0. -1.
         23    2    1    2    0    0  0.34819080463E+02 -0.59552831079E+02 -0.20052323396E+03  0.23096359131E+03  0.91518878382E+02 0.  0.
         24    2    1    2    0    0 -0.92996346597E+02  0.95711444523E+02 -0.10147431797E+03  0.18763322231E+03  0.84262612184E+02 0.  0.
        -11    1    4    4    0    0 -0.90814463693E+02  0.36768753653E+02 -0.72723637826E+02  0.12201612828E+03  0.00000000000E+00 0.  1.
         12    1    4    4    0    0 -0.21818829041E+01  0.58942690869E+02 -0.28750680145E+02  0.65617094028E+02  0.00000000000E+00 0. -1.
        -13    1    3    3    0    0  0.62574179586E+02 -0.19250799969E+02 -0.10789813143E+03  0.12620668769E+03  0.00000000000E+00 0.  1.
         13    1    3    3    0    0 -0.27755099123E+02 -0.40302031110E+02 -0.92625102524E+02  0.10475690362E+03  0.00000000000E+00 0. -1.
          1    1    1    2  501    0  0.58177266134E+02 -0.36158613443E+02 -0.54435543432E+03  0.54864822837E+03  0.00000000000E+00 0. -1.
<scales pt_clust_5="13000.00000" pt_clust_6="13000.00000" pt_clust_7="13000.00000" pt_clust_8="13000.00000" pt_clust_9="68.49850"></scales>
<clustering>
<clus scale="   68.498">  1  9  2 -1</clus>
<clus scale="   84.263">  5  6 -1 -1</clus>
<clus scale="   91.519">  7  8 -1 -1</clus>
<clus scale="  119.837">  1  5  2 -1</clus>
<clus scale="   68.498">  1  5  2 -1</clus>
</clustering>
</event>
<event>
 9    2  0.9254368E-005  0.1521833E+03  0.7546771E-02  0.1199162E+00
         -3   -1    0    0    0  501 -0.00000000000E+00  0.00000000000E+00  0.10183521922E+03  0.10183521922E+03  0.00000000000E+00 0.  1.
         21   -1    0    0  501  502  0.00000000000E+00 -0.00000000000E+00 -0.32959496817E+03  0.32959496817E+03  0.00000000000E+00 0.  1.
         23    2    1    2    0    0  0.77097257641E+02 -0.67034721526E+02 -0.11936879914E+03  0.18168624681E+03  0.91232346493E+02 0.  0.
         24    2    1    2    0    0 -0.99790429124E+02  0.10288964709E+03 -0.12108677830E+03  0.20545240888E+03  0.83691548040E+02 0.  0.
        -11    1    4    4    0    0 -0.71601124787E+02  0.46685998264E+02 -0.22274860823E+02  0.88331607759E+02  0.00000000000E+00 0.  1.
         12    1    4    4    0    0 -0.28189304337E+02  0.56203648825E+02 -0.98811917473E+02  0.11712080112E+03  0.00000000000E+00 0. -1.
        -13    1    3    3    0    0  0.30592669686E+02 -0.58115432653E+02 -0.11712402855E+03  0.13428087360E+03  0.00000000000E+00 0.  1.
         13    1    3    3    0    0  0.46504587955E+02 -0.89192888735E+01 -0.22447705968E+01  0.47405373218E+02  0.00000000000E+00 0. -1.
         -4    1    1    2    0  502  0.22693171483E+02 -0.35854925563E+02  0.12695828483E+02  0.44291531696E+02  0.00000000000E+00 0.  1.
<scales pt_clust_5="13000.00000" pt_clust_6="13000.00000" pt_clust_7="13000.00000" pt_clust_8="13000.00000" pt_clust_9="42.43298"></scales>
<clustering>
<clus scale="   42.433">  2  9  1 -1</clus>
<clus scale="   83.692">  5  6 -1 -1</clus>
<clus scale="   91.232">  7  8 -1 -1</clus>
<clus scale="  147.786">  2  5  1 -1</clus>
<clus scale="   42.433">  2  5  1 -1</clus>
</clustering>
</event>
<event>
 9    2  0.9254368E-005  0.9468196E+02  0.7546771E-02  0.1298766E+00
         21   -1    0    0  501  502  0.00000000000E+00  0.00000000000E+00  0.22224107183E+03  0.22224107183E+03  0.00000000000E+00 0.  1.
         -1   -1    0    0    0  501 -0.00000000000E+00 -0.00000000000E+00 -0.13991365217E+03  0.13991365217E+03  0.00000000000E+00 0.  1.
         23    2    1    2    0    0  0.44410012045E+01 -0.24739558139E+02 -0.99301419554E+02  0.13797729699E+03  0.92440220311E+02 0.  0.
         24    2    1    2    0    0 -0.18982880610E+02 -0.18595287509E+02  0.12850782951E+03  0.15409735297E+03  0.80781170297E+02 0.  0.
        -13    1    4    4    0    0 -0.23081561195E+02 -0.45503766151E+02  0.51823624961E+02  0.72725781572E+02  0.00000000000E+00 0.  1.
         14    1    4    4    0    0  0.40986805852E+01  0.26908478642E+02  0.76684204545E+02  0.81371571399E+02  0.00000000000E+00 0. -1.
        -13    1    3    3    0    0 -0.16840387014E+02 -0.39015890201E+02 -0.10361477967E+03  0.11199044999E+03  0.00000000000E+00 0.  1.
         13    1    3    3    0    0  0.21281388218E+02  0.14276332062E+02  0.43133601150E+01  0.25986847002E+02  0.00000000000E+00 0. -1.
         -2    1    1    2    0  502  0.14541879406E+02  0.43334845649E+02  0.53121009715E+02  0.70080074038E+02  0.00000000000E+00 0.  1.
<scales pt_clust_5="13000.00000" pt_clust_6="13000.00000" pt_clust_7="13000.00000" pt_clust_8="13000.00000" pt_clust_9="45.70968"></scales>
<clustering>
<clus scale="   45.710">  1  9  2 -1</clus>
<clus scale="   80.781">  5  6 -1 -1</clus>
<clus scale="   83.337">  1  5  2 -1</clus>
<clus scale="   92.440">  7  8 -1 -1</clus>
<clus scale="   45.710">  1  5  2 -1</clus>
</clustering>
</event>
<event>
 9    2  0.9254368E-005  0.1483216E+03  0.7546771E-02  0.1204656E+00
         21   -1    0    0  501  502  0.00000000000E+00  0.00000000000E+00  0.20890206153E+03  0.20890206153E+03  0.00000000000E+00 0.  1.
         -1   -1    0    0    0  501 -0.00000000000E+00 -0.00000000000E+00 -0.25125265839E+03  0.25125265839E+03  0.00000000000E+00 0.  1.
         23    2    1    2    0    0  0.21952387957E+02  0.10067507391E+03 -0.35295165265E+02  0.14487173281E+03  0.95523255969E+02 0.  0.
         24    2    1    2    0    0 -0.42978284809E+02 -0.13586291109E+03  0.10475424605E+03  0.19619614385E+03  0.84932980759E+02 0.  0.
        -11    1    4    4    0    0 -0.64268429728E+02 -0.78524637450E+02  0.83611449492E+02  0.13148164979E+03  0.00000000000E+00 0.  1.
         12    1    4    4    0    0  0.21290144919E+02 -0.57338273636E+02  0.21142796560E+02  0.64714494054E+02  0.00000000000E+00 0. -1.
        -13    1    3    3    0    0 -0.31862747974E+02  0.97315832214E+01  0.44406116868E+00  0.33318697615E+02  0.00000000000E+00 0. -1.
         13    1    3    3    0    0  0.53815135931E+02  0.90943490692E+02 -0.35739226434E+02  0.11155303519E+03  0.00000000000E+00 0.  1.
         -2    1    1    2    0  502  0.21025896852E+02  0.35187837174E+02 -0.11180967764E+03  0.11908684326E+03  0.00000000000E+00 0.  1.
<scales pt_clust_5="13000.00000" pt_clust_6="13000.00000" pt_clust_7="13000.00000" pt_clust_8="13000.00000" pt_clust_9="40.99114"></scales>
<clustering>
<clus scale="   40.991">  1  9  2 -1</clus>
<clus scale="   84.933">  5  6 -1 -1</clus>
<clus scale="   95.523">  7  8 -1 -1</clus>
<clus scale="  141.733">  1  5  2 -1</clus>
<clus scale="   40.991">  1  5  2 -1</clus>
</clustering>
</event>
<event>
 9    2  0.9254368E-005  0.1670043E+03  0.7546771E-02  0.1202638E+00
          2   -1    0    0  502    0 -0.00000000000E+00  0.00000000000E+00  0.13062681557E+04  0.13062681557E+04  0.00000000000E+00 0. -1.
         21   -1    0    0  501  502  0.00000000000E+00 -0.00000000000E+00 -0.64956879996E+02  0.64956879996E+02  0.00000000000E+00 0.  1.
         24    2    1    2    0    0  0.55554114972E+02 -0.17742690131E+02  0.30712010689E+02  0.10816022400E+03  0.85757470298E+02 0.  0.
         23    2    1    2    0    0 -0.48122239263E+01 -0.13550159724E+03  0.33063345508E+03  0.36841494847E+03  0.89594934471E+02 0.  0.
        -13    1    3    3    0    0  0.48865148487E+02 -0.20330424185E+02 -0.20271247508E+02  0.56674971193E+02  0.00000000000E+00 0.  1.
         14    1    3    3    0    0  0.66889664845E+01  0.25877340546E+01  0.50983258197E+02  0.51485252807E+02  0.00000000000E+00 0. -1.
        -11    1    4    4    0    0  0.32404084232E+02 -0.22506514035E+02  0.12231024909E+03  0.12851601021E+03  0.00000000000E+00 0. -1.
         11    1    4    4    0    0 -0.37216308159E+02 -0.11299508321E+03  0.20832320599E+03  0.23989893826E+03  0.00000000000E+00 0.  1.
          1    1    1    2  501    0 -0.50741891045E+02  0.15324428737E+03  0.87996580996E+03  0.89464986325E+03  0.00000000000E+00 0. -1.
<scales pt_clust_5="13000.00000" pt_clust_6="13000.00000" pt_clust_7="13000.00000" pt_clust_8="13000.00000" pt_clust_9="140.93683"></scales>
<clustering>
<clus scale="   85.757">  5  6 -1 -1</clus>
<clus scale="   89.595">  7  8 -1 -1</clus>
<clus scale="  103.708">  1  5  2 -1</clus>
<clus scale="  140.937">  2  9  1 -1</clus>
<clus scale="  140.937">  2  5  1 -1</clus>
</clustering>
</event>
<event>
 9    2  0.9254368E-005  0.1134960E+03  0.7546771E-02  0.1259960E+00
          2   -1    0    0  502    0 -0.00000000000E+00  0.00000000000E+00  0.62637913087E+02  0.62637913087E+02  0.00000000000E+00 0. -1.
         21   -1    0    0  501  502  0.00000000000E+00 -0.00000000000E+00 -0.54540710405E+03  0.54540710405E+03  0.00000000000E+00 0.  1.
         23    2    1    2    0    0 -0.39386791031E+01  0.41240280682E+02 -0.52151811251E+02  0.11398292534E+03  0.92498767066E+02 0.  0.
         24    2    1    2    0    0 -0.45208161516E+02  0.54248368466E+02 -0.32983644053E+03  0.34678584877E+03  0.80508906676E+02 0.  0.
        -11    1    4    4    0    0 -0.27495776746E+02  0.74421472462E+02 -0.22544960058E+03  0.23900229226E+03  0.00000000000E+00 0.  1.
         12    1    4    4    0    0 -0.17712384770E+02 -0.20173103996E+02 -0.10438683995E+03  0.10778355651E+03  0.00000000000E+00 0. -1.
        -11    1    3    3    0    0 -0.44720226955E+02  0.35995965285E+02 -0.16955905052E+02  0.59859092307E+02  0.00000000000E+00 0. -1.
         11    1    3    3    0    0  0.40781547852E+02  0.52443153970E+01 -0.35195906199E+02  0.54123833034E+02  0.00000000000E+00 0.  1.
          1    1    1    2  501    0  0.49146840619E+02 -0.95488649148E+02 -0.10078093918E+03  0.14727624303E+03  0.00000000000E+00 0. -1.
<scales pt_clust_5="13000.00000" pt_clust_6="13000.00000" pt_clust_7="13000.00000" pt_clust_8="13000.00000" pt_clust_9="79.99785"></scales>
<clustering>
<clus scale="   80.509">  5  6 -1 -1</clus>
<clus scale="   92.499">  7  8 -1 -1</clus>
<clus scale="  101.352">  1  7  2 -1</clus>
<clus scale="   79.998">  2  9  1 -1</clus>
<clus scale="   79.998">  2  5  1 -1</clus>
</clustering>
</event>
<event>
 9    2  0.9254368E-005  0.2052790E+03  0.7546771E-02  0.1174502E+00
         21   -1    0    0  501  502  0.00000000000E+00  0.00000000000E+00  0.93260303865E+02  0.93260303865E+02  0.00000000000E+00 0. -1.
          2   -1    0    0  502    0 -0.00000000000E+00 -0.00000000000E+00 -0.72273648718E+03  0.72273648718E+03  0.00000000000E+00 0. -1.
         23    2    1    2    0    0 -0.54603735425E+02 -0.11110221930E+02 -0.12013270240E+03  0.15899102120E+03  0.87984508194E+02 0.  0.
         24    2    1    2    0    0  0.22396180109E+03  0.25070722501E+02 -0.34964397250E+03  0.42380846504E+03  0.81088088289E+02 0.  0.
        -11    1    4    4    0    0  0.37998012798E+02 -0.22467597034E+02 -0.96546848019E+02  0.10615995363E+03  0.00000000000E+00 0.  1.
         12    1    4    4    0    0  0.18596378829E+03  0.47538319535E+02 -0.25309712448E+03  0.31764851141E+03  0.00000000000E+00 0. -1.
        -11    1    3    3    0    0  0.37576436230E+00 -0.24539555504E+02  0.17545097165E+01  0.24605066298E+02  0.00000000000E+00 0.  1.
         11    1    3    3    0    0 -0.54979499788E+02  0.13429333574E+02 -0.12188721211E+03  0.13438595490E+03  0.00000000000E+00 0. -1.
          1    1    1    2  501    0 -0.16935806566E+03 -0.13960500571E+02 -0.15969950841E+03  0.23319730480E+03  0.00000000000E+00 0. -1.
<scales pt_clust_5="13000.00000" pt_clust_6="13000.00000" pt_clust_7="13000.00000" pt_clust_8="13000.00000" pt_clust_9="188.58466"></scales>
<clustering>
<clus scale="   81.088">  5  6 -1 -1</clus>
<clus scale="   87.985">  7  8 -1 -1</clus>
<clus scale="  104.146">  2  7  1 -1</clus>
<clus scale="  188.585">  1  9  2 -1</clus>
<clus scale="  188.585">  1  5  2 -1</clus>
</clustering>
</event>
<event>
 9    2  0.9254368E-005  0.2197941E+03  0.7546771E-02  0.1159630E+00
         21   -1    0    0  501  502  0.00000000000E+00  0.00000000000E+00  0.14441824772E+03  0.14441824772E+03  0.00000000000E+00 0.  1.
          2   -1    0    0  502    0 -0.00000000000E+00 -0.00000000000E+00 -0.70570721730E+03  0.70570721730E+03  0.00000000000E+00 0. -1.
         23    2    1    2    0    0  0.24076490549E+02 -0.75036363784E+02 -0.15574040933E+03  0.19626412249E+03  0.89746294581E+02 0.  0.
         24    2    1    2    0    0 -0.11217407762E+03 -0.15703420282E+03 -0.40959430674E+02  0.21279086502E+03  0.79746553076E+02 0.  0.
        -13    1    4    4    0    0 -0.59718344317E+02 -0.11797662828E+03  0.58600604149E+01  0.13235975890E+03  0.00000000000E+00 0.  1.
         14    1    4    4    0    0 -0.52455733301E+02 -0.39057574546E+02 -0.46819491089E+02  0.80431106118E+02  0.00000000000E+00 0. -1.
        -13    1    3    3    0    0  0.15522527906E+02 -0.41952381151E+02 -0.15579767353E+03  0.16209215352E+03  0.00000000000E+00 0. -1.
         13    1    3    3    0    0  0.85539626430E+01 -0.33083982634E+02  0.57264198949E-01  0.34171968966E+02  0.00000000000E+00 0.  1.
          1    1    1    2  501    0  0.88097587069E+02  0.23207056661E+03 -0.36458912957E+03  0.44107047751E+03  0.00000000000E+00 0. -1.
<scales pt_clust_5="13000.00000" pt_clust_6="13000.00000" pt_clust_7="13000.00000" pt_clust_8="13000.00000" pt_clust_9="204.81694"></scales>
<clustering>
<clus scale="   79.747">  5  6 -1 -1</clus>
<clus scale="   89.746">  7  8 -1 -1</clus>
<clus scale="  119.434">  2  7  1 -1</clus>
<clus scale="  204.817">  1  9  2 -1</clus>
<clus scale="  204.817">  1  5  2 -1</clus>
</clustering>
</event>
<event>
 9    2  0.9254368E-005  0.1168169E+03  0.7546771E-02  0.1251636E+00
         21   -1    0    0  501  502  0.00000000000E+00  0.00000000000E+00  0.30936817946E+03  0.30936817946E+03  0.00000000000E+00 0.  1.
          2   -1    0    0  502    0 -0.00000000000E+00 -0.00000000000E+00 -0.10954228318E+04  0.10954228318E+04  0.00000000000E+00 0. -1.
         24    2    1    2    0    0  0.70437186901E+02  0.25959850174E+02 -0.10157534306E+04  0.10216672461E+04  0.80085072907E+02 0.  0.
         23    2    1    2    0    0 -0.52933501229E+02 -0.59430947441E+02 -0.27604398187E+02  0.12306296853E+03  0.89713423518E+02 0.  0.
        -11    1    3    3    0    0  0.64603159393E+02  0.21132495416E+02 -0.39074297117E+03  0.39661091776E+03  0.00000000000E+00 0.  1.
         12    1    3    3    0    0  0.58340275078E+01  0.48273547583E+01 -0.62501045938E+03  0.62505632832E+03  0.00000000000E+00 0. -1.
        -13    1    4    4    0    0  0.57736890864E+01 -0.59841216582E+02 -0.56514549849E+01  0.60384150496E+02  0.00000000000E+00 0. -1.
         13    1    4    4    0    0 -0.58707190315E+02  0.41026914147E+00 -0.21952943202E+02  0.62678818038E+02  0.00000000000E+00 0.  1.
          1    1    1    2  501    0 -0.17503685672E+02  0.33471097266E+02  0.25730317641E+03  0.26006079665E+03  0.00000000000E+00 0. -1.
<scales pt_clust_5="13000.00000" pt_clust_6="13000.00000" pt_clust_7="13000.00000" pt_clust_8="13000.00000" pt_clust_9="37.77159"></scales>
<clustering>
<clus scale="   37.772">  1  9  2 -1</clus>
<clus scale="   80.085">  5  6 -1 -1</clus>
<clus scale="   89.713">  7  8 -1 -1</clus>
<clus scale="  109.596">  2  5  1 -1</clus>
<clus scale="   37.772">  1  5  2 -1</clus>
</clustering>
</event>
<event>
 9    2  0.9254368E-005  0.1550734E+03  0.7546771E-02  0.1198561E+00
         21   -1    0    0  501  502  0.00000000000E+00  0.00000000000E+00  0.69943256915E+02  0.69943256915E+02  0.00000000000E+00 0.  1.
          2   -1    0    0  502    0 -0.00000000000E+00 -0.00000000000E+00 -0.53557555503E+03  0.53557555503E+03  0.00000000000E+00 0. -1.
         24    2    1    2    0    0 -0.10166987538E+03  0.52737598592E+02 -0.33242146926E+03  0.35932919874E+03  0.74131113458E+02 0.  0.
         23    2    1    2    0    0  0.12348950582E+03 -0.61940593173E+02 -0.14209788043E+03  0.22089591700E+03  0.97554617489E+02 0.  0.
        -13    1    3    3    0    0 -0.28720416066E+02  0.52215260822E+02 -0.10802388181E+03  0.12337120735E+03  0.00000000000E+00 0.  1.
         14    1    3    3    0    0 -0.72949459309E+02  0.52233777041E+00 -0.22439758745E+03  0.23595799139E+03  0.00000000000E+00 0. -1.
        -11    1    4    4    0    0  0.99054078868E+02 -0.30889810389E+02 -0.39622572932E+02  0.11106682318E+03  0.00000000000E+00 0.  1.
         11    1    4    4    0    0  0.24435426955E+02 -0.31050782784E+02 -0.10247530750E+03  0.10982909382E+03  0.00000000000E+00 0. -1.
          1    1    1    2  501    0 -0.21819630448E+02  0.92029945810E+01  0.88870515682E+01  0.25293696205E+02  0.00000000000E+00 0. -1.
<scales pt_clust_5="13000.00000" pt_clust_6="13000.00000" pt_clust_7="13000.00000" pt_clust_8="13000.00000" pt_clust_9="23.68103"></scales>
<clustering>
<clus scale="   23.681">  1  9  2 -1</clus>
<clus scale="   74.131">  5  6 -1 -1</clus>
<clus scale="   97.555">  7  8 -1 -1</clus>
<clus scale="  141.514">  2  5  1 -1</clus>
<clus scale="   23.681">  1  5  2 -1</clus>
</clustering>
</event>
<event>
 9    2  0.9254368E-005  0.9812271E+02  0.7546771E-02  0.1290188E+00
         -3   -1    0    0    0  501 -0.00000000000E+00  0.00000000000E+00  0.11903410192E+03  0.11903410192E+03  0.00000000000E+00 0.  1.
         21   -1    0    0  501  502  0.00000000000E+00 -0.00000000000E+00 -0.13175353149E+03  0.13175353149E+03  0.00000000000E+00 0.  1.
         23    2    1    2    0    0 -0.51978821130E+02  0.83884603728E+01  0.66912311015E+01  0.10457360634E+03  0.90103842624E+02 0.  0.
         24    2    1    2    0    0  0.80786442404E+01 -0.41293077094E+02 -0.47378197085E+01  0.89422904569E+02  0.78763101878E+02 0.  0.
        -11    1    4    4    0    0  0.12614908203E+02 -0.31744044449E+02 -0.40005540426E+02  0.52604786206E+02  0.00000000000E+00 0.  1.
         12    1    4    4    0    0 -0.45362639621E+01 -0.95490326443E+01  0.35267720718E+02  0.36818118363E+02  0.00000000000E+00 0. -1.
        -13    1    3    3    0    0  0.24617900864E+02 -0.23608287206E+01 -0.76938645018E+01  0.25900002050E+02  0.00000000000E+00 0. -1.
         13    1    3    3    0    0 -0.76596721994E+02  0.10749289093E+02  0.14385095603E+02  0.78673604289E+02  0.00000000000E+00 0.  1.
         -4    1    1    2    0  502  0.43900176890E+02  0.32904616721E+02 -0.14672840962E+02  0.56791122496E+02  0.00000000000E+00 0.  1.
<scales pt_clust_5="13000.00000" pt_clust_6="13000.00000" pt_clust_7="13000.00000" pt_clust_8="13000.00000" pt_clust_9="54.86291"></scales>
<clustering>
<clus scale="   54.863">  2  9  1 -1</clus>
<clus scale="   78.763">  5  6 -1 -1</clus>
<clus scale="   87.824">  2  5  1 -1</clus>
<clus scale="   90.104">  7  8 -1 -1</clus>
<clus scale="   54.863">  2  5  1 -1</clus>
</clustering>
</event>
<event>
 9    2  0.9254368E-005  0.9689356E+02  0.7546771E-02  0.1293248E+00
         21   -1    0    0  501  502  0.00000000000E+00  0.00000000000E+00  0.49269729543E+03  0.49269729543E+03  0.00000000000E+00 0.  1.
          2   -1    0    0  502    0 -0.00000000000E+00 -0.00000000000E+00 -0.17701787852E+03  0.17701787852E+03  0.00000000000E+00 0. -1.
         23    2    1    2    0    0 -0.34767518873E+02 -0.14832362876E+02 -0.13642566969E+03  0.16841583924E+03  0.91231311504E+02 0.  0.
         24    2    1    2    0    0 -0.33031779851E+02  0.48022338597E+02  0.97599352172E+02  0.13884570301E+03  0.79719835772E+02 0.  0.
        -13    1    4    4    0    0 -0.24718988330E+02  0.57407327453E+02  0.10648888157E+03  0.12347676513E+03  0.00000000000E+00 0.  1.
         14    1    4    4    0    0 -0.83127915210E+01 -0.93849888563E+01 -0.88895293954E+01  0.15368937881E+02  0.00000000000E+00 0. -1.
        -13    1    3    3    0    0 -0.85024675515E+01  0.21785235781E+02  0.13829184177E+01  0.23426500290E+02  0.00000000000E+00 0.  1.
         13    1    3    3    0    0 -0.26265051322E+02 -0.36617598657E+02 -0.13780858811E+03  0.14498933895E+03  0.00000000000E+00 0. -1.
          1    1    1    2  501    0  0.67799298724E+02 -0.33189975721E+02  0.35450573442E+03  0.36245363170E+03  0.00000000000E+00 0. -1.
<scales pt_clust_5="13000.00000" pt_clust_6="13000.00000" pt_clust_7="13000.00000" pt_clust_8="13000.00000" pt_clust_9="75.48721"></scales>
<clustering>
<clus scale="   75.487">  1  9  2 -1</clus>
<clus scale="   79.720">  5  6 -1 -1</clus>
<clus scale="   86.142">  1  5  2 -1</clus>
<clus scale="   91.231">  7  8 -1 -1</clus>
<clus scale="   75.487">  1  5  2 -1</clus>
</clustering>
</event>
<event>
 9    2  0.9254368E-005  0.1202781E+03  0.7546771E-02  0.1252815E+00
         21   -1    0    0  501  502  0.00000000000E+00  0.00000000000E+00  0.21147078408E+03  0.21147078408E+03  0.00000000000E+00 0. -1.
          2   -1    0    0  502    0 -0.00000000000E+00 -0.00000000000E+00 -0.12754792622E+03  0.12754792622E+03  0.00000000000E+00 0. -1.
         24    2    1    2    0    0 -0.55427403356E+02  0.44224750089E+02 -0.45260389769E+02  0.11467738227E+03  0.77938267618E+02 0.  0.
         23    2    1    2    0    0 -0.33209963933E+01 -0.47808676694E+02  0.49254092733E+02  0.12507960929E+03  0.10450954227E+03 0.  0.
        -11    1    3    3    0    0 -0.30250426327E+02 -0.16838390971E+02 -0.22996692172E-01  0.34621095192E+02  0.00000000000E+00 0.  1.
         12    1    3    3    0    0 -0.25176977029E+02  0.61063141060E+02 -0.45237393077E+02  0.80056287079E+02  0.00000000000E+00 0. -1.
        -11    1    4    4    0    0 -0.20626105539E+02 -0.75058699161E+02  0.17469443560E+02  0.79777352725E+02  0.00000000000E+00 0. -1.
         11    1    4    4    0    0  0.17305109145E+02  0.27250022467E+02  0.31784649173E+02  0.45302256567E+02  0.00000000000E+00 0.  1.
          1    1    1    2  501    0  0.58748399750E+02  0.35839266051E+01  0.79929154900E+02  0.99261718734E+02  0.00000000000E+00 0. -1.
<scales pt_clust_5="13000.00000" pt_clust_6="13000.00000" pt_clust_7="13000.00000" pt_clust_8="13000.00000" pt_clust_9="58.85762"></scales>
<clustering>
<clus scale="   58.858">  1  9  2 -1</clus>
<clus scale="   77.938">  5  6 -1 -1</clus>
<clus scale="   98.076">  2  5  1 -1</clus>
<clus scale="  104.510">  7  8 -1 -1</clus>
<clus scale="   58.858">  1  5  2 -1</clus>
</clustering>
</event>
<event>
 9    2  0.9254368E-005  0.1248876E+03  0.7546771E-02  0.1238784E+00
          4   -1    0    0  502    0 -0.00000000000E+00  0.00000000000E+00  0.59312133222E+03  0.59312133222E+03  0.00000000000E+00 0. -1.
         21   -1    0    0  501  502  0.00000000000E+00 -0.00000000000E+00 -0.41460116896E+02  0.41460116896E+02  0.00000000000E+00 0.  1.
         24    2    1    2    0    0  0.33677105864E+02  0.67297428437E+02  0.23645336499E+03  0.26088566103E+03  0.80548389058E+02 0.  0.
         23    2    1    2    0    0 -0.87158620523E+02 -0.62844909975E+02  0.18721902298E+03  0.23491092848E+03  0.92661070093E+02 0.  0.
        -11    1    3    3    0    0 -0.55703218401E+01  0.53829475925E+02  0.19446156396E+03  0.20185128392E+03  0.00000000000E+00 0.  1.
         12    1    3    3    0    0  0.39247427704E+02  0.13467952512E+02  0.41991801038E+02  0.59034377109E+02  0.00000000000E+00 0. -1.
        -11    1    4    4    0    0 -0.50871783114E+02  0.35785996991E+01  0.13115129423E+03  0.14071747109E+03  0.00000000000E+00 0. -1.
         11    1    4    4    0    0 -0.36286837409E+02 -0.66423509674E+02  0.56067728755E+02  0.94193457386E+02  0.00000000000E+00 0.  1.
          3    1    1    2  501    0  0.53481514659E+02 -0.44525184613E+01  0.12798882735E+03  0.13878485961E+03  0.00000000000E+00 0. -1.
<scales pt_clust_5="13000.00000" pt_clust_6="13000.00000" pt_clust_7="13000.00000" pt_clust_8="13000.00000" pt_clust_9="53.66657"></scales>
<clustering>
<clus scale="   53.667">  2  9  1 -1</clus>
<clus scale="   80.548">  5  6 -1 -1</clus>
<clus scale="   92.661">  7  8 -1 -1</clus>
<clus scale="  116.185">  1  5  2 -1</clus>
<clus scale="   53.667">  2  5  1 -1</clus>
</clustering>
</event>
<event>
 9    2  0.9254368E-005  0.1437002E+03  0.7546771E-02  0.1222283E+00
          4   -1    0    0  502    0 -0.00000000000E+00  0.00000000000E+00  0.13693033205E+03  0.13693033205E+03  0.00000000000E+00 0. -1.
         21   -1    0    0  501  502  0.00000000000E+00 -0.00000000000E+00 -0.25454690718E+03  0.25454690718E+03  0.00000000000E+00 0. -1.
         23    2    1    2    0    0 -0.55101589160E+02 -0.54570376083E+01 -0.35194075623E+02  0.11282667147E+03  0.91789271968E+02 0.  0.
         24    2    1    2    0    0 -0.31452910751E+02 -0.88618296742E+02 -0.64982845243E+02  0.14963122221E+03  0.96562127007E+02 0.  0.
        -13    1    4    4    0    0 -0.12623721797E+02 -0.80693574530E+02 -0.87181471874E+02  0.11946305019E+03  0.00000000000E+00 0.  1.
         14    1    4    4    0    0 -0.18829188954E+02 -0.79247222121E+01  0.22198626631E+02  0.30168172021E+02  0.00000000000E+00 0. -1.
        -11    1    3    3    0    0 -0.41064981970E+02  0.11994990058E+02 -0.63602387637E+02  0.76651655193E+02  0.00000000000E+00 0. -1.
         11    1    3    3    0    0 -0.14036607190E+02 -0.17452027666E+02  0.28408312014E+02  0.36175016276E+02  0.00000000000E+00 0.  1.
          3    1    1    2  501    0  0.86554499911E+02  0.94075334350E+02 -0.17439654264E+02  0.12901934556E+03  0.00000000000E+00 0. -1.
<scales pt_clust_5="13000.00000" pt_clust_6="13000.00000" pt_clust_7="13000.00000" pt_clust_8="13000.00000" pt_clust_9="106.42134"></scales>
<clustering>
<clus scale="   91.789">  7  8 -1 -1</clus>
<clus scale="   96.562">  5  6 -1 -1</clus>
<clus scale="  107.197">  1  7  2 -1</clus>
<clus scale="  106.421">  2  9  1 -1</clus>
<clus scale="  106.421">  2  5  1 -1</clus>
</clustering>
</event>
<event>
 9    2  0.9554948E-005  0.1466337E+03  0.7546771E-02  0.1204927E+00
          2   -1    0    0  502    0 -0.00000000000E+00  0.00000000000E+00  0.76471223467E+03  0.76471223467E+03  0.00000000000E+00 0. -1.
         21   -1    0    0  501  502  0.00000000000E+00 -0.00000000000E+00 -0.51242371014E+03  0.51242371014E+03  0.00000000000E+00 0. -1.
         24    2    1    2    0    0 -0.62332321738E+02 -0.10492786547E+03  0.74254040672E+03  0.75682506684E+03  0.80763549294E+02 0.  0.
         23    2    1    2    0    0  0.26063271620E+02  0.94312173782E+02 -0.29588396987E+03  0.32230324618E+03  0.82206925636E+02 0.  0.
        -13    1    3    3    0    0 -0.38959960879E+02 -0.28141955858E+01  0.14486025918E+03  0.15003430587E+03  0.00000000000E+00 0.  1.
         14    1    3    3    0    0 -0.23372360859E+02 -0.10211366989E+03  0.59768014754E+03  0.60679076097E+03  0.00000000000E+00 0. -1.
        -13    1    4    4    0    0 -0.11323785452E+02  0.85495104734E+02 -0.16901279672E+03  0.18974447688E+03  0.00000000000E+00 0. -1.
         13    1    4    4    0    0  0.37387057072E+02  0.88170690478E+01 -0.12687117315E+03  0.13255876930E+03  0.00000000000E+00 0.  1.
          1    1    1    2  501    0  0.36269050118E+02  0.10615691690E+02 -0.19436791232E+03  0.19800763179E+03  0.00000000000E+00 0. -1.
<scales pt_clust_5="13000.00000" pt_clust_6="13000.00000" pt_clust_7="13000.00000" pt_clust_8="13000.00000" pt_clust_9="37.79070"></scales>
<clustering>
<clus scale="   37.791">  2  9  1 -1</clus>
<clus scale="   80.764">  5  6 -1 -1</clus>
<clus scale="   82.207">  7  8 -1 -1</clus>
<clus scale="  145.829">  1  5  2 -1</clus>
<clus scale="   37.791">  2  5  1 -1</clus>
</clustering>
</event>
<event>
 9    2  0.9254368E-005  0.9646733E+02  0.7546771E-02  0.1293799E+00
         21   -1    0    0  501  502  0.00000000000E+00  0.00000000000E+00  0.54171024952E+02  0.54171024952E+02  0.00000000000E+00 0. -1.
          4   -1    0    0  502    0 -0.00000000000E+00 -0.00000000000E+00 -0.28639353828E+03  0.28639353828E+03  0.00000000000E+00 0. -1.
         24    2    1    2    0    0  0.56387658605E+00 -0.20831766052E+02 -0.14679272480E+03  0.16887268729E+03  0.80843057982E+02 0.  0.
         23    2    1    2    0    0  0.20444812743E+02  0.53094727038E+02 -0.76527663480E+02  0.13217591070E+03  0.91525666804E+02 0.  0.
        -11    1    3    3    0    0  0.31114870522E+02  0.81334591828E+01 -0.10393376898E+03  0.10879575663E+03  0.00000000000E+00 0.  1.
         12    1    3    3    0    0 -0.30550993936E+02 -0.28965225235E+02 -0.42858955816E+02  0.60076930656E+02  0.00000000000E+00 0. -1.
        -13    1    4    4    0    0 -0.14104477677E+02 -0.21408634653E+02 -0.18836237317E+02  0.31813043937E+02  0.00000000000E+00 0.  1.
         13    1    4    4    0    0  0.34549290420E+02  0.74503361691E+02 -0.57691426162E+02  0.10036286676E+03  0.00000000000E+00 0. -1.
          3    1    1    2  501    0 -0.21008689329E+02 -0.32262960986E+02 -0.89021250467E+01  0.39515965245E+02  0.00000000000E+00 0. -1.
<scales pt_clust_5="13000.00000" pt_clust_6="13000.00000" pt_clust_7="13000.00000" pt_clust_8="13000.00000" pt_clust_9="38.50018"></scales>
<clustering>
<clus scale="   38.500">  1  9  2 -1</clus>
<clus scale="   80.843">  5  6 -1 -1</clus>
<clus scale="   86.398">  2  5  1 -1</clus>
<clus scale="   91.526">  7  8 -1 -1</clus>
<clus scale="   38.500">  1  5  2 -1</clus>
</clustering>
</event>
<event>
 9    2  0.9254368E-005  0.9877646E+02  0.7546771E-02  0.1284688E+00
          2   -1    0    0  502    0 -0.00000000000E+00  0.00000000000E+00  0.29824222805E+03  0.29824222805E+03  0.00000000000E+00 0. -1.
         21   -1    0    0  501  502  0.00000000000E+00 -0.00000000000E+00 -0.12105190852E+03  0.12105190852E+03  0.00000000000E+00 0. -1.
         23    2    1    2    0    0  0.46202819002E+02 -0.37056179574E+02  0.67394464941E+02  0.12309887737E+03  0.84282019290E+02 0.  0.
         24    2    1    2    0    0  0.40770281839E+01  0.42912673191E+02 -0.66432357378E+02  0.11284110942E+03  0.80384937579E+02 0.  0.
        -13    1    4    4    0    0  0.22363435208E+02  0.10809462917E+02  0.10908546707E+02  0.27128658539E+02  0.00000000000E+00 0.  1.
         14    1    4    4    0    0 -0.18286407024E+02  0.32103210274E+02 -0.77340904085E+02  0.85712450884E+02  0.00000000000E+00 0. -1.
        -13    1    3    3    0    0  0.20662119567E+02  0.26871318872E+02  0.18078614344E+02  0.38416497231E+02  0.00000000000E+00 0.  1.
         13    1    3    3    0    0  0.25540699434E+02 -0.63927498446E+02  0.49315850597E+02  0.84682380134E+02  0.00000000000E+00 0. -1.
          1    1    1    2  501    0 -0.50279847186E+02 -0.58564936168E+01  0.17622821196E+03  0.18335414978E+03  0.00000000000E+00 0. -1.
<scales pt_clust_5="13000.00000" pt_clust_6="13000.00000" pt_clust_7="13000.00000" pt_clust_8="13000.00000" pt_clust_9="50.61980"></scales>
<clustering>
<clus scale="   50.620">  2  9  1 -1</clus>
<clus scale="   80.385">  5  6 -1 -1</clus>
<clus scale="   84.282">  7  8 -1 -1</clus>
<clus scale="   95.473">  2  5  1 -1</clus>
<clus scale="   50.620">  2  5  1 -1</clus>
</clustering>
</event>
<event>
 9    2  0.9254368E-005  0.1678938E+03  0.7546771E-02  0.1181537E+00
         21   -1    0    0  501  502  0.00000000000E+00  0.00000000000E+00  0.13987752980E+03  0.13987752980E+03  0.00000000000E+00 0. -1.
          2   -1    0    0  502    0 -0.00000000000E+00 -0.00000000000E+00 -0.33376092098E+03  0.33376092098E+03  0.00000000000E+00 0. -1.
         23    2    1    2    0    0 -0.45017630770E+02  0.13730320849E+03 -0.21133937799E+03  0.27231173113E+03  0.92793254489E+02 0.  0.
         24    2    1    2    0    0  0.70493112075E+02 -0.10774218119E+03  0.37515153128E+02  0.15744933782E+03  0.82493944074E+02 0.  0.
        -11    1    4    4    0    0  0.70288374425E+01 -0.25486836225E+02  0.46162706963E+02  0.53197545909E+02  0.00000000000E+00 0.  1.
         12    1    4    4    0    0  0.63464274633E+02 -0.82255344963E+02 -0.86475538347E+01  0.10425179191E+03  0.00000000000E+00 0. -1.
        -11    1    3    3    0    0 -0.54360156383E+02  0.96120862377E+02 -0.20020444331E+03  0.22863959829E+03  0.00000000000E+00 0. -1.
         11    1    3    3    0    0  0.93425256129E+01  0.41182346111E+02 -0.11134934682E+02  0.43672132836E+02  0.00000000000E+00 0.  1.
          1    1    1    2  501    0 -0.25475481305E+02 -0.29561027299E+02 -0.20059166323E+02  0.43877381830E+02  0.00000000000E+00 0. -1.
<scales pt_clust_5="13000.00000" pt_clust_6="13000.00000" pt_clust_7="13000.00000" pt_clust_8="13000.00000" pt_clust_9="39.02379"></scales>
<clustering>
<clus scale="   39.024">  1  9  2 -1</clus>
<clus scale="   82.494">  5  6 -1 -1</clus>
<clus scale="   92.793">  7  8 -1 -1</clus>
<clus scale="  162.428">  1  5  2 -1</clus>
<clus scale="   39.024">  1  5  2 -1</clus>
</clustering>
</event>
<event>
 9    2  0.5933634E-004  0.9855528E+02  0.7546771E-02  0.1290948E+00
         21   -1    0    0  501  502  0.00000000000E+00  0.00000000000E+00  0.22560625260E+03  0.22560625260E+03  0.00000000000E+00 0.  1.
         -3   -1    0    0    0  501 -0.00000000000E+00 -0.00000000000E+00 -0.44461721746E+03  0.44461721746E+03  0.00000000000E+00 0.  1.
         23    2    1    2    0    0  0.23756048778E+02  0.18797842631E+02 -0.41237625253E+03  0.42393204133E+03  0.93522688559E+02 0.  0.
         24    2    1    2    0    0 -0.48231846906E+02 -0.75276623475E+01  0.61738692662E+02  0.11193502891E+03  0.79591505628E+02 0.  0.
        -11    1    4    4    0    0 -0.95213799273E+01  0.20311663591E+02 -0.10981825746E+02  0.24976405872E+02  0.00000000000E+00 0.  1.
         12    1    4    4    0    0 -0.38710466979E+02 -0.27839325938E+02  0.72720518408E+02  0.86958623034E+02  0.00000000000E+00 0. -1.
        -13    1    3    3    0    0  0.45667269080E+02  0.42982465396E+02 -0.31651467891E+03  0.32266783813E+03  0.00000000000E+00 0.  1.
         13    1    3    3    0    0 -0.21911220302E+02 -0.24184622765E+02 -0.95861573616E+02  0.10126420320E+03  0.00000000000E+00 0. -1.
         -4    1    1    2    0  502  0.24475798129E+02 -0.11270180283E+02  0.13162659501E+03  0.13435639982E+03  0.00000000000E+00 0.  1.
<scales pt_clust_5="13000.00000" pt_clust_6="13000.00000" pt_clust_7="13000.00000" pt_clust_8="13000.00000" pt_clust_9="26.94590"></scales>
<clustering>
<clus scale="   26.946">  1  9  2 -1</clus>
<clus scale="   79.592">  5  6 -1 -1</clus>
<clus scale="   85.449">  1  5  2 -1</clus>
<clus scale="   93.523">  7  8 -1 -1</clus>
<clus scale="   26.946">  1  5  2 -1</clus>
</clustering>
</event>
<event>
 9    2  0.9254368E-005  0.1361344E+03  0.7546771E-02  0.1221410E+00
         21   -1    0    0  501  502  0.00000000000E+00  0.00000000000E+00  0.11527906852E+04  0.11527906852E+04  0.00000000000E+00 0. -1.
         -1   -1    0    0    0  501 -0.00000000000E+00 -0.00000000000E+00 -0.42224254658E+02  0.42224254658E+02  0.00000000000E+00 0.  1.
         23    2    1    2    0    0 -0.67940580901E+02 -0.70695888247E+02  0.98530959112E+02  0.16672978358E+03  0.92068668293E+02 0.  0.
         24    2    1    2    0    0  0.98685464325E+02  0.65266832765E+02  0.92145000035E+03  0.93247049105E+03  0.80203074871E+02 0.  0.
        -13    1    4    4    0    0  0.27165475550E+02  0.64736576135E+02  0.39597874152E+03  0.40215413846E+03  0.00000000000E+00 0.  1.
         14    1    4    4    0    0  0.71519988775E+02  0.53025663070E+00  0.52547125883E+03  0.53031635259E+03  0.00000000000E+00 0. -1.
        -11    1    3    3    0    0  0.21587555164E+02 -0.10633552853E+02  0.63592659827E+01  0.24890465003E+02  0.00000000000E+00 0. -1.
         11    1    3    3    0    0 -0.89528136065E+02 -0.60062335394E+02  0.92171693129E+02  0.14183931858E+03  0.00000000000E+00 0.  1.
         -2    1    1    2    0  502 -0.30744883424E+02  0.54290554820E+01  0.90585471067E+02  0.95814665207E+02  0.00000000000E+00 0.  1.
<scales pt_clust_5="13000.00000" pt_clust_6="13000.00000" pt_clust_7="13000.00000" pt_clust_8="13000.00000" pt_clust_9="31.22055"></scales>
<clustering>
<clus scale="   31.221">  1  9  2 -1</clus>
<clus scale="   80.203">  5  6 -1 -1</clus>
<clus scale="   92.069">  7  8 -1 -1</clus>
<clus scale="  128.407">  1  5  2 -1</clus>
<clus scale="   31.221">  1  5  2 -1</clus>
</clustering>
</event>
<event>
 9    2  0.9254368E-005  0.1088163E+03  0.7546771E-02  0.1271540E+00
         21   -1    0    0  501  502  0.00000000000E+00  0.00000000000E+00  0.34919551426E+02  0.34919551426E+02  0.00000000000E+00 0.  1.
          2   -1    0    0  502    0 -0.00000000000E+00 -0.00000000000E+00 -0.84071900193E+03  0.84071900193E+03  0.00000000000E+00 0. -1.
         23    2    1    2    0    0 -0.10530774722E+02 -0.36636020135E+02 -0.72595255032E+02  0.11702157210E+03  0.83491808556E+02 0.  0.
         24    2    1    2    0    0 -0.38972080342E+02 -0.43963818099E+02 -0.32773634936E+03  0.34226251591E+03  0.79251970059E+02 0.  0.
        -11    1    4    4    0    0 -0.30699782760E+02 -0.66356191382E+02 -0.27143387355E+03  0.28110846395E+03  0.00000000000E+00 0.  1.
         12    1    4    4    0    0 -0.82722975816E+01  0.22392373282E+02 -0.56302475809E+02  0.61154051956E+02  0.00000000000E+00 0. -1.
        -11    1    3    3    0    0  0.22325471347E+02  0.50080056399E+01  0.46194772713E+01  0.23341944255E+02  0.00000000000E+00 0. -1.
         11    1    3    3    0    0 -0.32856246069E+02 -0.41644025774E+02 -0.77214732303E+02  0.93679627845E+02  0.00000000000E+00 0.  1.
          1    1    1    2  501    0  0.49502855063E+02  0.80599838234E+02 -0.40546784612E+03  0.41635446535E+03  0.00000000000E+00 0. -1.
<scales pt_clust_5="13000.00000" pt_clust_6="13000.00000" pt_clust_7="13000.00000" pt_clust_8="13000.00000" pt_clust_9="74.56622"></scales>
<clustering>
<clus scale="   79.252">  5  6 -1 -1</clus>
<clus scale="   83.492">  7  8 -1 -1</clus>
<clus scale="   91.782">  2  7  1 -1</clus>
<clus scale="   74.566">  1  9  2 -1</clus>
<clus scale="   74.566">  1  5  2 -1</clus>
</clustering>
</event>
<event>
 9    2  0.1167456E-004  0.1010746E+03  0.7546771E-02  0.1283444E+00
         21   -1    0    0  501  502  0.00000000000E+00  0.00000000000E+00  0.83985280720E+02  0.83985280720E+02  0.00000000000E+00 0.  1.
          2   -1    0    0  502    0 -0.00000000000E+00 -0.00000000000E+00 -0.87942604901E+03  0.87942604901E+03  0.00000000000E+00 0. -1.
         23    2    1    2    0    0  0.23428332995E+02 -0.23642633757E+02 -0.15625336869E+03  0.18414217258E+03  0.91571630859E+02 0.  0.
         24    2    1    2    0    0 -0.10973133474E+03 -0.30976452243E+01 -0.24907849240E+01  0.13619386625E+03  0.80572972916E+02 0.  0.
        -11    1    4    4    0    0 -0.12108706321E+03  0.57995482914E+01  0.14668290034E+01  0.12123474429E+03  0.00000000000E+00 0.  1.
         12    1    4    4    0    0  0.11355728472E+02 -0.88971935157E+01 -0.39576139274E+01  0.14959121952E+02  0.00000000000E+00 0. -1.
        -13    1    3    3    0    0  0.14835372923E+02 -0.58744309675E+02 -0.86877550980E+02  0.10591832265E+03  0.00000000000E+00 0.  1.
         13    1    3    3    0    0  0.85929600723E+01  0.35101675918E+02 -0.69375817709E+02  0.78223849930E+02  0.00000000000E+00 0. -1.
          1    1    1    2  501    0  0.86303001741E+02  0.26740278982E+02 -0.63669661468E+03  0.64307529091E+03  0.00000000000E+00 0. -1.
<scales pt_clust_5="13000.00000" pt_clust_6="13000.00000" pt_clust_7="13000.00000" pt_clust_8="13000.00000" pt_clust_9="90.35075"></scales>
<clustering>
<clus scale="   80.573">  5  6 -1 -1</clus>
<clus scale="   90.351">  1  9  2 -1</clus>
<clus scale="   91.229">  1  5  2 -1</clus>
<clus scale="   91.572">  7  8 -1 -1</clus>
<clus scale="   90.351">  1  5  2 -1</clus>
</clustering>
</event>
<event>
 9    2  0.9254368E-005  0.1598771E+03  0.7546771E-02  0.1210963E+00
          2   -1    0    0  502    0 -0.00000000000E+00  0.00000000000E+00  0.14274256420E+04  0.14274256420E+04  0.00000000000E+00 0. -1.
         21   -1    0    0  501  502  0.00000000000E+00 -0.00000000000E+00 -0.69678812372E+02  0.69678812372E+02  0.00000000000E+00 0.  1.
         23    2    1    2    0    0  0.21895735773E+01 -0.41270013754E+02  0.14161081748E+03  0.17270349405E+03  0.89804593210E+02 0.  0.
         24    2    1    2    0    0 -0.10452825397E+03 -0.75558646798E+02  0.78884293827E+02  0.17659278286E+03  0.91252474822E+02 0.  0.
        -13    1    4    4    0    0 -0.90287829099E+02 -0.30096556719E+02  0.14150245004E+02  0.96218107669E+02  0.00000000000E+00 0.  1.
         14    1    4    4    0    0 -0.14240424872E+02 -0.45462090079E+02  0.64734048823E+02  0.80374675190E+02  0.00000000000E+00 0. -1.
        -13    1    3    3    0    0  0.37088824187E+02  0.44820368181E+01  0.33252801757E+02  0.50014181572E+02  0.00000000000E+00 0.  1.
         13    1    3    3    0    0 -0.34899250610E+02 -0.45752050572E+02  0.10835801572E+03  0.12268931248E+03  0.00000000000E+00 0. -1.
          1    1    1    2  501    0  0.10233868039E+03  0.11682866055E+03  0.11372517183E+04  0.11478081775E+04  0.00000000000E+00 0. -1.
<scales pt_clust_5="13000.00000" pt_clust_6="13000.00000" pt_clust_7="13000.00000" pt_clust_8="13000.00000" pt_clust_9="131.27711"></scales>
<clustering>
<clus scale="   89.805">  7  8 -1 -1</clus>
<clus scale="   91.252">  5  6 -1 -1</clus>
<clus scale="   98.858">  1  7  2 -1</clus>
<clus scale="  131.277">  2  9  1 -1</clus>
<clus scale="  131.277">  2  5  1 -1</clus>
</clustering>
</event>
<event>
 9    2  0.9254368E-005  0.9205010E+02  0.7546771E-02  0.1298893E+00
          2   -1    0    0  502    0 -0.00000000000E+00  0.00000000000E+00  0.31515381546E+03  0.31515381546E+03  0.00000000000E+00 0. -1.
         21   -1    0    0  501  502  0.00000000000E+00 -0.00000000000E+00 -0.84615155056E+02  0.84615155056E+02  0.00000000000E+00 0. -1.
         23    2    1    2    0    0 -0.30866544376E+02 -0.21548525956E+02  0.14579902712E+03  0.17494496280E+03  0.89057852917E+02 0.  0.
         24    2    1    2    0    0 -0.59570566037E+02  0.18792389998E+02  0.71604128227E+01  0.10563926594E+03  0.84891558690E+02 0.  0.
        -11    1    4    4    0    0 -0.13996315334E+02  0.35104411295E+02 -0.26955008880E+02  0.46419705288E+02  0.00000000000E+00 0.  1.
         12    1    4    4    0    0 -0.45574250703E+02 -0.16312021297E+02  0.34115421703E+02  0.59219560652E+02  0.00000000000E+00 0. -1.
        -13    1    3    3    0    0 -0.56491879693E+01  0.28091245759E+02  0.96207959865E+02  0.10038427643E+03  0.00000000000E+00 0. -1.
         13    1    3    3    0    0 -0.25217356407E+02 -0.49639771715E+02  0.49591067257E+02  0.74560686369E+02  0.00000000000E+00 0.  1.
          1    1    1    2  501    0  0.90437110413E+02  0.27561359579E+01  0.77579220458E+02  0.11918474178E+03  0.00000000000E+00 0. -1.
<scales pt_clust_5="13000.00000" pt_clust_6="13000.00000" pt_clust_7="13000.00000" pt_clust_8="13000.00000" pt_clust_9="90.47914"></scales>
<clustering>
<clus scale="   84.892">  5  6 -1 -1</clus>
<clus scale="   89.058">  7  8 -1 -1</clus>
<clus scale="   90.479">  2  9  1 -1</clus>
<clus scale="   90.479">  2  5  1 -1</clus>
<clus scale="   90.479">  2  5  1 -1</clus>
</clustering>
</event>
<event>
 9    2  0.9254368E-005  0.1462696E+03  0.7546771E-02  0.1207015E+00
         21   -1    0    0  501  502  0.00000000000E+00  0.00000000000E+00  0.74382518594E+02  0.74382518594E+02  0.00000000000E+00 0. -1.
          2   -1    0    0  502    0 -0.00000000000E+00 -0.00000000000E+00 -0.43023030532E+03  0.43023030532E+03  0.00000000000E+00 0. -1.
         23    2    1    2    0    0  0.99578409387E+02  0.95867167465E+02 -0.23670750134E+03  0.28840435958E+03  0.89667497008E+02 0.  0.
         24    2    1    2    0    0 -0.65595509483E+02 -0.65755652818E+02 -0.11903910948E+03  0.17080415797E+03  0.79857210382E+02 0.  0.
        -13    1    4    4    0    0 -0.23382902595E+02 -0.10637087465E+02 -0.93281541182E+02  0.96754088745E+02  0.00000000000E+00 0.  1.
         14    1    4    4    0    0 -0.42212606888E+02 -0.55118565354E+02 -0.25757568302E+02  0.74050069222E+02  0.00000000000E+00 0. -1.
        -13    1    3    3    0    0  0.92382158179E+02  0.70863823900E+02 -0.11392648548E+03  0.16289686548E+03  0.00000000000E+00 0. -1.
         13    1    3    3    0    0  0.71962512081E+01  0.25003343565E+02 -0.12278101586E+03  0.12550749410E+03  0.00000000000E+00 0.  1.
          1    1    1    2  501    0 -0.33982899904E+02 -0.30111514646E+02 -0.10117590109E+00  0.45404306368E+02  0.00000000000E+00 0. -1.
<scales pt_clust_5="13000.00000" pt_clust_6="13000.00000" pt_clust_7="13000.00000" pt_clust_8="13000.00000" pt_clust_9="45.40419"></scales>
<clustering>
<clus scale="   45.404">  1  9  2 -1</clus>
<clus scale="   79.857">  5  6 -1 -1</clus>
<clus scale="   89.667">  7  8 -1 -1</clus>
<clus scale="  140.470">  1  5  2 -1</clus>
<clus scale="   45.404">  1  5  2 -1</clus>
</clustering>
</event>
<event>
 9    2  0.9254368E-005  0.1701147E+03  0.7546771E-02  0.1193674E+00
         21   -1    0    0  501  502  0.00000000000E+00  0.00000000000E+00  0.22677891044E+03  0.22677891044E+03  0.00000000000E+00 0.  1.
          2   -1    0    0  502    0 -0.00000000000E+00 -0.00000000000E+00 -0.92538396536E+03  0.92538396536E+03  0.00000000000E+00 0. -1.
         24    2    1    2    0    0 -0.49168697884E+02 -0.73014576789E+02 -0.50134756718E+03  0.51534308571E+03  0.80501078227E+02 0.  0.
         23    2    1    2    0    0 -0.10513361689E+03  0.98933298089E+02  0.16784854629E+03  0.23960020277E+03  0.91620127731E+02 0.  0.
        -11    1    3    3    0    0  0.21875557890E+02 -0.19765642411E+02 -0.15627093049E+03  0.15902774717E+03  0.00000000000E+00 0.  1.
         12    1    3    3    0    0 -0.71044255774E+02 -0.53248934378E+02 -0.34507663669E+03  0.35631533854E+03  0.00000000000E+00 0. -1.
        -13    1    4    4    0    0 -0.36760817582E+02 -0.12119481925E+02  0.24518164074E+02  0.45818990833E+02  0.00000000000E+00 0. -1.
         13    1    4    4    0    0 -0.68372799307E+02  0.11105278001E+03  0.14333038222E+03  0.19378121194E+03  0.00000000000E+00 0.  1.
          1    1    1    2  501    0  0.15430231477E+03 -0.25918721301E+02 -0.36510603404E+03  0.39721958732E+03  0.00000000000E+00 0. -1.
<scales pt_clust_5="13000.00000" pt_clust_6="13000.00000" pt_clust_7="13000.00000" pt_clust_8="13000.00000" pt_clust_9="143.33456"></scales>
<clustering>
<clus scale="   80.501">  5  6 -1 -1</clus>
<clus scale="   91.620">  7  8 -1 -1</clus>
<clus scale="  119.286">  2  5  1 -1</clus>
<clus scale="  143.335">  1  9  2 -1</clus>
<clus scale="  143.335">  1  5  2 -1</clus>
</clustering>
</event>
<event>
 9    2  0.9254368E-005  0.1166137E+03  0.7546771E-02  0.1253933E+00
         21   -1    0    0  501  502  0.00000000000E+00  0.00000000000E+00  0.23615526672E+03  0.23615526672E+03  0.00000000000E+00 0.  1.
          2   -1    0    0  502    0 -0.00000000000E+00 -0.00000000000E+00 -0.14841850513E+03  0.14841850513E+03  0.00000000000E+00 0. -1.
         24    2    1    2    0    0  0.36206841364E+02 -0.66064212260E+02 -0.92962550879E+02  0.14448752992E+03  0.80988856842E+02 0.  0.
         23    2    1    2    0    0 -0.34883906530E+02  0.10440507878E+02  0.10831410439E+03  0.14878802183E+03  0.95289239115E+02 0.  0.
        -13    1    3    3    0    0 -0.19999732435E+02 -0.25628984746E+02 -0.59007183395E+02  0.67369739860E+02  0.00000000000E+00 0.  1.
         14    1    3    3    0    0  0.56206573799E+02 -0.40435227514E+02 -0.33955367484E+02  0.77117790057E+02  0.00000000000E+00 0. -1.
        -11    1    4    4    0    0  0.99804247230E+01  0.39264763939E+02  0.18958026102E+02  0.44729602262E+02  0.00000000000E+00 0. -1.
         11    1    4    4    0    0 -0.44864331253E+02 -0.28824256061E+02  0.89356078291E+02  0.10405841957E+03  0.00000000000E+00 0.  1.
          1    1    1    2  501    0 -0.13229348339E+01  0.55623704382E+02  0.72385208078E+02  0.91298220104E+02  0.00000000000E+00 0. -1.
<scales pt_clust_5="13000.00000" pt_clust_6="13000.00000" pt_clust_7="13000.00000" pt_clust_8="13000.00000" pt_clust_9="55.63943"></scales>
<clustering>
<clus scale="   55.639">  1  9  2 -1</clus>
<clus scale="   80.989">  5  6 -1 -1</clus>
<clus scale="   95.289">  7  8 -1 -1</clus>
<clus scale="  105.252">  2  5  1 -1</clus>
<clus scale="   55.639">  1  5  2 -1</clus>
</clustering>
</event>
<event>
 9    2  0.9254368E-005  0.2951089E+03  0.7546771E-02  0.1101436E+00
          2   -1    0    0  502    0 -0.00000000000E+00  0.00000000000E+00  0.17684649821E+04  0.17684649821E+04  0.00000000000E+00 0. -1.
         21   -1    0    0  501  502  0.00000000000E+00 -0.00000000000E+00 -0.10169984421E+03  0.10169984421E+03  0.00000000000E+00 0. -1.
         24    2    1    2    0    0 -0.18909649670E+03  0.13591239032E+02  0.64887954613E+03  0.68077680291E+03  0.80437448753E+02 0.  0.
         23    2    1    2    0    0  0.39219266878E+03  0.27811504311E+02  0.60140361106E+03  0.72417894941E+03  0.90334257865E+02 0.  0.
        -13    1    3    3    0    0 -0.15627410035E+03  0.16925293201E+02  0.40093701691E+03  0.43064898876E+03  0.00000000000E+00 0.  1.
         14    1    3    3    0    0 -0.32822396345E+02 -0.33340541684E+01  0.24794252922E+03  0.25012781416E+03  0.00000000000E+00 0. -1.
        -13    1    4    4    0    0  0.22690580841E+03  0.37419842540E+02  0.27744427877E+03  0.36036345310E+03  0.00000000000E+00 0. -1.
         13    1    4    4    0    0  0.16528686038E+03 -0.96083382287E+01  0.32395933229E+03  0.36381549631E+03  0.00000000000E+00 0.  1.
          1    1    1    2  501    0 -0.20309617209E+03 -0.41402743343E+02  0.41648198075E+03  0.46520907403E+03  0.00000000000E+00 0. -1.
<scales pt_clust_5="13000.00000" pt_clust_6="13000.00000" pt_clust_7="13000.00000" pt_clust_8="13000.00000" pt_clust_9="280.94306"></scales>
<clustering>
<clus scale="   80.437">  5  6 -1 -1</clus>
<clus scale="   90.334">  7  8 -1 -1</clus>
<clus scale="  205.943">  1  5  2 -1</clus>
<clus scale="  280.943">  2  9  1 -1</clus>
<clus scale="  280.943">  2  5  1 -1</clus>
</clustering>
</event>
<event>
 9    2  0.9254368E-005  0.2232296E+03  0.7546771E-02  0.1161173E+00
         21   -1    0    0  501  502  0.00000000000E+00  0.00000000000E+00  0.77731697044E+02  0.77731697044E+02  0.00000000000E+00 0.  1.
          2   -1    0    0  502    0 -0.00000000000E+00 -0.00000000000E+00 -0.11771376838E+04  0.11771376838E+04  0.00000000000E+00 0. -1.
         24    2    1    2    0    0 -0.30817344267E+02  0.67742286213E+02 -0.10874262880E+03  0.15466660003E+03  0.80981922655E+02 0.  0.
         23    2    1    2    0    0 -0.39905940938E+01 -0.25126154394E+03 -0.74465723286E+03  0.79131781175E+03  0.92310326810E+02 0.  0.
        -13    1    3    3    0    0 -0.25077104134E+02  0.25705431708E+02  0.21088666118E+01  0.35973291334E+02  0.00000000000E+00 0.  1.
         14    1    3    3    0    0 -0.57402401336E+01  0.42036854505E+02 -0.11085149542E+03  0.11869330870E+03  0.00000000000E+00 0. -1.
        -11    1    4    4    0    0  0.41367880616E+02 -0.10882487439E+03 -0.37217081421E+03  0.38995547154E+03  0.00000000000E+00 0.  1.
         11    1    4    4    0    0 -0.45358474710E+02 -0.14243666956E+03 -0.37248641865E+03  0.40136234022E+03  0.00000000000E+00 0. -1.
          1    1    1    2  501    0  0.34807938361E+02  0.18351925773E+03 -0.24600612509E+03  0.30888496907E+03  0.00000000000E+00 0. -1.
<scales pt_clust_5="13000.00000" pt_clust_6="13000.00000" pt_clust_7="13000.00000" pt_clust_8="13000.00000" pt_clust_9="203.24928"></scales>
<clustering>
<clus scale="   80.982">  5  6 -1 -1</clus>
<clus scale="   92.310">  7  8 -1 -1</clus>
<clus scale="  109.985">  2  5  1 -1</clus>
<clus scale="  203.249">  1  9  2 -1</clus>
<clus scale="  203.249">  1  5  2 -1</clus>
</clustering>
</event>
<event>
 9    2  0.9254368E-005  0.1084959E+03  0.7546771E-02  0.1269642E+00
         21   -1    0    0  501  502  0.00000000000E+00  0.00000000000E+00  0.83319521008E+02  0.83319521008E+02  0.00000000000E+00 0.  1.
         -3   -1    0    0    0  501 -0.00000000000E+00 -0.00000000000E+00 -0.33928435596E+03  0.33928435596E+03  0.00000000000E+00 0.  1.
         24    2    1    2    0    0  0.22867799295E+02 -0.60417028897E+02 -0.82641167369E+02  0.12846024485E+03  0.74157388960E+02 0.  0.
         23    2    1    2    0    0 -0.50994380122E+02  0.33108740562E+02  0.79831372231E+01  0.10864698894E+03  0.89687358198E+02 0.  0.
        -13    1    3    3    0    0  0.29858214772E+02 -0.61125052707E+02 -0.93437867817E+02  0.11557863211E+03  0.00000000000E+00 0.  1.
         14    1    3    3    0    0 -0.69904154769E+01  0.70802380963E+00  0.10796700448E+02  0.12881612741E+02  0.00000000000E+00 0. -1.
        -11    1    4    4    0    0  0.19567935095E+02 -0.10817477215E+02  0.12108243178E+02  0.25426982716E+02  0.00000000000E+00 0. -1.
         11    1    4    4    0    0 -0.70562315217E+02  0.43926217777E+02 -0.41251059544E+01  0.83220006225E+02  0.00000000000E+00 0.  1.
         -4    1    1    2    0  502  0.28126580827E+02  0.27308288336E+02 -0.18130680481E+03  0.18549664318E+03  0.00000000000E+00 0.  1.
<scales pt_clust_5="13000.00000" pt_clust_6="13000.00000" pt_clust_7="13000.00000" pt_clust_8="13000.00000" pt_clust_9="39.20266"></scales>
<clustering>
<clus scale="   39.203">  1  9  2 -1</clus>
<clus scale="   74.157">  5  6 -1 -1</clus>
<clus scale="   89.687">  7  8 -1 -1</clus>
<clus scale="   96.057">  2  5  1 -1</clus>
<clus scale="   39.203">  1  5  2 -1</clus>
</clustering>
</event>
<event>
 9    2  0.9254368E-005  0.9646762E+02  0.7546771E-02  0.1292018E+00
         21   -1    0    0  501  502  0.00000000000E+00  0.00000000000E+00  0.11447866743E+03  0.11447866743E+03  0.00000000000E+00 0. -1.
         -1   -1    0    0    0  501 -0.00000000000E+00 -0.00000000000E+00 -0.12675449425E+03  0.12675449425E+03  0.00000000000E+00 0.  1.
         24    2    1    2    0    0  0.27752721235E+02  0.42542839853E+02 -0.34645160964E+02  0.10066426821E+03  0.79705087399E+02 0.  0.
         23    2    1    2    0    0  0.18008542043E+00 -0.30959437738E+02 -0.13195800587E+02  0.93885966181E+02  0.87646598775E+02 0.  0.
        -11    1    3    3    0    0  0.35329872423E+02 -0.68523458425E+01 -0.35684149813E+02  0.50680499966E+02  0.00000000000E+00 0.  1.
         12    1    3    3    0    0 -0.75771511872E+01  0.49395185695E+02  0.10389888487E+01  0.49983768244E+02  0.00000000000E+00 0. -1.
        -13    1    4    4    0    0  0.27477815523E+02 -0.51172677618E+02 -0.19860694245E+01  0.58117275851E+02  0.00000000000E+00 0. -1.
         13    1    4    4    0    0 -0.27297730103E+02  0.20213239880E+02 -0.11209731162E+02  0.35768690330E+02  0.00000000000E+00 0.  1.
         -2    1    1    2    0  502 -0.27932806656E+02 -0.11583402115E+02  0.35565134731E+02  0.46682927293E+02  0.00000000000E+00 0.  1.
<scales pt_clust_5="13000.00000" pt_clust_6="13000.00000" pt_clust_7="13000.00000" pt_clust_8="13000.00000" pt_clust_9="30.23933"></scales>
<clustering>
<clus scale="   30.239">  1  9  2 -1</clus>
<clus scale="   79.705">  5  6 -1 -1</clus>
<clus scale="   87.647">  7  8 -1 -1</clus>
<clus scale="   89.314">  2  5  1 -1</clus>
<clus scale="   30.239">  1  5  2 -1</clus>
</clustering>
</event>
<event>
 9    2  0.9254368E-005  0.1297749E+03  0.7546771E-02  0.1229791E+00
         21   -1    0    0  501  502  0.00000000000E+00  0.00000000000E+00  0.52933433055E+03  0.52933433055E+03  0.00000000000E+00 0.  1.
          2   -1    0    0  502    0 -0.00000000000E+00 -0.00000000000E+00 -0.52103458972E+02  0.52103458972E+02  0.00000000000E+00 0. -1.
         23    2    1    2    0    0 -0.62374850082E+02  0.58781654698E+02  0.10489599249E+03  0.16168960212E+03  0.88286201315E+02 0.  0.
         24    2    1    2    0    0  0.10989347347E+03 -0.46367102795E+02  0.25947107560E+03  0.29666131236E+03  0.80350553502E+02 0.  0.
        -11    1    4    4    0    0  0.39925119410E+02 -0.16667517404E+02  0.18593163998E+03  0.19089891577E+03  0.00000000000E+00 0.  1.
         12    1    4    4    0    0  0.69968354059E+02 -0.29699585390E+02  0.73539435617E+02  0.10576239659E+03  0.00000000000E+00 0. -1.
        -13    1    3    3    0    0 -0.12556356696E+02  0.68099753883E+02  0.42289135591E+02  0.81139445163E+02  0.00000000000E+00 0.  1.
         13    1    3    3    0    0 -0.49818493386E+02 -0.93180991848E+01  0.62606856896E+02  0.80550156959E+02  0.00000000000E+00 0. -1.
          1    1    1    2  501    0 -0.47518623387E+02 -0.12414551903E+02  0.11286380350E+03  0.12308687504E+03  0.00000000000E+00 0. -1.
<scales pt_clust_5="13000.00000" pt_clust_6="13000.00000" pt_clust_7="13000.00000" pt_clust_8="13000.00000" pt_clust_9="49.11355"></scales>
<clustering>
<clus scale="   49.114">  1  9  2 -1</clus>
<clus scale="   80.351">  5  6 -1 -1</clus>
<clus scale="   88.286">  7  8 -1 -1</clus>
<clus scale="  124.512">  1  5  2 -1</clus>
<clus scale="   49.114">  1  5  2 -1</clus>
</clustering>
</event>
<event>
 9    2  0.9254368E-005  0.1003043E+03  0.7546771E-02  0.1287500E+00
         21   -1    0    0  501  502  0.00000000000E+00  0.00000000000E+00  0.14294928410E+03  0.14294928410E+03  0.00000000000E+00 0.  1.
         -1   -1    0    0    0  501 -0.00000000000E+00 -0.00000000000E+00 -0.46384253726E+03  0.46384253726E+03  0.00000000000E+00 0.  1.
         23    2    1    2    0    0 -0.40239606815E+02  0.14734998110E+02 -0.39166606257E+03  0.40446149008E+03  0.91380776222E+02 0.  0.
         24    2    1    2    0    0  0.44106767386E+02  0.43583804751E+02 -0.14340081646E+02  0.99081883736E+02  0.75938309023E+02 0.  0.
        -11    1    4    4    0    0 -0.17835273818E+02  0.14021720670E+02 -0.19959647180E+02  0.30217431364E+02  0.00000000000E+00 0.  1.
         12    1    4    4    0    0  0.61942041204E+02  0.29562084081E+02  0.56195655341E+01  0.68864452372E+02  0.00000000000E+00 0. -1.
        -13    1    3    3    0    0  0.21998813699E+02 -0.14975348563E+02 -0.59033526687E+02  0.64754661159E+02  0.00000000000E+00 0. -1.
         13    1    3    3    0    0 -0.62238420514E+02  0.29710346672E+02 -0.33263253588E+03  0.33970682892E+03  0.00000000000E+00 0.  1.
         -2    1    1    2    0  502 -0.38671605712E+01 -0.58318802861E+02  0.85112891048E+02  0.10324844755E+03  0.00000000000E+00 0.  1.
<scales pt_clust_5="13000.00000" pt_clust_6="13000.00000" pt_clust_7="13000.00000" pt_clust_8="13000.00000" pt_clust_9="58.44688"></scales>
<clustering>
<clus scale="   58.447">  1  9  2 -1</clus>
<clus scale="   75.938">  5  6 -1 -1</clus>
<clus scale="   86.470">  1  5  2 -1</clus>
<clus scale="   91.381">  7  8 -1 -1</clus>
<clus scale="   58.447">  1  5  2 -1</clus>
</clustering>
</event>
<event>
 9    2  0.9254368E-005  0.9622624E+02  0.7546771E-02  0.1295965E+00
         21   -1    0    0  501  502  0.00000000000E+00  0.00000000000E+00  0.60433254011E+02  0.60433254011E+02  0.00000000000E+00 0. -1.
         -3   -1    0    0    0  501 -0.00000000000E+00 -0.00000000000E+00 -0.28642514219E+03  0.28642514219E+03  0.00000000000E+00 0.  1.
         24    2    1    2    0    0 -0.31333904442E+02 -0.32722612107E+01 -0.18361674827E+03  0.20225776083E+03  0.78743700130E+02 0.  0.
         23    2    1    2    0    0  0.17579261453E+02 -0.23879652065E+02 -0.55468403938E+02  0.11146681337E+03  0.92026292065E+02 0.  0.
        -11    1    3    3    0    0 -0.42421771730E+02 -0.16563855992E+02 -0.17848583658E+03  0.18420413107E+03  0.00000000000E+00 0.  1.
         12    1    3    3    0    0  0.11087867288E+02  0.13291594781E+02 -0.51309116845E+01  0.18053629760E+02  0.00000000000E+00 0. -1.
        -11    1    4    4    0    0 -0.10577836487E+02  0.23671587552E+02  0.81686571515E+01  0.27183848912E+02  0.00000000000E+00 0.  1.
         11    1    4    4    0    0  0.28157097941E+02 -0.47551239617E+02 -0.63637061089E+02  0.84282964457E+02  0.00000000000E+00 0. -1.
         -4    1    1    2    0  502  0.13754642988E+02  0.27151913276E+02  0.13093264019E+02  0.33133822009E+02  0.00000000000E+00 0.  1.
<scales pt_clust_5="13000.00000" pt_clust_6="13000.00000" pt_clust_7="13000.00000" pt_clust_8="13000.00000" pt_clust_9="30.43709"></scales>
<clustering>
<clus scale="   30.437">  1  9  2 -1</clus>
<clus scale="   78.744">  5  6 -1 -1</clus>
<clus scale="   83.614">  2  5  1 -1</clus>
<clus scale="   92.026">  7  8 -1 -1</clus>
<clus scale="   30.437">  1  5  2 -1</clus>
</clustering>
</event>
<event>
 9    2  0.9254368E-005  0.2623838E+03  0.7546771E-02  0.1106197E+00
         21   -1    0    0  501  502  0.00000000000E+00  0.00000000000E+00  0.80711170951E+03  0.80711170951E+03  0.00000000000E+00 0. -1.
          2   -1    0    0  502    0 -0.00000000000E+00 -0.00000000000E+00 -0.11276306716E+03  0.11276306716E+03  0.00000000000E+00 0. -1.
         24    2    1    2    0    0 -0.35947171898E+02  0.25545612065E+03  0.15334395986E+03  0.31131121568E+03  0.82766383497E+02 0.  0.
         23    2    1    2    0    0  0.18819450537E+02 -0.21881911858E+03  0.46424222533E+03  0.52179891617E+03  0.92289147622E+02 0.  0.
        -11    1    3    3    0    0  0.23731149559E+02  0.10384123375E+03  0.44958558962E+02  0.11561765137E+03  0.00000000000E+00 0.  1.
         12    1    3    3    0    0 -0.59678321457E+02  0.15161488691E+03  0.10838540089E+03  0.19569356431E+03  0.00000000000E+00 0. -1.
        -13    1    4    4    0    0  0.36311870253E+01 -0.18448503467E+03  0.43995851957E+03  0.47708637842E+03  0.00000000000E+00 0. -1.
         13    1    4    4    0    0  0.15188263512E+02 -0.34334083915E+02  0.24283705756E+02  0.44712537750E+02  0.00000000000E+00 0.  1.
          1    1    1    2  501    0  0.17127721361E+02 -0.36637002072E+02  0.76762457163E+02  0.86764644813E+02  0.00000000000E+00 0. -1.
<scales pt_clust_5="13000.00000" pt_clust_6="13000.00000" pt_clust_7="13000.00000" pt_clust_8="13000.00000" pt_clust_9="40.44291"></scales>
<clustering>
<clus scale="   40.443">  1  9  2 -1</clus>
<clus scale="   82.766">  5  6 -1 -1</clus>
<clus scale="   92.289">  7  8 -1 -1</clus>
<clus scale="  259.188">  2  5  1 -1</clus>
<clus scale="   40.443">  1  5  2 -1</clus>
</clustering>
</event>
<event>
 9    2  0.9254368E-005  0.1455259E+03  0.7546771E-02  0.1222724E+00
          4   -1    0    0  502    0 -0.00000000000E+00  0.00000000000E+00  0.43379375774E+03  0.43379375774E+03  0.00000000000E+00 0. -1.
         21   -1    0    0  501  502  0.00000000000E+00 -0.00000000000E+00 -0.91792489843E+02  0.91792489843E+02  0.00000000000E+00 0. -1.
         23    2    1    2    0    0  0.37258131266E+01 -0.46873165835E+02  0.18451942454E+03  0.21096376717E+03  0.90814743673E+02 0.  0.
         24    2    1    2    0    0 -0.11903245233E+03 -0.30366026349E+01  0.10615931232E+03  0.17889993908E+03  0.80978039905E+02 0.  0.
        -11    1    4    4    0    0 -0.28248940362E+01  0.24392166142E+02  0.16503925809E+02  0.29586100833E+02  0.00000000000E+00 0.  1.
         12    1    4    4    0    0 -0.11620755829E+03 -0.27428768777E+02  0.89655386510E+02  0.14931383824E+03  0.00000000000E+00 0. -1.
        -11    1    3    3    0    0 -0.33545634746E+02  0.92685534077E+01  0.59032698433E+02  0.68527915313E+02  0.00000000000E+00 0. -1.
         11    1    3    3    0    0  0.37271447873E+02 -0.56141719243E+02  0.12548672611E+03  0.14243585186E+03  0.00000000000E+00 0.  1.
          3    1    1    2  501    0  0.11530663920E+03  0.49909768470E+02  0.51322531033E+02  0.13572254133E+03  0.00000000000E+00 0. -1.
<scales pt_clust_5="13000.00000" pt_clust_6="13000.00000" pt_clust_7="13000.00000" pt_clust_8="13000.00000" pt_clust_9="120.91462"></scales>
<clustering>
<clus scale="   80.978">  5  6 -1 -1</clus>
<clus scale="   90.815">  7  8 -1 -1</clus>
<clus scale="  102.266">  1  7  2 -1</clus>
<clus scale="  120.915">  2  9  1 -1</clus>
<clus scale="  120.915">  2  5  1 -1</clus>
</clustering>
</event>
<event>
 9    2  0.9254368E-005  0.1586448E+03  0.7546771E-02  0.1191925E+00
         21   -1    0    0  501  502  0.00000000000E+00  0.00000000000E+00  0.44156659088E+02  0.44156659088E+02  0.00000000000E+00 0. -1.
          2   -1    0    0  502    0 -0.00000000000E+00 -0.00000000000E+00 -0.96110059313E+03  0.96110059313E+03  0.00000000000E+00 0. -1.
         24    2    1    2    0    0 -0.13510230246E+03  0.37215711916E+02 -0.70295658169E+03  0.72134257052E+03  0.80929024246E+02 0.  0.
         23    2    1    2    0    0  0.91170273458E+02 -0.51216251566E+02 -0.17578788954E+03  0.22403783107E+03  0.91413590087E+02 0.  0.
        -11    1    3    3    0    0 -0.86693609077E+02  0.57754459687E+02 -0.54490109123E+03  0.55476892369E+03  0.00000000000E+00 0.  1.
         12    1    3    3    0    0 -0.48408693380E+02 -0.20538747771E+02 -0.15805549045E+03  0.16657364683E+03  0.00000000000E+00 0. -1.
        -11    1    4    4    0    0  0.21545042591E+02 -0.32279483965E+02 -0.13643947947E+03  0.14185163201E+03  0.00000000000E+00 0.  1.
         11    1    4    4    0    0  0.69625230867E+02 -0.18936767601E+02 -0.39348410071E+02  0.82186199059E+02  0.00000000000E+00 0. -1.
          1    1    1    2  501    0  0.43932028999E+02  0.14000539651E+02 -0.38199462817E+02  0.59876850635E+02  0.00000000000E+00 0. -1.
<scales pt_clust_5="13000.00000" pt_clust_6="13000.00000" pt_clust_7="13000.00000" pt_clust_8="13000.00000" pt_clust_9="46.10898"></scales>
<clustering>
<clus scale="   46.109">  1  9  2 -1</clus>
<clus scale="   80.929">  5  6 -1 -1</clus>
<clus scale="   91.414">  7  8 -1 -1</clus>
<clus scale="  152.844">  2  5  1 -1</clus>
<clus scale="   46.109">  1  5  2 -1</clus>
</clustering>
</event>
<event>
 9    2  0.9254368E-005  0.1203909E+03  0.7546771E-02  0.1242917E+00
         21   -1    0    0  501  502  0.00000000000E+00  0.00000000000E+00  0.38226370158E+02  0.38226370158E+02  0.00000000000E+00 0.  1.
          2   -1    0    0  502    0 -0.00000000000E+00 -0.00000000000E+00 -0.55486066706E+03  0.55486066706E+03  0.00000000000E+00 0. -1.
         23    2    1    2    0    0  0.45345992932E+02 -0.55683344473E+02 -0.18943164473E+03  0.22148557811E+03  0.89524406508E+02 0.  0.
         24    2    1    2    0    0 -0.84024728439E+02  0.43407416179E+02 -0.20012339403E+03  0.23820025654E+03  0.88009264333E+02 0.  0.
        -11    1    4    4    0    0 -0.58037178203E+02 -0.15079633904E+02 -0.63549737080E+02  0.87374358340E+02  0.00000000000E+00 0.  1.
         12    1    4    4    0    0 -0.25987550236E+02  0.58487050083E+02 -0.13657365695E+03  0.15082589820E+03  0.00000000000E+00 0. -1.
        -11    1    3    3    0    0 -0.21403013542E+02 -0.35396716325E+02 -0.45215889538E+02  0.61282078799E+02  0.00000000000E+00 0.  1.
         11    1    3    3    0    0  0.66749006474E+02 -0.20286628147E+02 -0.14421575519E+03  0.16020349931E+03  0.00000000000E+00 0. -1.
          1    1    1    2  501    0  0.38678735507E+02  0.12275928294E+02 -0.12707925815E+03  0.13340120257E+03  0.00000000000E+00 0. -1.
<scales pt_clust_5="13000.00000" pt_clust_6="13000.00000" pt_clust_7="13000.00000" pt_clust_8="13000.00000" pt_clust_9="40.58010"></scales>
<clustering>
<clus scale="   40.580">  1  9  2 -1</clus>
<clus scale="   88.009">  5  6 -1 -1</clus>
<clus scale="   89.524">  7  8 -1 -1</clus>
<clus scale="  119.268">  1  5  2 -1</clus>
<clus scale="   40.580">  1  5  2 -1</clus>
</clustering>
</event>
<event>
 9    2  0.9254368E-005  0.1261291E+03  0.7546771E-02  0.1235951E+00
          2   -1    0    0  502    0 -0.00000000000E+00  0.00000000000E+00  0.10305703821E+04  0.10305703821E+04  0.00000000000E+00 0. -1.
         21   -1    0    0  501  502  0.00000000000E+00 -0.00000000000E+00 -0.29233735359E+02  0.29233735359E+02  0.00000000000E+00 0.  1.
         24    2    1    2    0    0  0.10094225464E+03 -0.24751674425E+02  0.65285466923E+03  0.66626840886E+03  0.83020415270E+02 0.  0.
         23    2    1    2    0    0 -0.33180997974E+02  0.28090894428E+02  0.13303789267E+03  0.16766208910E+03  0.92311528300E+02 0.  0.
        -13    1    3    3    0    0  0.57693863800E+02  0.15393819609E+02  0.17771438448E+03  0.18747787617E+03  0.00000000000E+00 0.  1.
         14    1    3    3    0    0  0.43248390845E+02 -0.40145494035E+02  0.47514028475E+03  0.47879053269E+03  0.00000000000E+00 0. -1.
        -11    1    4    4    0    0 -0.61888936469E+02  0.34553078799E+02  0.10712838731E+03  0.12845484452E+03  0.00000000000E+00 0.  1.
         11    1    4    4    0    0  0.28707938495E+02 -0.64621843708E+01  0.25909505363E+02  0.39207244581E+02  0.00000000000E+00 0. -1.
          1    1    1    2  501    0 -0.67761256671E+02 -0.33392200031E+01  0.21544408488E+03  0.22587361954E+03  0.00000000000E+00 0. -1.
<scales pt_clust_5="13000.00000" pt_clust_6="13000.00000" pt_clust_7="13000.00000" pt_clust_8="13000.00000" pt_clust_9="67.84352"></scales>
<clustering>
<clus scale="   67.844">  2  9  1 -1</clus>
<clus scale="   83.020">  5  6 -1 -1</clus>
<clus scale="   92.312">  7  8 -1 -1</clus>
<clus scale="  119.497">  1  5  2 -1</clus>
<clus scale="   67.844">  2  5  1 -1</clus>
</clustering>
</event>
<event>
 9    2  0.9254368E-005  0.9635609E+02  0.7546771E-02  0.1294689E+00
         -1   -1    0    0    0  501 -0.00000000000E+00  0.00000000000E+00  0.84536242280E+03  0.84536242280E+03  0.00000000000E+00 0.  1.
         21   -1    0    0  501  502  0.00000000000E+00 -0.00000000000E+00 -0.33430816530E+02  0.33430816530E+02  0.00000000000E+00 0.  1.
         23    2    1    2    0    0  0.31417933211E+02 -0.24873168788E+02  0.47496733638E+03  0.48526552753E+03  0.91010441906E+02 0.  0.
         24    2    1    2    0    0  0.51561967841E+02  0.44518447767E+02  0.25393957596E+03  0.27451216337E+03  0.78937259140E+02 0.  0.
        -11    1    4    4    0    0  0.43565065681E+02  0.60276162211E+02  0.13380250955E+03  0.15308246876E+03  0.00000000000E+00 0.  1.
         12    1    4    4    0    0  0.79969021598E+01 -0.15757714443E+02  0.12013706641E+03  0.12142969461E+03  0.00000000000E+00 0. -1.
        -13    1    3    3    0    0 -0.22442566588E+02 -0.35182565229E+02  0.14969535071E+03  0.15540328090E+03  0.00000000000E+00 0. -1.
         13    1    3    3    0    0  0.53860499799E+02  0.10309396440E+02  0.32527198566E+03  0.32986224663E+03  0.00000000000E+00 0.  1.
         -2    1    1    2    0  502 -0.82979901052E+02 -0.19645278979E+02  0.83024693944E+02  0.11901554843E+03  0.00000000000E+00 0.  1.
<scales pt_clust_5="13000.00000" pt_clust_6="13000.00000" pt_clust_7="13000.00000" pt_clust_8="13000.00000" pt_clust_9="85.27368"></scales>
<clustering>
<clus scale="   78.937">  5  6 -1 -1</clus>
<clus scale="   85.274">  2  9  1 -1</clus>
<clus scale="   85.274">  2  5  1 -1</clus>
<clus scale="   91.010">  7  8 -1 -1</clus>
<clus scale="   85.274">  2  5  1 -1</clus>
</clustering>
</event>
<event>
 9    2  0.9254368E-005  0.1136236E+03  0.7546771E-02  0.1257839E+00
         21   -1    0    0  501  502  0.00000000000E+00  0.00000000000E+00  0.24060922542E+03  0.24060922542E+03  0.00000000000E+00 0.  1.
         -3   -1    0    0    0  501 -0.00000000000E+00 -0.00000000000E+00 -0.24442114817E+03  0.24442114817E+03  0.00000000000E+00 0.  1.
         24    2    1    2    0    0  0.57304765722E+02 -0.23477670370E+02 -0.94972673572E+02  0.13832292946E+03  0.79236272677E+02 0.  0.
         23    2    1    2    0    0 -0.11075076930E+03  0.90097998166E+02  0.16335650728E+03  0.23487287603E+03  0.89980760433E+02 0.  0.
        -11    1    3    3    0    0  0.35018807246E+02 -0.13984367559E+01 -0.10052943824E+03  0.10646332909E+03  0.00000000000E+00 0.  1.
         12    1    3    3    0    0  0.22285958476E+02 -0.22079233614E+02  0.55567646728E+01  0.31859600371E+02  0.00000000000E+00 0. -1.
        -13    1    4    4    0    0 -0.35999871886E+02  0.84273034776E+02  0.10820152692E+03  0.14179388419E+03  0.00000000000E+00 0.  1.
         13    1    4    4    0    0 -0.74750897414E+02  0.58249633894E+01  0.55154980366E+02  0.93078991839E+02  0.00000000000E+00 0. -1.
         -4    1    1    2    0  502  0.53446003577E+02 -0.66620327796E+02 -0.72195756457E+02  0.11183456811E+03  0.00000000000E+00 0.  1.
<scales pt_clust_5="13000.00000" pt_clust_6="13000.00000" pt_clust_7="13000.00000" pt_clust_8="13000.00000" pt_clust_9="85.40931"></scales>
<clustering>
<clus scale="   79.236">  5  6 -1 -1</clus>
<clus scale="   85.409">  1  9  2 -1</clus>
<clus scale="   89.981">  7  8 -1 -1</clus>
<clus scale="  105.319">  2  5  1 -1</clus>
<clus scale="   85.409">  1  5  2 -1</clus>
</clustering>
</event>
<event>
 9    2  0.9254368E-005  0.2286924E+03  0.7546771E-02  0.1145342E+00
         21   -1    0    0  501  502  0.00000000000E+00  0.00000000000E+00  0.27833858655E+03  0.27833858655E+03  0.00000000000E+00 0.  1.
         -1   -1    0    0    0  501 -0.00000000000E+00 -0.00000000000E+00 -0.44530678432E+03  0.44530678432E+03  0.00000000000E+00 0.  1.
         23    2    1    2    0    0  0.15010539684E+02 -0.11705092960E+03  0.84255431966E+02  0.17076214235E+03  0.90191435420E+02 0.  0.
         24    2    1    2    0    0  0.35641517387E+02 -0.17290003837E+03 -0.60698177641E+02  0.20225929520E+03  0.77844798754E+02 0.  0.
        -11    1    4    4    0    0  0.68493693202E+01 -0.13354359846E+03 -0.13506785658E+02  0.13439955285E+03  0.00000000000E+00 0.  1.
         12    1    4    4    0    0  0.28792148067E+02 -0.39356439916E+02 -0.47191391983E+02  0.67859742340E+02  0.00000000000E+00 0. -1.
        -11    1    3    3    0    0 -0.17916791383E+02 -0.11255908290E+03  0.55292542555E+02  0.12668000560E+03  0.00000000000E+00 0.  1.
         11    1    3    3    0    0  0.32927331067E+02 -0.44918467065E+01  0.28962889412E+02  0.44082136758E+02  0.00000000000E+00 0. -1.
         -2    1    1    2    0  502 -0.50652057071E+02  0.28995096797E+03 -0.19052545210E+03  0.35062393331E+03  0.00000000000E+00 0.  1.
<scales pt_clust_5="13000.00000" pt_clust_6="13000.00000" pt_clust_7="13000.00000" pt_clust_8="13000.00000" pt_clust_9="215.03589"></scales>
<clustering>
<clus scale="   77.845">  5  6 -1 -1</clus>
<clus scale="   90.191">  7  8 -1 -1</clus>
<clus scale="  148.529">  2  7  1 -1</clus>
<clus scale="  215.036">  1  9  2 -1</clus>
<clus scale="  215.036">  1  5  2 -1</clus>
</clustering>
</event>
<event>
 9    2  0.9254368E-005  0.3448920E+03  0.7546771E-02  0.1075155E+00
         21   -1    0    0  501  502  0.00000000000E+00  0.00000000000E+00  0.37764491597E+03  0.37764491597E+03  0.00000000000E+00 0.  1.
         -1   -1    0    0    0  501 -0.00000000000E+00 -0.00000000000E+00 -0.65656170963E+03  0.65656170963E+03  0.00000000000E+00 0.  1.
         24    2    1    2    0    0 -0.23981287752E+03  0.48126584821E+02 -0.13588700921E+03  0.29252568706E+03  0.85320653565E+02 0.  0.
         23    2    1    2    0    0 -0.14051419993E+02  0.26628244036E+03 -0.18215083385E+03  0.33568762189E+03  0.91670457467E+02 0.  0.
        -13    1    3    3    0    0 -0.24414639777E+03  0.36781712022E+02 -0.12925038496E+03  0.27868623916E+03  0.00000000000E+00 0.  1.
         14    1    3    3    0    0  0.43335202543E+01  0.11344872798E+02 -0.66366242503E+01  0.13839447895E+02  0.00000000000E+00 0. -1.
        -11    1    4    4    0    0 -0.26882943258E+02  0.36112909333E+02 -0.56961336828E+01  0.45379299220E+02  0.00000000000E+00 0. -1.
         11    1    4    4    0    0  0.12831523265E+02  0.23016953102E+03 -0.17645470017E+03  0.29030832267E+03  0.00000000000E+00 0.  1.
         -2    1    1    2    0  502  0.25386429751E+03 -0.31440902518E+03  0.39121049402E+02  0.40599331666E+03  0.00000000000E+00 0.  1.
<scales pt_clust_5="13000.00000" pt_clust_6="13000.00000" pt_clust_7="13000.00000" pt_clust_8="13000.00000" pt_clust_9="332.48609"></scales>
<clustering>
<clus scale="   85.321">  5  6 -1 -1</clus>
<clus scale="   91.670">  7  8 -1 -1</clus>
<clus scale="  259.048">  2  5  1 -1</clus>
<clus scale="  332.486">  1  9  2 -1</clus>
<clus scale="  332.486">  1  5  2 -1</clus>
</clustering>
</event>
<event>
 9    2  0.9254368E-005  0.1819446E+03  0.7546771E-02  0.1167301E+00
         21   -1    0    0  501  502  0.00000000000E+00  0.00000000000E+00  0.72270674591E+02  0.72270674591E+02  0.00000000000E+00 0.  1.
          2   -1    0    0  502    0 -0.00000000000E+00 -0.00000000000E+00 -0.96149058010E+03  0.96149058010E+03  0.00000000000E+00 0. -1.
         23    2    1    2    0    0  0.99289500341E+02 -0.12836627716E+03 -0.64315648873E+03  0.66969680294E+03  0.92234662009E+02 0.  0.
         24    2    1    2    0    0 -0.12044299861E+03  0.74883703954E+02 -0.67590680076E+02  0.17655345508E+03  0.80551458322E+02 0.  0.
        -11    1    4    4    0    0 -0.94792789030E+02  0.21961732958E+02 -0.16587136734E+02  0.98707262507E+02  0.00000000000E+00 0.  1.
         12    1    4    4    0    0 -0.25650209578E+02  0.52921970996E+02 -0.51003543342E+02  0.77846192578E+02  0.00000000000E+00 0. -1.
        -13    1    3    3    0    0  0.75064472955E+02 -0.24432012569E+02 -0.23968714737E+03  0.25235199019E+03  0.00000000000E+00 0.  1.
         13    1    3    3    0    0  0.24225027386E+02 -0.10393426459E+03 -0.40346934137E+03  0.41734481275E+03  0.00000000000E+00 0. -1.
          1    1    1    2  501    0  0.21153498266E+02  0.53482573209E+02 -0.17847273670E+03  0.18751099667E+03  0.00000000000E+00 0. -1.
<scales pt_clust_5="13000.00000" pt_clust_6="13000.00000" pt_clust_7="13000.00000" pt_clust_8="13000.00000" pt_clust_9="57.51399"></scales>
<clustering>
<clus scale="   57.514">  1  9  2 -1</clus>
<clus scale="   80.551">  5  6 -1 -1</clus>
<clus scale="   92.235">  7  8 -1 -1</clus>
<clus scale="  176.310">  1  5  2 -1</clus>
<clus scale="   57.514">  1  5  2 -1</clus>
</clustering>
</event>
<event>
 9    2  0.9254368E-005  0.1079987E+03  0.7546771E-02  0.1266833E+00
         -1   -1    0    0    0  501 -0.00000000000E+00  0.00000000000E+00  0.11770327413E+03  0.11770327413E+03  0.00000000000E+00 0.  1.
         21   -1    0    0  501  502  0.00000000000E+00 -0.00000000000E+00 -0.64737573093E+03  0.64737573093E+03  0.00000000000E+00 0. -1.
         23    2    1    2    0    0 -0.29058215621E+02 -0.49757605149E+02  0.81168987552E+02  0.13437903011E+03  0.90272476578E+02 0.  0.
         24    2    1    2    0    0  0.54418747330E+02  0.66130565731E+02 -0.39691415939E+03  0.41465342058E+03  0.84035453779E+02 0.  0.
        -11    1    4    4    0    0  0.42392420939E+02  0.60851604318E+02 -0.14943332936E+03  0.16682432384E+03  0.00000000000E+00 0.  1.
         12    1    4    4    0    0  0.12026326391E+02  0.52789614133E+01 -0.24748083003E+03  0.24782909674E+03  0.00000000000E+00 0. -1.
        -11    1    3    3    0    0  0.31994464253E+02 -0.25690249848E+02  0.37208312851E+02  0.55390371232E+02  0.00000000000E+00 0.  1.
         11    1    3    3    0    0 -0.61052679874E+02 -0.24067355301E+02  0.43960674701E+02  0.78988658877E+02  0.00000000000E+00 0. -1.
         -2    1    1    2    0  502 -0.25360531709E+02 -0.16372960583E+02 -0.21392728496E+03  0.21604655437E+03  0.00000000000E+00 0.  1.
<scales pt_clust_5="13000.00000" pt_clust_6="13000.00000" pt_clust_7="13000.00000" pt_clust_8="13000.00000" pt_clust_9="30.18659"></scales>
<clustering>
<clus scale="   30.187">  2  9  1 -1</clus>
<clus scale="   84.035">  5  6 -1 -1</clus>
<clus scale="   90.272">  7  8 -1 -1</clus>
<clus scale="  102.842">  2  5  1 -1</clus>
<clus scale="   30.187">  2  5  1 -1</clus>
</clustering>
</event>
<event>
 9    2  0.9254368E-005  0.9613412E+02  0.7546771E-02  0.1295687E+00
          2   -1    0    0  502    0 -0.00000000000E+00  0.00000000000E+00  0.50057758719E+03  0.50057758719E+03  0.00000000000E+00 0. -1.
         21   -1    0    0  501  502  0.00000000000E+00 -0.00000000000E+00 -0.46764758277E+02  0.46764758277E+02  0.00000000000E+00 0.  1.
         24    2    1    2    0    0  0.29532790892E+02  0.11681306023E+02  0.41331814838E+03  0.42200359733E+03  0.79034838719E+02 0.  0.
         23    2    1    2    0    0 -0.14017167794E+02  0.86346452670E+01  0.30749461800E+02  0.97981085130E+02  0.91562686453E+02 0.  0.
        -13    1    3    3    0    0  0.61286851019E+01  0.37667419949E+02  0.10521929078E+03  0.11192629030E+03  0.00000000000E+00 0.  1.
         14    1    3    3    0    0  0.23404105790E+02 -0.25986113926E+02  0.30809885759E+03  0.31007730703E+03  0.00000000000E+00 0. -1.
        -13    1    4    4    0    0  0.17763860704E+02  0.36973818611E+02  0.36632013416E+02  0.54995658162E+02  0.00000000000E+00 0. -1.
         13    1    4    4    0    0 -0.31781028498E+02 -0.28339173344E+02 -0.58825516153E+01  0.42985426969E+02  0.00000000000E+00 0.  1.
          1    1    1    2  501    0 -0.15515623098E+02 -0.20315951290E+02  0.97452187308E+01  0.27357663004E+02  0.00000000000E+00 0. -1.
<scales pt_clust_5="13000.00000" pt_clust_6="13000.00000" pt_clust_7="13000.00000" pt_clust_8="13000.00000" pt_clust_9="25.56311"></scales>
<clustering>
<clus scale="   25.563">  2  9  1 -1</clus>
<clus scale="   79.035">  5  6 -1 -1</clus>
<clus scale="   84.288">  1  5  2 -1</clus>
<clus scale="   91.563">  7  8 -1 -1</clus>
<clus scale="   25.563">  2  5  1 -1</clus>
</clustering>
</event>
<event>
 9    2  0.9254368E-005  0.2339546E+03  0.7546771E-02  0.1144332E+00
         21   -1    0    0  501  502  0.00000000000E+00  0.00000000000E+00  0.27773592751E+03  0.27773592751E+03  0.00000000000E+00 0.  1.
         -3   -1    0    0    0  501 -0.00000000000E+00 -0.00000000000E+00 -0.36332849240E+03  0.36332849240E+03  0.00000000000E+00 0.  1.
         23    2    1    2    0    0 -0.10896473148E+03 -0.10694702121E+01  0.23477811804E+02  0.14404853113E+03  0.91237685200E+02 0.  0.
         24    2    1    2    0    0  0.27009734524E+03 -0.93181637706E+02 -0.86671390015E+02  0.30900337546E+03  0.79597504287E+02 0.  0.
        -13    1    4    4    0    0  0.26433439590E+03 -0.71202948811E+02 -0.77645822442E+02  0.28455475136E+03  0.00000000000E+00 0.  1.
         14    1    4    4    0    0  0.57629493355E+01 -0.21978688895E+02 -0.90255675735E+01  0.24448624105E+02  0.00000000000E+00 0. -1.
        -13    1    3    3    0    0 -0.11147970864E+02  0.20829589284E+02 -0.23522457413E+02  0.33338491971E+02  0.00000000000E+00 0. -1.
         13    1    3    3    0    0 -0.97816760613E+02 -0.21899059496E+02  0.47000269218E+02  0.11071003916E+03  0.00000000000E+00 0.  1.
         -4    1    1    2    0  502 -0.16113261376E+03  0.94251107919E+02 -0.22398986680E+02  0.18801251332E+03  0.00000000000E+00 0.  1.
<scales pt_clust_5="13000.00000" pt_clust_6="13000.00000" pt_clust_7="13000.00000" pt_clust_8="13000.00000" pt_clust_9="219.99775"></scales>
<clustering>
<clus scale="   79.598">  5  6 -1 -1</clus>
<clus scale="   91.238">  7  8 -1 -1</clus>
<clus scale="  142.122">  2  7  1 -1</clus>
<clus scale="  219.998">  1  9  2 -1</clus>
<clus scale="  219.998">  1  5  2 -1</clus>
</clustering>
</event>
<event>
 9    2  0.9254368E-005  0.9896323E+02  0.7546771E-02  0.1285959E+00
         21   -1    0    0  501  502  0.00000000000E+00  0.00000000000E+00  0.38604435205E+02  0.38604435205E+02  0.00000000000E+00 0. -1.
          2   -1    0    0  502    0 -0.00000000000E+00 -0.00000000000E+00 -0.77595303445E+03  0.77595303445E+03  0.00000000000E+00 0. -1.
         24    2    1    2    0    0  0.47758651030E+02 -0.28572300071E+01 -0.43432810920E+03  0.44468040961E+03  0.82527012130E+02 0.  0.
         23    2    1    2    0    0 -0.31876361350E+02  0.19085135310E+02 -0.32447241157E+03  0.33863963100E+03  0.89521556123E+02 0.  0.
        -13    1    3    3    0    0 -0.77888410180E+01  0.18775286126E+02 -0.31658545450E+02  0.37622345933E+02  0.00000000000E+00 0.  1.
         14    1    3    3    0    0  0.55547492048E+02 -0.21632516133E+02 -0.40266956375E+03  0.40705806367E+03  0.00000000000E+00 0. -1.
        -11    1    4    4    0    0  0.21572761128E+02  0.10213744422E+02 -0.26020321682E+02  0.35309513424E+02  0.00000000000E+00 0. -1.
         11    1    4    4    0    0 -0.53449122478E+02  0.88713908881E+01 -0.29845208989E+03  0.30333011758E+03  0.00000000000E+00 0.  1.
          1    1    1    2  501    0 -0.15882289680E+02 -0.16227905303E+02  0.21451921533E+02  0.31237429047E+02  0.00000000000E+00 0. -1.
<scales pt_clust_5="13000.00000" pt_clust_6="13000.00000" pt_clust_7="13000.00000" pt_clust_8="13000.00000" pt_clust_9="22.70665"></scales>
<clustering>
<clus scale="   22.707">  1  9  2 -1</clus>
<clus scale="   82.527">  5  6 -1 -1</clus>
<clus scale="   89.522">  7  8 -1 -1</clus>
<clus scale="   92.684">  2  5  1 -1</clus>
<clus scale="   22.707">  1  5  2 -1</clus>
</clustering>
</event>
<event>
 9    2  0.9254368E-005  0.9576061E+02  0.7546771E-02  0.1295043E+00
         21   -1    0    0  501  502  0.00000000000E+00  0.00000000000E+00  0.15306344202E+03  0.15306344202E+03  0.00000000000E+00 0.  1.
          2   -1    0    0  502    0 -0.00000000000E+00 -0.00000000000E+00 -0.39848130386E+03  0.39848130386E+03  0.00000000000E+00 0. -1.
         23    2    1    2    0    0  0.20189024825E+01 -0.30044963080E+02 -0.35726037446E+03  0.36977194165E+03  0.90496065656E+02 0.  0.
         24    2    1    2    0    0 -0.40324594963E+02  0.46555691460E+02  0.73959231101E+02  0.12542501593E+03  0.80423637002E+02 0.  0.
        -11    1    4    4    0    0 -0.48680613696E+02 -0.12257348752E+01  0.54699267592E+02  0.73234653347E+02  0.00000000000E+00 0.  1.
         12    1    4    4    0    0  0.83560187333E+01  0.47781426335E+02  0.19259963509E+02  0.52190362578E+02  0.00000000000E+00 0. -1.
        -13    1    3    3    0    0  0.32696457202E+02  0.18677271041E+02 -0.13144988422E+03  0.13673686711E+03  0.00000000000E+00 0. -1.
         13    1    3    3    0    0 -0.30677554720E+02 -0.48722234121E+02 -0.22581049025E+03  0.23303507454E+03  0.00000000000E+00 0.  1.
          1    1    1    2  501    0  0.38305692480E+02 -0.16510728380E+02  0.37883281519E+02  0.56347788303E+02  0.00000000000E+00 0. -1.
<scales pt_clust_5="13000.00000" pt_clust_6="13000.00000" pt_clust_7="13000.00000" pt_clust_8="13000.00000" pt_clust_9="41.71247"></scales>
<clustering>
<clus scale="   41.712">  1  9  2 -1</clus>
<clus scale="   80.424">  5  6 -1 -1</clus>
<clus scale="   86.305">  1  5  2 -1</clus>
<clus scale="   90.496">  7  8 -1 -1</clus>
<clus scale="   41.712">  1  5  2 -1</clus>
</clustering>
</event>
<event>
 9    2  0.9254368E-005  0.1240991E+03  0.7546771E-02  0.1238972E+00
          2   -1    0    0  502    0 -0.00000000000E+00  0.00000000000E+00  0.11992949870E+04  0.11992949870E+04  0.00000000000E+00 0. -1.
         21   -1    0    0  501  502  0.00000000000E+00 -0.00000000000E+00 -0.73768040996E+02  0.73768040996E+02  0.00000000000E+00 0.  1.
         24    2    1    2    0    0  0.23923021189E+02 -0.87479784275E+02  0.10946332333E+04  0.11012339509E+04  0.79178757960E+02 0.  0.
         23    2    1    2    0    0 -0.25743596354E+02  0.27084209833E+02 -0.13829093890E+02  0.96655482360E+02  0.88061065499E+02 0.  0.
        -13    1    3    3    0    0 -0.84449147095E+01 -0.37790369020E+02  0.15617379802E+03  0.16090271521E+03  0.00000000000E+00 0.  1.
         14    1    3    3    0    0  0.32367935899E+02 -0.49689415255E+02  0.93845943525E+03  0.94033123572E+03  0.00000000000E+00 0. -1.
        -11    1    4    4    0    0  0.91095281779E+01  0.31497011250E+02  0.27228034854E+02  0.42619374741E+02  0.00000000000E+00 0. -1.
         11    1    4    4    0    0 -0.34853124531E+02 -0.44128014162E+01 -0.41057128744E+02  0.54036107619E+02  0.00000000000E+00 0.  1.
          1    1    1    2  501    0  0.18205751643E+01  0.60395574442E+02  0.44722806590E+02  0.75173594668E+02  0.00000000000E+00 0. -1.
<scales pt_clust_5="13000.00000" pt_clust_6="13000.00000" pt_clust_7="13000.00000" pt_clust_8="13000.00000" pt_clust_9="60.42301"></scales>
<clustering>
<clus scale="   60.423">  2  9  1 -1</clus>
<clus scale="   79.179">  5  6 -1 -1</clus>
<clus scale="   88.061">  7  8 -1 -1</clus>
<clus scale="  117.962">  1  5  2 -1</clus>
<clus scale="   60.423">  2  5  1 -1</clus>
</clustering>
</event>
<event>
 9    2  0.9254368E-005  0.1053192E+03  0.7546771E-02  0.1274854E+00
          2   -1    0    0  502    0 -0.00000000000E+00  0.00000000000E+00  0.95608667807E+03  0.95608667807E+03  0.00000000000E+00 0. -1.
         21   -1    0    0  501  502  0.00000000000E+00 -0.00000000000E+00 -0.24214991779E+02  0.24214991779E+02  0.00000000000E+00 0. -1.
         24    2    1    2    0    0  0.44988904997E+02  0.44133511537E+01  0.61584990312E+03  0.62264391686E+03  0.79817697224E+02 0.  0.
         23    2    1    2    0    0 -0.72346313194E+02  0.84397965266E+01  0.30272251621E+03  0.32463500794E+03  0.91878982169E+02 0.  0.
        -11    1    3    3    0    0 -0.20105079729E+02 -0.12198699487E+02  0.12202756367E+03  0.12427288037E+03  0.00000000000E+00 0.  1.
         12    1    3    3    0    0  0.65093984726E+02  0.16612050641E+02  0.49382233945E+03  0.49837103649E+03  0.00000000000E+00 0. -1.
        -11    1    4    4    0    0 -0.93931833435E+02  0.13616166308E+02  0.25126447120E+03  0.26859341728E+03  0.00000000000E+00 0. -1.
         11    1    4    4    0    0  0.21585520241E+02 -0.51763697811E+01  0.51458045006E+02  0.56041590663E+02  0.00000000000E+00 0.  1.
          1    1    1    2  501    0  0.27357408197E+02 -0.12853147680E+02  0.13299266963E+02  0.33022745045E+02  0.00000000000E+00 0. -1.
<scales pt_clust_5="13000.00000" pt_clust_6="13000.00000" pt_clust_7="13000.00000" pt_clust_8="13000.00000" pt_clust_9="30.22633"></scales>
<clustering>
<clus scale="   30.226">  2  9  1 -1</clus>
<clus scale="   79.818">  5  6 -1 -1</clus>
<clus scale="   91.879">  7  8 -1 -1</clus>
<clus scale="   94.980">  1  5  2 -1</clus>
<clus scale="   30.226">  2  5  1 -1</clus>
</clustering>
</event>
<event>
 9    2  0.9254368E-005  0.1251913E+03  0.7546771E-02  0.1237993E+00
         21   -1    0    0  501  502  0.00000000000E+00  0.00000000000E+00  0.50859157644E+02  0.50859157644E+02  0.00000000000E+00 0.  1.
          2   -1    0    0  502    0 -0.00000000000E+00 -0.00000000000E+00 -0.46149502594E+03  0.46149502594E+03  0.00000000000E+00 0. -1.
         23    2    1    2    0    0  0.80152643806E+02  0.58109179590E+00 -0.26642430958E+03  0.29275562269E+03  0.91099714059E+02 0.  0.
         24    2    1    2    0    0 -0.10114181891E+03  0.10778001554E+02 -0.82300117801E+02  0.15324646229E+03  0.79783055619E+02 0.  0.
        -11    1    4    4    0    0 -0.10710850528E+03 -0.69456425162E+01 -0.56252898107E+02  0.12118111403E+03  0.00000000000E+00 0.  1.
         12    1    4    4    0    0  0.59666863612E+01  0.17723644070E+02 -0.26047219694E+02  0.32065348260E+02  0.00000000000E+00 0. -1.
        -13    1    3    3    0    0  0.30527111437E+01  0.32002960056E+02 -0.12086776083E+03  0.12507007678E+03  0.00000000000E+00 0.  1.
         13    1    3    3    0    0  0.77099932663E+02 -0.31421868260E+02 -0.14555654875E+03  0.16768554591E+03  0.00000000000E+00 0. -1.
          1    1    1    2  501    0  0.20989175108E+02 -0.11359093349E+02 -0.61911440909E+02  0.66352098602E+02  0.00000000000E+00 0. -1.
<scales pt_clust_5="13000.00000" pt_clust_6="13000.00000" pt_clust_7="13000.00000" pt_clust_8="13000.00000" pt_clust_9="23.86577"></scales>
<clustering>
<clus scale="   23.866">  1  9  2 -1</clus>
<clus scale="   79.783">  5  6 -1 -1</clus>
<clus scale="   91.100">  7  8 -1 -1</clus>
<clus scale="  117.214">  1  5  2 -1</clus>
<clus scale="   23.866">  1  5  2 -1</clus>
</clustering>
</event>
<event>
 9    2  0.9254368E-005  0.1086871E+03  0.7546771E-02  0.1266803E+00
         21   -1    0    0  501  502  0.00000000000E+00  0.00000000000E+00  0.22583927118E+02  0.22583927118E+02  0.00000000000E+00 0. -1.
          2   -1    0    0  502    0 -0.00000000000E+00 -0.00000000000E+00 -0.66569992541E+03  0.66569992541E+03  0.00000000000E+00 0. -1.
         24    2    1    2    0    0  0.21278088663E+02  0.67636650733E+02 -0.35319017731E+03  0.36904079125E+03  0.80126966003E+02 0.  0.
         23    2    1    2    0    0 -0.20372767489E+02 -0.41387617831E+02 -0.18098760743E+03  0.20718340883E+03  0.89668647169E+02 0.  0.
        -13    1    3    3    0    0  0.15870510396E+02 -0.13522476166E+02 -0.36141365870E+02  0.41724438748E+02  0.00000000000E+00 0.  1.
         14    1    3    3    0    0  0.54075782670E+01  0.81159126898E+02 -0.31704881144E+03  0.32731635250E+03  0.00000000000E+00 0. -1.
        -11    1    4    4    0    0 -0.25104583243E+02 -0.56682713279E+01 -0.33797009921E+01  0.25957499465E+02  0.00000000000E+00 0. -1.
         11    1    4    4    0    0  0.47318157542E+01 -0.35719346503E+02 -0.17760790644E+03  0.18122590936E+03  0.00000000000E+00 0.  1.
          1    1    1    2  501    0 -0.90532117395E+00 -0.26249032902E+02 -0.10893821355E+03  0.11205965245E+03  0.00000000000E+00 0. -1.
<scales pt_clust_5="13000.00000" pt_clust_6="13000.00000" pt_clust_7="13000.00000" pt_clust_8="13000.00000" pt_clust_9="26.26465"></scales>
<clustering>
<clus scale="   26.265">  1  9  2 -1</clus>
<clus scale="   80.127">  5  6 -1 -1</clus>
<clus scale="   89.669">  7  8 -1 -1</clus>
<clus scale="  100.959">  2  5  1 -1</clus>
<clus scale="   26.265">  1  5  2 -1</clus>
</clustering>
</event>
<event>
 9    2  0.9254368E-005  0.1325009E+03  0.7546771E-02  0.1244602E+00
         21   -1    0    0  501  502  0.00000000000E+00  0.00000000000E+00  0.11933582942E+03  0.11933582942E+03  0.00000000000E+00 0. -1.
          2   -1    0    0  502    0 -0.00000000000E+00 -0.00000000000E+00 -0.99651542847E+03  0.99651542847E+03  0.00000000000E+00 0. -1.
         24    2    1    2    0    0  0.31286920306E+02 -0.33696384238E+02 -0.87236592434E+03  0.87664122917E+03  0.73234015597E+02 0.  0.
         23    2    1    2    0    0  0.13064440564E+02 -0.65966227666E+02 -0.46039708324E+02  0.12259414100E+03  0.91582999868E+02 0.  0.
        -11    1    3    3    0    0  0.19820918175E+02 -0.40198274144E+01 -0.54094516218E+02  0.57751575689E+02  0.00000000000E+00 0.  1.
         12    1    3    3    0    0  0.11466002131E+02 -0.29676556823E+02 -0.81827140812E+03  0.81888965348E+03  0.00000000000E+00 0. -1.
        -11    1    4    4    0    0  0.28000261120E+01 -0.37836139536E+02  0.25044507916E+02  0.45460323118E+02  0.00000000000E+00 0.  1.
         11    1    4    4    0    0  0.10264414452E+02 -0.28130088130E+02 -0.71084216241E+02  0.77133817880E+02  0.00000000000E+00 0. -1.
          1    1    1    2  501    0 -0.44351360870E+02  0.99662611904E+02  0.41226033606E+02  0.11661588772E+03  0.00000000000E+00 0. -1.
<scales pt_clust_5="13000.00000" pt_clust_6="13000.00000" pt_clust_7="13000.00000" pt_clust_8="13000.00000" pt_clust_9="95.75516"></scales>
<clustering>
<clus scale="   73.234">  5  6 -1 -1</clus>
<clus scale="   86.473">  2  5  1 -1</clus>
<clus scale="   91.583">  7  8 -1 -1</clus>
<clus scale="   95.755">  1  9  2 -1</clus>
<clus scale="   95.755">  1  5  2 -1</clus>
</clustering>
</event>
<event>
 9    2  0.9254368E-005  0.1438175E+03  0.7546771E-02  0.1209860E+00
         21   -1    0    0  501  502  0.00000000000E+00  0.00000000000E+00  0.26892895516E+02  0.26892895516E+02  0.00000000000E+00 0. -1.
          2   -1    0    0  502    0 -0.00000000000E+00 -0.00000000000E+00 -0.99889489611E+03  0.99889489611E+03  0.00000000000E+00 0. -1.
         24    2    1    2    0    0  0.68751907162E+02 -0.10665234681E+03 -0.50767990025E+03  0.52975628335E+03  0.82469938830E+02 0.  0.
         23    2    1    2    0    0 -0.39884013588E+02  0.84567172131E+02 -0.28753946468E+03  0.31555100936E+03  0.90283745017E+02 0.  0.
        -13    1    3    3    0    0  0.76014267592E+02 -0.43603102554E+02 -0.30898529606E+03  0.32117178054E+03  0.00000000000E+00 0.  1.
         14    1    3    3    0    0 -0.72623604306E+01 -0.63049244252E+02 -0.19869460419E+03  0.20858450281E+03  0.00000000000E+00 0. -1.
        -13    1    4    4    0    0 -0.52798658550E+02  0.93880864631E+01 -0.12374550301E+03  0.13486580007E+03  0.00000000000E+00 0.  1.
         13    1    4    4    0    0  0.12914644962E+02  0.75179085668E+02 -0.16379396167E+03  0.18068520929E+03  0.00000000000E+00 0. -1.
          1    1    1    2  501    0 -0.28867893574E+02  0.22085174674E+02 -0.17678263566E+03  0.18048049892E+03  0.00000000000E+00 0. -1.
<scales pt_clust_5="13000.00000" pt_clust_6="13000.00000" pt_clust_7="13000.00000" pt_clust_8="13000.00000" pt_clust_9="36.34710"></scales>
<clustering>
<clus scale="   36.347">  1  9  2 -1</clus>
<clus scale="   82.470">  5  6 -1 -1</clus>
<clus scale="   90.284">  7  8 -1 -1</clus>
<clus scale="  139.045">  2  5  1 -1</clus>
<clus scale="   36.347">  1  5  2 -1</clus>
</clustering>
</event>
<event>
 9    2  0.9254368E-005  0.9158889E+02  0.7546771E-02  0.1305144E+00
         21   -1    0    0  501  502  0.00000000000E+00  0.00000000000E+00  0.40571281457E+03  0.40571281457E+03  0.00000000000E+00 0.  1.
         -3   -1    0    0    0  501 -0.00000000000E+00 -0.00000000000E+00 -0.96098884105E+02  0.96098884105E+02  0.00000000000E+00 0.  1.
         23    2    1    2    0    0 -0.93261285828E+01  0.32663041003E+01 -0.40589726870E+02  0.99910482665E+02  0.90757551764E+02 0.  0.
         24    2    1    2    0    0 -0.24659420095E+02 -0.40549388231E+02  0.69689549579E+02  0.11688681193E+03  0.80954021507E+02 0.  0.
        -13    1    4    4    0    0 -0.49057999171E+02 -0.27106362868E+02  0.19242976095E+02  0.59259887947E+02  0.00000000000E+00 0.  1.
         14    1    4    4    0    0  0.24398579076E+02 -0.13443025364E+02  0.50446573484E+02  0.57626923987E+02  0.00000000000E+00 0. -1.
        -13    1    3    3    0    0 -0.23888059973E+01 -0.34747429752E+02 -0.49239469257E+02  0.60312648766E+02  0.00000000000E+00 0.  1.
         13    1    3    3    0    0 -0.69373225855E+01  0.38013733853E+02  0.86497423874E+01  0.39597833898E+02  0.00000000000E+00 0. -1.
         -4    1    1    2    0  502  0.33985548677E+02  0.37283084131E+02  0.28051410775E+03  0.28501440408E+03  0.00000000000E+00 0.  1.
<scales pt_clust_5="13000.00000" pt_clust_6="13000.00000" pt_clust_7="13000.00000" pt_clust_8="13000.00000" pt_clust_9="50.44845"></scales>
<clustering>
<clus scale="   50.448">  1  9  2 -1</clus>
<clus scale="   80.954">  5  6 -1 -1</clus>
<clus scale="   81.885">  1  5  2 -1</clus>
<clus scale="   90.758">  7  8 -1 -1</clus>
<clus scale="   50.448">  1  5  2 -1</clus>
</clustering>
</event>
<event>
 9    2  0.9254368E-005  0.3175736E+03  0.7546771E-02  0.1113917E+00
          2   -1    0    0  502    0 -0.00000000000E+00  0.00000000000E+00  0.96301992802E+03  0.96301992802E+03  0.00000000000E+00 0. -1.
         21   -1    0    0  501  502  0.00000000000E+00 -0.00000000000E+00 -0.15740094416E+03  0.15740094416E+03  0.00000000000E+00 0. -1.
         24    2    1    2    0    0  0.67729485242E+02 -0.57862846727E+02  0.12524922088E+03  0.17351791440E+03  0.80533887812E+02 0.  0.
         23    2    1    2    0    0 -0.22123258630E+03 -0.21088324703E+03  0.20372483749E+03  0.37859137956E+03  0.91717076630E+02 0.  0.
        -13    1    3    3    0    0  0.82005877079E+02 -0.58670735998E+02  0.88785150114E+02  0.13435037037E+03  0.00000000000E+00 0.  1.
         14    1    3    3    0    0 -0.14276391836E+02  0.80788927080E+00  0.36464070763E+02  0.39167544032E+02  0.00000000000E+00 0. -1.
        -13    1    4    4    0    0 -0.79009595910E+02 -0.82996966604E+02  0.13080050774E+03  0.17389590431E+03  0.00000000000E+00 0.  1.
         13    1    4    4    0    0 -0.14222299039E+03 -0.12788628042E+03  0.72924329752E+02  0.20469547525E+03  0.00000000000E+00 0. -1.
          1    1    1    2  501    0  0.15350310106E+03  0.26874609375E+03  0.47664492549E+03  0.56831157822E+03  0.00000000000E+00 0. -1.
<scales pt_clust_5="13000.00000" pt_clust_6="13000.00000" pt_clust_7="13000.00000" pt_clust_8="13000.00000" pt_clust_9="304.04117"></scales>
<clustering>
<clus scale="   80.534">  5  6 -1 -1</clus>
<clus scale="   91.717">  7  8 -1 -1</clus>
<clus scale="  120.088">  1  5  2 -1</clus>
<clus scale="  304.041">  2  9  1 -1</clus>
<clus scale="  304.041">  2  5  1 -1</clus>
</clustering>
</event>
<event>
 9    2  0.9254368E-005  0.8952505E+02  0.7546771E-02  0.1304997E+00
          2   -1    0    0  502    0 -0.00000000000E+00  0.00000000000E+00  0.35884550285E+03  0.35884550285E+03  0.00000000000E+00 0. -1.
         21   -1    0    0  501  502  0.00000000000E+00 -0.00000000000E+00 -0.97776948591E+02  0.97776948591E+02  0.00000000000E+00 0.  1.
         23    2    1    2    0    0  0.28662699293E+02 -0.32440214902E+02  0.30764114644E+03  0.32004404079E+03  0.76884297414E+02 0.  0.
         24    2    1    2    0    0 -0.39616023249E+02  0.94954881383E+01 -0.60760040348E+02  0.10746278808E+03  0.78720230732E+02 0.  0.
        -13    1    4    4    0    0 -0.24764719287E+02 -0.30751318304E+02 -0.49101972243E+02  0.63007448583E+02  0.00000000000E+00 0.  1.
         14    1    4    4    0    0 -0.14851303963E+02  0.40246806442E+02 -0.11658068105E+02  0.44455339501E+02  0.00000000000E+00 0. -1.
        -13    1    3    3    0    0 -0.58220689376E+01  0.21018025320E+02  0.11852484086E+03  0.12051469527E+03  0.00000000000E+00 0.  1.
         13    1    3    3    0    0  0.34484768231E+02 -0.53458240222E+02  0.18911630558E+03  0.19952934552E+03  0.00000000000E+00 0. -1.
          1    1    1    2  501    0  0.10953323956E+02  0.22944726764E+02  0.14187448164E+02  0.29115622565E+02  0.00000000000E+00 0. -1.
<scales pt_clust_5="13000.00000" pt_clust_6="13000.00000" pt_clust_7="13000.00000" pt_clust_8="13000.00000" pt_clust_9="25.42510"></scales>
<clustering>
<clus scale="   25.425">  2  9  1 -1</clus>
<clus scale="   76.884">  7  8 -1 -1</clus>
<clus scale="   78.720">  5  6 -1 -1</clus>
<clus scale="   87.915">  1  7  2 -1</clus>
<clus scale="   25.425">  2  5  1 -1</clus>
</clustering>
</event>
<event>
 9    2  0.9254368E-005  0.9919396E+02  0.7546771E-02  0.1287237E+00
          2   -1    0    0  502    0 -0.00000000000E+00  0.00000000000E+00  0.11638845106E+03  0.11638845106E+03  0.00000000000E+00 0. -1.
         21   -1    0    0  501  502  0.00000000000E+00 -0.00000000000E+00 -0.15413760786E+03  0.15413760786E+03  0.00000000000E+00 0.  1.
         24    2    1    2    0    0  0.47230395362E+01  0.44235938793E+02  0.53500425128E+02  0.10691385419E+03  0.81173587733E+02 0.  0.
         23    2    1    2    0    0  0.24176788736E+02 -0.17960458814E+02 -0.71139289589E+02  0.11968015743E+03  0.91408130738E+02 0.  0.
        -11    1    3    3    0    0 -0.24579030474E+02  0.51865183250E+02  0.17776812617E+02  0.60084449232E+02  0.00000000000E+00 0.  1.
         12    1    3    3    0    0  0.29302070011E+02 -0.76292444571E+01  0.35723612511E+02  0.46829404958E+02  0.00000000000E+00 0. -1.
        -11    1    4    4    0    0 -0.14929296190E+02  0.22048902023E+02 -0.55549720999E+02  0.61602024871E+02  0.00000000000E+00 0.  1.
         11    1    4    4    0    0  0.39106084925E+02 -0.40009360837E+02 -0.15589568590E+02  0.58078132559E+02  0.00000000000E+00 0. -1.
          1    1    1    2  501    0 -0.28899828272E+02 -0.26275479980E+02 -0.20110292337E+02  0.43932047303E+02  0.00000000000E+00 0. -1.
<scales pt_clust_5="13000.00000" pt_clust_6="13000.00000" pt_clust_7="13000.00000" pt_clust_8="13000.00000" pt_clust_9="39.05894"></scales>
<clustering>
<clus scale="   39.059">  2  9  1 -1</clus>
<clus scale="   81.174">  5  6 -1 -1</clus>
<clus scale="   89.851">  1  5  2 -1</clus>
<clus scale="   91.408">  7  8 -1 -1</clus>
<clus scale="   39.059">  2  5  1 -1</clus>
</clustering>
</event>
<event>
 9    2  0.9254368E-005  0.1370427E+03  0.7546771E-02  0.1238606E+00
         21   -1    0    0  501  502  0.00000000000E+00  0.00000000000E+00  0.62229748618E+02  0.62229748618E+02  0.00000000000E+00 0.  1.
         -1   -1    0    0    0  501 -0.00000000000E+00 -0.00000000000E+00 -0.50439230342E+03  0.50439230342E+03  0.00000000000E+00 0.  1.
         24    2    1    2    0    0  0.17294089431E+02 -0.30841568798E+02 -0.22069393114E+03  0.23768418181E+03  0.80855866497E+02 0.  0.
         23    2    1    2    0    0 -0.49180265548E+02 -0.77997825113E+02 -0.11375993429E+03  0.17252845983E+03  0.91227120746E+02 0.  0.
        -11    1    3    3    0    0  0.19179850697E+02 -0.56826859076E+02 -0.17614754227E+03  0.18607825030E+03  0.00000000000E+00 0.  1.
         12    1    3    3    0    0 -0.18857612658E+01  0.25985290278E+02 -0.44546388863E+02  0.51605931511E+02  0.00000000000E+00 0. -1.
        -11    1    4    4    0    0 -0.38870807436E+01  0.20351789209E+02 -0.25357412629E+02  0.32746039393E+02  0.00000000000E+00 0. -1.
         11    1    4    4    0    0 -0.45293184804E+02 -0.98349614322E+02 -0.88402521664E+02  0.13978242044E+03  0.00000000000E+00 0.  1.
         -2    1    1    2    0  502  0.31886176117E+02  0.10883939391E+03 -0.10770868937E+03  0.15640941039E+03  0.00000000000E+00 0.  1.
<scales pt_clust_5="13000.00000" pt_clust_6="13000.00000" pt_clust_7="13000.00000" pt_clust_8="13000.00000" pt_clust_9="102.26590"></scales>
<clustering>
<clus scale="   80.856">  5  6 -1 -1</clus>
<clus scale="   88.249">  2  5  1 -1</clus>
<clus scale="   91.227">  7  8 -1 -1</clus>
<clus scale="  102.266">  1  9  2 -1</clus>
<clus scale="  102.266">  1  5  2 -1</clus>
</clustering>
</event>
<event>
 9    2  0.9254368E-005  0.9796411E+02  0.7546771E-02  0.1288223E+00
          2   -1    0    0  502    0 -0.00000000000E+00  0.00000000000E+00  0.56904296751E+03  0.56904296751E+03  0.00000000000E+00 0. -1.
         21   -1    0    0  501  502  0.00000000000E+00 -0.00000000000E+00 -0.24597627313E+02  0.24597627313E+02  0.00000000000E+00 0. -1.
         24    2    1    2    0    0 -0.22473864898E+02  0.40351039927E+02  0.22208899829E+03  0.24057915232E+03  0.80134414224E+02 0.  0.
         23    2    1    2    0    0 -0.18116610248E+02 -0.48750013663E+02  0.21051327459E+03  0.23378444916E+03  0.87375937731E+02 0.  0.
        -13    1    3    3    0    0  0.12325934031E+02  0.50392804983E+02  0.16505818480E+03  0.17301898108E+03  0.00000000000E+00 0.  1.
         14    1    3    3    0    0 -0.34799798929E+02 -0.10041765055E+02  0.57030813486E+02  0.67560171239E+02  0.00000000000E+00 0. -1.
        -11    1    4    4    0    0 -0.29414983823E+02 -0.66543575481E+02  0.19340714765E+03  0.20663884793E+03  0.00000000000E+00 0.  1.
         11    1    4    4    0    0  0.11298373576E+02  0.17793561818E+02  0.17106126937E+02  0.27145601235E+02  0.00000000000E+00 0. -1.
          1    1    1    2  501    0  0.40590475146E+02  0.83989737352E+01  0.11184306732E+03  0.11927699334E+03  0.00000000000E+00 0. -1.
<scales pt_clust_5="13000.00000" pt_clust_6="13000.00000" pt_clust_7="13000.00000" pt_clust_8="13000.00000" pt_clust_9="41.45035"></scales>
<clustering>
<clus scale="   41.450">  2  9  1 -1</clus>
<clus scale="   80.134">  5  6 -1 -1</clus>
<clus scale="   87.376">  7  8 -1 -1</clus>
<clus scale="   91.564">  1  5  2 -1</clus>
<clus scale="   41.450">  2  5  1 -1</clus>
</clustering>
</event>
<event>
 9    2  0.9254368E-005  0.1045704E+03  0.7546771E-02  0.1274636E+00
         21   -1    0    0  501  502  0.00000000000E+00  0.00000000000E+00  0.26764649001E+02  0.26764649001E+02  0.00000000000E+00 0.  1.
          2   -1    0    0  502    0 -0.00000000000E+00 -0.00000000000E+00 -0.55553221917E+03  0.55553221917E+03  0.00000000000E+00 0. -1.
         23    2    1    2    0    0 -0.43265400561E+02 -0.61816248719E+01 -0.17497489953E+03  0.20080226256E+03  0.88290576006E+02 0.  0.
         24    2    1    2    0    0  0.67913965925E+02  0.74613772415E+01 -0.20147521601E+03  0.22719037195E+03  0.79719655817E+02 0.  0.
        -13    1    4    4    0    0  0.55485194676E+02  0.40966231329E+02 -0.12459351982E+03  0.14240921360E+03  0.00000000000E+00 0.  1.
         14    1    4    4    0    0  0.12428771249E+02 -0.33504854088E+02 -0.76881696188E+02  0.84781158349E+02  0.00000000000E+00 0. -1.
        -11    1    3    3    0    0 -0.48156328151E+02 -0.40790484368E+02 -0.12159113231E+03  0.13699379188E+03  0.00000000000E+00 0.  1.
         11    1    3    3    0    0  0.48909275907E+01  0.34608859496E+02 -0.53383767214E+02  0.63808470678E+02  0.00000000000E+00 0. -1.
          1    1    1    2  501    0 -0.24648565364E+02 -0.12797523697E+01 -0.15231745463E+03  0.15430423366E+03  0.00000000000E+00 0. -1.
<scales pt_clust_5="13000.00000" pt_clust_6="13000.00000" pt_clust_7="13000.00000" pt_clust_8="13000.00000" pt_clust_9="24.68178"></scales>
<clustering>
<clus scale="   24.682">  1  9  2 -1</clus>
<clus scale="   79.720">  5  6 -1 -1</clus>
<clus scale="   88.291">  7  8 -1 -1</clus>
<clus scale="   97.442">  1  5  2 -1</clus>
<clus scale="   24.682">  1  5  2 -1</clus>
</clustering>
</event>
<event>
 9    2  0.9254368E-005  0.9656333E+02  0.7546771E-02  0.1291540E+00
         21   -1    0    0  501  502  0.00000000000E+00  0.00000000000E+00  0.20637221613E+03  0.20637221613E+03  0.00000000000E+00 0.  1.
         -3   -1    0    0    0  501 -0.00000000000E+00 -0.00000000000E+00 -0.30451702978E+03  0.30451702978E+03  0.00000000000E+00 0.  1.
         24    2    1    2    0    0 -0.19685997057E+02  0.39630390200E+02 -0.25982897960E+03  0.27535055742E+03  0.79678883816E+02 0.  0.
         23    2    1    2    0    0 -0.11155030453E+02 -0.27314737013E+02  0.25702799266E+02  0.95560917488E+02  0.87182139791E+02 0.  0.
        -13    1    3    3    0    0 -0.14190934459E+02  0.48035751527E+02 -0.74634162817E+02  0.89883670958E+02  0.00000000000E+00 0.  1.
         14    1    3    3    0    0 -0.54950625978E+01 -0.84053613262E+01 -0.18519481678E+03  0.18546688646E+03  0.00000000000E+00 0. -1.
        -11    1    4    4    0    0 -0.65643417353E+01 -0.55591668976E+02  0.34301032467E+02  0.65651238147E+02  0.00000000000E+00 0. -1.
         11    1    4    4    0    0 -0.45906887182E+01  0.28276931963E+02 -0.85982332011E+01  0.29909679342E+02  0.00000000000E+00 0.  1.
         -4    1    1    2    0  502  0.30841027511E+02 -0.12315653188E+02  0.13598136668E+03  0.13997777100E+03  0.00000000000E+00 0.  1.
<scales pt_clust_5="13000.00000" pt_clust_6="13000.00000" pt_clust_7="13000.00000" pt_clust_8="13000.00000" pt_clust_9="33.20910"></scales>
<clustering>
<clus scale="   33.209">  1  9  2 -1</clus>
<clus scale="   79.679">  5  6 -1 -1</clus>
<clus scale="   87.182">  7  8 -1 -1</clus>
<clus scale="   89.847">  2  5  1 -1</clus>
<clus scale="   33.209">  1  5  2 -1</clus>
</clustering>
</event>
<event>
 9    2  0.9254368E-005  0.1141479E+03  0.7546771E-02  0.1255627E+00
          2   -1    0    0  502    0 -0.00000000000E+00  0.00000000000E+00  0.40319327554E+03  0.40319327554E+03  0.00000000000E+00 0. -1.
         21   -1    0    0  501  502  0.00000000000E+00 -0.00000000000E+00 -0.79693455346E+02  0.79693455346E+02  0.00000000000E+00 0.  1.
         23    2    1    2    0    0  0.65447533136E+02  0.27586514742E+02  0.29913036607E+03  0.32055712203E+03  0.90738620154E+02 0.  0.
         24    2    1    2    0    0 -0.45900273735E+02 -0.40212097651E+02 -0.26149258641E+02  0.10670909975E+03  0.83541608292E+02 0.  0.
        -11    1    4    4    0    0 -0.35747504116E+02 -0.44462567604E+02 -0.52887604773E+02  0.77793976034E+02  0.00000000000E+00 0.  1.
         12    1    4    4    0    0 -0.10152769618E+02  0.42504699532E+01  0.26738346132E+02  0.28915123718E+02  0.00000000000E+00 0. -1.
        -13    1    3    3    0    0  0.70154255176E+02  0.52556970388E+02  0.25484987852E+03  0.26950383158E+03  0.00000000000E+00 0. -1.
         13    1    3    3    0    0 -0.47067220396E+01 -0.24970455647E+02  0.44280487553E+02  0.51053290447E+02  0.00000000000E+00 0.  1.
          1    1    1    2  501    0 -0.19547259402E+02  0.12625582909E+02  0.50518712763E+02  0.55620509105E+02  0.00000000000E+00 0. -1.
<scales pt_clust_5="13000.00000" pt_clust_6="13000.00000" pt_clust_7="13000.00000" pt_clust_8="13000.00000" pt_clust_9="23.27018"></scales>
<clustering>
<clus scale="   23.270">  2  9  1 -1</clus>
<clus scale="   83.542">  5  6 -1 -1</clus>
<clus scale="   90.739">  7  8 -1 -1</clus>
<clus scale="  108.515">  2  5  1 -1</clus>
<clus scale="   23.270">  2  5  1 -1</clus>
</clustering>
</event>
<event>
 9    2  0.9254368E-005  0.2155616E+03  0.7546771E-02  0.1138325E+00
          2   -1    0    0  502    0 -0.00000000000E+00  0.00000000000E+00  0.18300648447E+03  0.18300648447E+03  0.00000000000E+00 0. -1.
         21   -1    0    0  501  502  0.00000000000E+00 -0.00000000000E+00 -0.39903521177E+03  0.39903521177E+03  0.00000000000E+00 0. -1.
         24    2    1    2    0    0 -0.11268845746E+03 -0.17253169839E+03  0.42717431898E+02  0.22608953377E+03  0.82618538463E+02 0.  0.
         23    2    1    2    0    0  0.92971919440E+02  0.12403675299E+03 -0.23759924356E+03  0.29949249863E+03  0.95986781890E+02 0.  0.
        -11    1    3    3    0    0 -0.36686291517E+02 -0.10351982093E+03 -0.10728326386E+02  0.11035095966E+03  0.00000000000E+00 0.  1.
         12    1    3    3    0    0 -0.76002165943E+02 -0.69011877463E+02  0.53445758284E+02  0.11573857411E+03  0.00000000000E+00 0. -1.
        -11    1    4    4    0    0 -0.14132499429E+02  0.26558843170E+02 -0.14222231018E+02  0.33277192576E+02  0.00000000000E+00 0.  1.
         11    1    4    4    0    0  0.10710441887E+03  0.97477909821E+02 -0.22337701254E+03  0.26621530605E+03  0.00000000000E+00 0. -1.
          1    1    1    2  501    0  0.19716538019E+02  0.48494945399E+02 -0.21146915636E+02  0.56459663846E+02  0.00000000000E+00 0. -1.
<scales pt_clust_5="13000.00000" pt_clust_6="13000.00000" pt_clust_7="13000.00000" pt_clust_8="13000.00000" pt_clust_9="52.34980"></scales>
<clustering>
<clus scale="   52.350">  2  9  1 -1</clus>
<clus scale="   82.619">  5  6 -1 -1</clus>
<clus scale="   95.987">  7  8 -1 -1</clus>
<clus scale="  209.950">  1  5  2 -1</clus>
<clus scale="   52.350">  2  5  1 -1</clus>
</clustering>
</event>
<event>
 9    2  0.9254368E-005  0.1076839E+03  0.7546771E-02  0.1271456E+00
         21   -1    0    0  501  502  0.00000000000E+00  0.00000000000E+00  0.28741316667E+03  0.28741316667E+03  0.00000000000E+00 0. -1.
          4   -1    0    0  502    0 -0.00000000000E+00 -0.00000000000E+00 -0.10202856660E+03  0.10202856660E+03  0.00000000000E+00 0. -1.
         24    2    1    2    0    0  0.49236178948E+02  0.21107556548E+02 -0.35013235253E+02  0.98813178027E+02  0.75288692698E+02 0.  0.
         23    2    1    2    0    0 -0.81395430466E+02 -0.35220985532E+02  0.22167954083E+03  0.25548528982E+03  0.90913038510E+02 0.  0.
        -13    1    3    3    0    0  0.17876868944E+02 -0.21084973054E+02 -0.37023135905E+02  0.46204665610E+02  0.00000000000E+00 0.  1.
         14    1    3    3    0    0  0.31359310003E+02  0.42192529602E+02  0.20099006521E+01  0.52608512417E+02  0.00000000000E+00 0. -1.
        -13    1    4    4    0    0  0.73371361783E+01 -0.19853503247E+02  0.63728506825E+01  0.22104487877E+02  0.00000000000E+00 0.  1.
         13    1    4    4    0    0 -0.88732566645E+02 -0.15367482285E+02  0.21530669015E+03  0.23338080194E+03  0.00000000000E+00 0. -1.
          3    1    1    2  501    0  0.32159251519E+02  0.14113428984E+02 -0.12817055047E+01  0.35143265428E+02  0.00000000000E+00 0. -1.
<scales pt_clust_5="13000.00000" pt_clust_6="13000.00000" pt_clust_7="13000.00000" pt_clust_8="13000.00000" pt_clust_9="35.11990"></scales>
<clustering>
<clus scale="   35.120">  1  9  2 -1</clus>
<clus scale="   75.289">  5  6 -1 -1</clus>
<clus scale="   90.913">  7  8 -1 -1</clus>
<clus scale="   94.863">  2  5  1 -1</clus>
<clus scale="   35.120">  1  5  2 -1</clus>
</clustering>
</event>
<event>
 9    2  0.9254368E-005  0.3784076E+03  0.7546771E-02  0.1105842E+00
         21   -1    0    0  501  502  0.00000000000E+00  0.00000000000E+00  0.69145764564E+02  0.69145764564E+02  0.00000000000E+00 0. -1.
          2   -1    0    0  502    0 -0.00000000000E+00 -0.00000000000E+00 -0.25676451242E+04  0.25676451242E+04  0.00000000000E+00 0. -1.
         24    2    1    2    0    0 -0.80305805486E+01  0.30838161080E+02 -0.38590749625E+03  0.39563627432E+03  0.81166393860E+02 0.  0.
         23    2    1    2    0    0  0.20022449650E+03  0.29264516141E+03 -0.11706253360E+04  0.12268169488E+04  0.94789815162E+02 0.  0.
        -13    1    3    3    0    0 -0.91219150690E+01  0.58648673321E+02 -0.26577108264E+03  0.27231809448E+03  0.00000000000E+00 0.  1.
         14    1    3    3    0    0  0.10913345204E+01 -0.27810512242E+02 -0.12013641361E+03  0.12331817983E+03  0.00000000000E+00 0. -1.
        -11    1    4    4    0    0  0.32397545720E+02  0.15776723920E+02 -0.21079488031E+03  0.21385272397E+03  0.00000000000E+00 0.  1.
         11    1    4    4    0    0  0.16782695078E+03  0.27686843749E+03 -0.95983045566E+03  0.10129642248E+04  0.00000000000E+00 0. -1.
          1    1    1    2  501    0 -0.19219391595E+03 -0.32348332249E+03 -0.94196652746E+03  0.10143376657E+04  0.00000000000E+00 0. -1.
<scales pt_clust_5="13000.00000" pt_clust_6="13000.00000" pt_clust_7="13000.00000" pt_clust_8="13000.00000" pt_clust_9="366.34297"></scales>
<clustering>
<clus scale="   81.166">  5  6 -1 -1</clus>
<clus scale="   87.198">  2  5  1 -1</clus>
<clus scale="   94.790">  7  8 -1 -1</clus>
<clus scale="  366.343">  1  9  2 -1</clus>
<clus scale="  366.343">  1  5  2 -1</clus>
</clustering>
</event>
<event>
 9    2  0.9254368E-005  0.9581757E+02  0.7546771E-02  0.1296054E+00
         21   -1    0    0  501  502  0.00000000000E+00  0.00000000000E+00  0.10697429024E+03  0.10697429024E+03  0.00000000000E+00 0.  1.
          2   -1    0    0  502    0 -0.00000000000E+00 -0.00000000000E+00 -0.17811373152E+03  0.17811373152E+03  0.00000000000E+00 0. -1.
         24    2    1    2    0    0 -0.72137980291E+01  0.21368859420E+01 -0.41516996892E+02  0.89490068264E+02  0.78918984557E+02 0.  0.
         23    2    1    2    0    0  0.41731492440E+02 -0.65618994519E+02 -0.30064425190E+02  0.12333700495E+03  0.90888817928E+02 0.  0.
        -11    1    3    3    0    0 -0.42360122876E+02  0.42732083341E+01 -0.14052039614E+02  0.44834140305E+02  0.00000000000E+00 0.  1.
         12    1    3    3    0    0  0.35146324847E+02 -0.21363223921E+01 -0.27464957278E+02  0.44655927959E+02  0.00000000000E+00 0. -1.
        -13    1    4    4    0    0 -0.26407345003E+02 -0.23385681997E+02 -0.24561398413E+02  0.42982557911E+02  0.00000000000E+00 0. -1.
         13    1    4    4    0    0  0.68138837444E+02 -0.42233312522E+02 -0.55030267769E+01  0.80354447036E+02  0.00000000000E+00 0.  1.
          1    1    1    2  501    0 -0.34517694411E+02  0.63482108577E+02  0.44198080172E+00  0.72260948540E+02  0.00000000000E+00 0. -1.
<scales pt_clust_5="13000.00000" pt_clust_6="13000.00000" pt_clust_7="13000.00000" pt_clust_8="13000.00000" pt_clust_9="72.25960"></scales>
<clustering>
<clus scale="   72.260">  1  9  2 -1</clus>
<clus scale="   78.919">  5  6 -1 -1</clus>
<clus scale="   84.548">  2  5  1 -1</clus>
<clus scale="   90.889">  7  8 -1 -1</clus>
<clus scale="   72.260">  1  5  2 -1</clus>
</clustering>
</event>
<event>
 9    2  0.9254368E-005  0.9488137E+02  0.7546771E-02  0.1297592E+00
          2   -1    0    0  502    0 -0.00000000000E+00  0.00000000000E+00  0.98578133758E+02  0.98578133758E+02  0.00000000000E+00 0. -1.
         21   -1    0    0  501  502  0.00000000000E+00 -0.00000000000E+00 -0.14789540915E+03  0.14789540915E+03  0.00000000000E+00 0.  1.
         24    2    1    2    0    0  0.85678251390E+01 -0.16047039769E+02  0.16568208084E+02  0.84381355390E+02  0.80714264572E+02 0.  0.
         23    2    1    2    0    0 -0.27981505932E+02  0.25303665207E+02 -0.66905613520E+01  0.99111119556E+02  0.91405745231E+02 0.  0.
        -11    1    3    3    0    0 -0.11296644907E+02 -0.21402119242E+02 -0.26964507724E+02  0.36231886109E+02  0.00000000000E+00 0.  1.
         12    1    3    3    0    0  0.19864470046E+02  0.53550794724E+01  0.43532715809E+02  0.48149469281E+02  0.00000000000E+00 0. -1.
        -13    1    4    4    0    0 -0.32601508201E+00  0.39257101286E+02 -0.38305544839E+02  0.54850169121E+02  0.00000000000E+00 0.  1.
         13    1    4    4    0    0 -0.27655490850E+02 -0.13953436079E+02  0.31614983487E+02  0.44260950435E+02  0.00000000000E+00 0. -1.
          1    1    1    2  501    0  0.19413680793E+02 -0.92566254378E+01 -0.59194922123E+02  0.62981067961E+02  0.00000000000E+00 0. -1.
<scales pt_clust_5="13000.00000" pt_clust_6="13000.00000" pt_clust_7="13000.00000" pt_clust_8="13000.00000" pt_clust_9="21.50758"></scales>
<clustering>
<clus scale="   21.508">  2  9  1 -1</clus>
<clus scale="   80.714">  5  6 -1 -1</clus>
<clus scale="   84.630">  1  5  2 -1</clus>
<clus scale="   91.406">  7  8 -1 -1</clus>
<clus scale="   21.508">  2  5  1 -1</clus>
</clustering>
</event>
<event>
 9    2  0.9254368E-005  0.1143604E+03  0.7546771E-02  0.1259906E+00
         21   -1    0    0  501  502  0.00000000000E+00  0.00000000000E+00  0.18667475451E+03  0.18667475451E+03  0.00000000000E+00 0.  1.
          4   -1    0    0  502    0 -0.00000000000E+00 -0.00000000000E+00 -0.22771144613E+03  0.22771144613E+03  0.00000000000E+00 0. -1.
         23    2    1    2    0    0  0.39900402756E+02  0.14291516236E+02 -0.13030484987E+03  0.16375368551E+03  0.89663961770E+02 0.  0.
         24    2    1    2    0    0  0.66212516443E+02 -0.10277465630E+02  0.96635949619E+02  0.14418840505E+03  0.83438994226E+02 0.  0.
        -11    1    4    4    0    0  0.75080452851E+02  0.17715388035E+02  0.76060236373E+02  0.10833313865E+03  0.00000000000E+00 0.  1.
         12    1    4    4    0    0 -0.88679364081E+01 -0.27992853665E+02  0.20575713246E+02  0.35855266392E+02  0.00000000000E+00 0. -1.
        -13    1    3    3    0    0 -0.17341992458E+02  0.30583564037E+02 -0.73519897668E+02  0.81494014779E+02  0.00000000000E+00 0.  1.
         13    1    3    3    0    0  0.57242395214E+02 -0.16292047801E+02 -0.56784952205E+02  0.82259670728E+02  0.00000000000E+00 0. -1.
          3    1    1    2  501    0 -0.10611291920E+03 -0.40140506061E+01 -0.73677913590E+01  0.10644411009E+03  0.00000000000E+00 0. -1.
<scales pt_clust_5="13000.00000" pt_clust_6="13000.00000" pt_clust_7="13000.00000" pt_clust_8="13000.00000" pt_clust_9="78.20640"></scales>
<clustering>
<clus scale="   83.439">  5  6 -1 -1</clus>
<clus scale="   89.664">  7  8 -1 -1</clus>
<clus scale="   99.176">  2  7  1 -1</clus>
<clus scale="   78.206">  1  9  2 -1</clus>
<clus scale="   78.206">  1  5  2 -1</clus>
</clustering>
</event>
<event>
 9    2  0.9254368E-005  0.1162748E+03  0.7546771E-02  0.1254019E+00
         21   -1    0    0  501  502  0.00000000000E+00  0.00000000000E+00  0.69723313146E+02  0.69723313146E+02  0.00000000000E+00 0. -1.
          2   -1    0    0  502    0 -0.00000000000E+00 -0.00000000000E+00 -0.56640603145E+03  0.56640603145E+03  0.00000000000E+00 0. -1.
         23    2    1    2    0    0  0.41955251717E+02  0.69563276867E+02 -0.38727330641E+03  0.40592078501E+03  0.90508437232E+02 0.  0.
         24    2    1    2    0    0 -0.38312768321E+02 -0.47083697110E+02 -0.15263408807E+03  0.18135191395E+03  0.76854467038E+02 0.  0.
        -11    1    4    4    0    0  0.15483523396E+02 -0.40889438085E+02 -0.71374107319E+02  0.83701546217E+02  0.00000000000E+00 0.  1.
         12    1    4    4    0    0 -0.53796291716E+02 -0.61942590250E+01 -0.81259980751E+02  0.97650367736E+02  0.00000000000E+00 0. -1.
        -11    1    3    3    0    0  0.67423221789E+02  0.67519700241E+02 -0.32143333638E+03  0.33529716744E+03  0.00000000000E+00 0.  1.
         11    1    3    3    0    0 -0.25467970073E+02  0.20435766258E+01 -0.65839970030E+02  0.70623617570E+02  0.00000000000E+00 0. -1.
          1    1    1    2  501    0 -0.36424833959E+01 -0.22479579756E+02  0.43224676179E+02  0.48856645629E+02  0.00000000000E+00 0. -1.
<scales pt_clust_5="13000.00000" pt_clust_6="13000.00000" pt_clust_7="13000.00000" pt_clust_8="13000.00000" pt_clust_9="22.77277"></scales>
<clustering>
<clus scale="   22.773">  1  9  2 -1</clus>
<clus scale="   76.854">  5  6 -1 -1</clus>
<clus scale="   90.508">  7  8 -1 -1</clus>
<clus scale="  105.994">  1  5  2 -1</clus>
<clus scale="   22.773">  1  5  2 -1</clus>
</clustering>
</event>
<event>
 9    2  0.9254368E-005  0.1636343E+03  0.7546771E-02  0.1187522E+00
         21   -1    0    0  501  502  0.00000000000E+00  0.00000000000E+00  0.21250844562E+03  0.21250844562E+03  0.00000000000E+00 0. -1.
         -1   -1    0    0    0  501 -0.00000000000E+00 -0.00000000000E+00 -0.27547259638E+03  0.27547259638E+03  0.00000000000E+00 0.  1.
         23    2    1    2    0    0 -0.14026038512E+03  0.40517261378E+01 -0.16126062858E+03  0.23268987995E+03  0.91924957353E+02 0.  0.
         24    2    1    2    0    0  0.11215985940E+03  0.22212630483E+02  0.14261594904E+03  0.19660835790E+03  0.72403746174E+02 0.  0.
        -13    1    4    4    0    0  0.13845441167E+02 -0.22665366832E+02  0.20597289773E+02  0.33610466238E+02  0.00000000000E+00 0.  1.
         14    1    4    4    0    0  0.98314418237E+02  0.44877997315E+02  0.12201865927E+03  0.16299789166E+03  0.00000000000E+00 0. -1.
        -11    1    3    3    0    0 -0.12864406933E+03  0.34038558955E+02 -0.11236019154E+03  0.17416294873E+03  0.00000000000E+00 0.  1.
         11    1    3    3    0    0 -0.11616315788E+02 -0.29986832818E+02 -0.48900437041E+02  0.58526931217E+02  0.00000000000E+00 0. -1.
         -2    1    1    2    0  502  0.28100525716E+02 -0.26264356621E+02 -0.44319471224E+02  0.58682804157E+02  0.00000000000E+00 0.  1.
<scales pt_clust_5="13000.00000" pt_clust_6="13000.00000" pt_clust_7="13000.00000" pt_clust_8="13000.00000" pt_clust_9="38.46372"></scales>
<clustering>
<clus scale="   38.464">  1  9  2 -1</clus>
<clus scale="   72.404">  5  6 -1 -1</clus>
<clus scale="   91.925">  7  8 -1 -1</clus>
<clus scale="  153.520">  1  5  2 -1</clus>
<clus scale="   38.464">  1  5  2 -1</clus>
</clustering>
</event>
<event>
 9    2  0.9254368E-005  0.1632776E+03  0.7546771E-02  0.1187425E+00
         21   -1    0    0  501  502  0.00000000000E+00  0.00000000000E+00  0.24102058723E+03  0.24102058723E+03  0.00000000000E+00 0. -1.
         -1   -1    0    0    0  501 -0.00000000000E+00 -0.00000000000E+00 -0.15527381092E+03  0.15527381092E+03  0.00000000000E+00 0.  1.
         24    2    1    2    0    0  0.44313456919E+02  0.11442724281E+03 -0.12731726428E+02  0.14658565613E+03  0.79170583957E+02 0.  0.
         23    2    1    2    0    0 -0.82488563787E+02 -0.12937038804E+03  0.51696871928E+02  0.18750619099E+03  0.94577717435E+02 0.  0.
        -11    1    3    3    0    0  0.42755234049E+02  0.14973326313E+02  0.49117812123E+01  0.45566831513E+02  0.00000000000E+00 0.  1.
         12    1    3    3    0    0  0.15582228702E+01  0.99453916501E+02 -0.17643507640E+02  0.10101882462E+03  0.00000000000E+00 0. -1.
        -13    1    4    4    0    0 -0.21600261136E+02 -0.11307042521E+03  0.19598238358E+02  0.11677150031E+03  0.00000000000E+00 0.  1.
         13    1    4    4    0    0 -0.60888302651E+02 -0.16299962825E+02  0.32098633570E+02  0.70734690675E+02  0.00000000000E+00 0. -1.
         -2    1    1    2    0  502  0.38175106868E+02  0.14943145221E+02  0.46781630807E+02  0.62202551028E+02  0.00000000000E+00 0.  1.
<scales pt_clust_5="13000.00000" pt_clust_6="13000.00000" pt_clust_7="13000.00000" pt_clust_8="13000.00000" pt_clust_9="40.99557"></scales>
<clustering>
<clus scale="   40.996">  1  9  2 -1</clus>
<clus scale="   79.171">  5  6 -1 -1</clus>
<clus scale="   94.578">  7  8 -1 -1</clus>
<clus scale="  154.863">  2  5  1 -1</clus>
<clus scale="   40.996">  1  5  2 -1</clus>
</clustering>
</event>
<event>
 9    2  0.9254368E-005  0.1092614E+03  0.7546771E-02  0.1265688E+00
         21   -1    0    0  501  502  0.00000000000E+00  0.00000000000E+00  0.10943851300E+03  0.10943851300E+03  0.00000000000E+00 0. -1.
          2   -1    0    0  502    0 -0.00000000000E+00 -0.00000000000E+00 -0.30451500871E+03  0.30451500871E+03  0.00000000000E+00 0. -1.
         24    2    1    2    0    0 -0.35314570206E+02  0.47188585790E+02 -0.21357588097E+03  0.23555141021E+03  0.79974548587E+02 0.  0.
         23    2    1    2    0    0  0.32444106121E+02 -0.72728055391E+02 -0.29976138398E+02  0.12353517733E+03  0.89556580452E+02 0.  0.
        -13    1    3    3    0    0  0.90886618021E+01  0.50724376468E+02 -0.84154001804E+02  0.98678580052E+02  0.00000000000E+00 0.  1.
         14    1    3    3    0    0 -0.44403232008E+02 -0.35357906781E+01 -0.12942187916E+03  0.13687283015E+03  0.00000000000E+00 0. -1.
        -11    1    4    4    0    0  0.32036147557E+02 -0.49385595564E+02 -0.60958282298E+02  0.84741748744E+02  0.00000000000E+00 0. -1.
         11    1    4    4    0    0  0.40795856331E+00 -0.23342459827E+02  0.30982143900E+02  0.38793428587E+02  0.00000000000E+00 0.  1.
          1    1    1    2  501    0  0.28704640848E+01  0.25539469601E+02  0.48475523653E+02  0.54866934168E+02  0.00000000000E+00 0. -1.
<scales pt_clust_5="13000.00000" pt_clust_6="13000.00000" pt_clust_7="13000.00000" pt_clust_8="13000.00000" pt_clust_9="25.70027"></scales>
<clustering>
<clus scale="   25.700">  1  9  2 -1</clus>
<clus scale="   79.975">  5  6 -1 -1</clus>
<clus scale="   89.557">  7  8 -1 -1</clus>
<clus scale="  101.556">  2  5  1 -1</clus>
<clus scale="   25.700">  1  5  2 -1</clus>
</clustering>
</event>
<event>
 9    2  0.9254368E-005  0.9535957E+02  0.7546771E-02  0.1295971E+00
         21   -1    0    0  501  502  0.00000000000E+00  0.00000000000E+00  0.21102089107E+03  0.21102089107E+03  0.00000000000E+00 0.  1.
         -1   -1    0    0    0  501 -0.00000000000E+00 -0.00000000000E+00 -0.16427782866E+03  0.16427782866E+03  0.00000000000E+00 0.  1.
         23    2    1    2    0    0  0.11899189757E+01  0.37908311818E+02 -0.11620577253E+03  0.15198399072E+03  0.90315534961E+02 0.  0.
         24    2    1    2    0    0  0.15153742008E+02 -0.54312689094E+01  0.32817560193E+02  0.88199880672E+02  0.80268873885E+02 0.  0.
        -13    1    4    4    0    0 -0.14655981066E+00  0.36873045250E+02  0.15382201653E+02  0.39953160994E+02  0.00000000000E+00 0.  1.
         14    1    4    4    0    0  0.15300301819E+02 -0.42304314159E+02  0.17435358540E+02  0.48246719678E+02  0.00000000000E+00 0. -1.
        -13    1    3    3    0    0  0.25817276530E+02  0.20418743478E+01  0.20497884156E+01  0.25978888561E+02  0.00000000000E+00 0. -1.
         13    1    3    3    0    0 -0.24627357555E+02  0.35866437470E+02 -0.11825556095E+03  0.12600510216E+03  0.00000000000E+00 0.  1.
         -2    1    1    2    0  502 -0.16343660984E+02 -0.32477042908E+02  0.13013127475E+03  0.13511484833E+03  0.00000000000E+00 0.  1.
<scales pt_clust_5="13000.00000" pt_clust_6="13000.00000" pt_clust_7="13000.00000" pt_clust_8="13000.00000" pt_clust_9="36.35758"></scales>
<clustering>
<clus scale="   36.358">  1  9  2 -1</clus>
<clus scale="   80.269">  5  6 -1 -1</clus>
<clus scale="   85.905">  1  5  2 -1</clus>
<clus scale="   90.316">  7  8 -1 -1</clus>
<clus scale="   36.358">  1  5  2 -1</clus>
</clustering>
</event>
<event>
 9    2  0.9254368E-005  0.1110928E+03  0.7546771E-02  0.1266030E+00
          2   -1    0    0  502    0 -0.00000000000E+00  0.00000000000E+00  0.73942325962E+03  0.73942325962E+03  0.00000000000E+00 0. -1.
         21   -1    0    0  501  502  0.00000000000E+00 -0.00000000000E+00 -0.56782972507E+02  0.56782972507E+02  0.00000000000E+00 0. -1.
         24    2    1    2    0    0  0.46725115891E+02 -0.53622477087E+00  0.19325679845E+03  0.21390276203E+03  0.78883949348E+02 0.  0.
         23    2    1    2    0    0 -0.78452433030E+02  0.69595796111E+02  0.75317713515E+02  0.16132091322E+03  0.96712563758E+02 0.  0.
        -11    1    3    3    0    0  0.67038092274E+02  0.23935052912E+01  0.11632809755E+03  0.13428350964E+03  0.00000000000E+00 0.  1.
         12    1    3    3    0    0 -0.20312976383E+02 -0.29297300620E+01  0.76928700909E+02  0.79619252391E+02  0.00000000000E+00 0. -1.
        -11    1    4    4    0    0 -0.51791538869E+02  0.93469077832E+02  0.57362302640E+02  0.12128176192E+03  0.00000000000E+00 0. -1.
         11    1    4    4    0    0 -0.26660894160E+02 -0.23873281721E+02  0.17955410875E+02  0.40039151305E+02  0.00000000000E+00 0.  1.
          1    1    1    2  501    0  0.31727317139E+02 -0.69059571340E+02  0.41406577515E+03  0.42098255688E+03  0.00000000000E+00 0. -1.
<scales pt_clust_5="13000.00000" pt_clust_6="13000.00000" pt_clust_7="13000.00000" pt_clust_8="13000.00000" pt_clust_9="75.99903"></scales>
<clustering>
<clus scale="   75.999">  2  9  1 -1</clus>
<clus scale="   78.884">  5  6 -1 -1</clus>
<clus scale="   95.974">  1  5  2 -1</clus>
<clus scale="   96.713">  7  8 -1 -1</clus>
<clus scale="   75.999">  2  5  1 -1</clus>
</clustering>
</event>
<event>
 9    2  0.1361220E-004  0.9524106E+02  0.7546771E-02  0.1293654E+00
         21   -1    0    0  501  502  0.00000000000E+00  0.00000000000E+00  0.15717508447E+03  0.15717508447E+03  0.00000000000E+00 0. -1.
          2   -1    0    0  502    0 -0.00000000000E+00 -0.00000000000E+00 -0.63342620934E+03  0.63342620934E+03  0.00000000000E+00 0. -1.
         24    2    1    2    0    0 -0.35423711906E+02  0.18587379738E+02 -0.59989625002E+03  0.60660980960E+03  0.80620222446E+02 0.  0.
         23    2    1    2    0    0  0.50352771073E+02  0.77372385563E+01  0.69735929915E+02  0.12216864323E+03  0.86410711442E+02 0.  0.
        -11    1    3    3    0    0 -0.21256106400E+02  0.57940096319E+01 -0.34777595557E+02  0.41168844526E+02  0.00000000000E+00 0.  1.
         12    1    3    3    0    0 -0.14167605506E+02  0.12793370106E+02 -0.56511865446E+03  0.56544096508E+03  0.00000000000E+00 0. -1.
        -11    1    4    4    0    0 -0.16762678659E+02 -0.15239569708E+02  0.38469229051E+02  0.44644299350E+02  0.00000000000E+00 0.  1.
         11    1    4    4    0    0  0.67115449732E+02  0.22976808265E+02  0.31266700864E+02  0.77524343877E+02  0.00000000000E+00 0. -1.
          1    1    1    2  501    0 -0.14929059168E+02 -0.26324618294E+02  0.53909195235E+02  0.61822840981E+02  0.00000000000E+00 0. -1.
<scales pt_clust_5="13000.00000" pt_clust_6="13000.00000" pt_clust_7="13000.00000" pt_clust_8="13000.00000" pt_clust_9="30.26322"></scales>
<clustering>
<clus scale="   30.263">  1  9  2 -1</clus>
<clus scale="   80.620">  5  6 -1 -1</clus>
<clus scale="   86.411">  7  8 -1 -1</clus>
<clus scale="   90.020">  2  5  1 -1</clus>
<clus scale="   30.263">  1  5  2 -1</clus>
</clustering>
</event>
<event>
 9    2  0.9254368E-005  0.9334216E+02  0.7546771E-02  0.1300376E+00
          2   -1    0    0  502    0 -0.00000000000E+00  0.00000000000E+00  0.21297227458E+03  0.21297227458E+03  0.00000000000E+00 0. -1.
         21   -1    0    0  501  502  0.00000000000E+00 -0.00000000000E+00 -0.89437693791E+02  0.89437693791E+02  0.00000000000E+00 0. -1.
         23    2    1    2    0    0 -0.91156627597E+01 -0.20303068257E+02  0.11225033961E+03  0.14516262712E+03  0.89312595315E+02 0.  0.
         24    2    1    2    0    0  0.24696903458E+02  0.41184217705E+02 -0.38623528380E+02  0.10094829218E+03  0.79954386501E+02 0.  0.
        -11    1    4    4    0    0  0.41196460063E+02 -0.70682458955E+01 -0.22471297429E+02  0.47455954630E+02  0.00000000000E+00 0.  1.
         12    1    4    4    0    0 -0.16499556604E+02  0.48252463600E+02 -0.16152230952E+02  0.53492337548E+02  0.00000000000E+00 0. -1.
        -13    1    3    3    0    0  0.34349800193E+02 -0.20778679137E+02  0.84609580941E+02  0.93650645844E+02  0.00000000000E+00 0. -1.
         13    1    3    3    0    0 -0.43465462952E+02  0.47561087938E+00  0.27640758672E+02  0.51511981280E+02  0.00000000000E+00 0.  1.
          1    1    1    2  501    0 -0.15581240698E+02 -0.20881149448E+02  0.49907769557E+02  0.56299049069E+02  0.00000000000E+00 0. -1.
<scales pt_clust_5="13000.00000" pt_clust_6="13000.00000" pt_clust_7="13000.00000" pt_clust_8="13000.00000" pt_clust_9="26.05375"></scales>
<clustering>
<clus scale="   26.054">  2  9  1 -1</clus>
<clus scale="   79.954">  5  6 -1 -1</clus>
<clus scale="   84.432">  2  5  1 -1</clus>
<clus scale="   89.313">  7  8 -1 -1</clus>
<clus scale="   26.054">  2  5  1 -1</clus>
</clustering>
</event>
<event>
 9    2  0.9254368E-005  0.3149661E+03  0.7546771E-02  0.1077990E+00
          2   -1    0    0  502    0 -0.00000000000E+00  0.00000000000E+00  0.68740585689E+03  0.68740585689E+03  0.00000000000E+00 0. -1.
         21   -1    0    0  501  502  0.00000000000E+00 -0.00000000000E+00 -0.15404270822E+03  0.15404270822E+03  0.00000000000E+00 0.  1.
         24    2    1    2    0    0 -0.22645377202E+02 -0.17784935985E+02  0.51646543102E+02  0.10995143487E+03  0.92697548827E+02 0.  0.
         23    2    1    2    0    0 -0.18487437615E+03 -0.49878108589E+02  0.89712867102E+01  0.21079484282E+03  0.87679080181E+02 0.  0.
        -11    1    3    3    0    0 -0.20090591205E+02 -0.46783457788E+02  0.60923910575E+02  0.79398026785E+02  0.00000000000E+00 0.  1.
         12    1    3    3    0    0 -0.25547859975E+01  0.28998521804E+02 -0.92773674728E+01  0.30553408083E+02  0.00000000000E+00 0. -1.
        -13    1    4    4    0    0 -0.32466908928E+02 -0.23871856838E+02 -0.31299768084E+02  0.51025887610E+02  0.00000000000E+00 0.  1.
         13    1    4    4    0    0 -0.15240746722E+03 -0.26006251750E+02  0.40271054794E+02  0.15976895521E+03  0.00000000000E+00 0. -1.
          1    1    1    2  501    0  0.20751975335E+03  0.67663044574E+02  0.47274531886E+03  0.52070228743E+03  0.00000000000E+00 0. -1.
<scales pt_clust_5="13000.00000" pt_clust_6="13000.00000" pt_clust_7="13000.00000" pt_clust_8="13000.00000" pt_clust_9="218.27227"></scales>
<clustering>
<clus scale="   87.679">  7  8 -1 -1</clus>
<clus scale="   92.698">  5  6 -1 -1</clus>
<clus scale="   93.411">  5  7 -1 -1</clus>
<clus scale="  218.272">  2  9  1 -1</clus>
<clus scale="  218.272">  2  5  1 -1</clus>
</clustering>
</event>
<event>
 9    2  0.9254368E-005  0.2093319E+03  0.7546771E-02  0.1168225E+00
         21   -1    0    0  501  502  0.00000000000E+00  0.00000000000E+00  0.29827920705E+03  0.29827920705E+03  0.00000000000E+00 0. -1.
          2   -1    0    0  502    0 -0.00000000000E+00 -0.00000000000E+00 -0.49636415834E+03  0.49636415834E+03  0.00000000000E+00 0. -1.
         24    2    1    2    0    0  0.74703398951E+02  0.29287676531E+02 -0.15074882456E+03  0.18860231886E+03  0.80045366891E+02 0.  0.
         23    2    1    2    0    0 -0.11126707344E+03  0.15776781298E+03 -0.24965310638E+03  0.32808634032E+03  0.89682376975E+02 0.  0.
        -13    1    3    3    0    0 -0.52809115504E+00 -0.22019399182E+02 -0.24586891987E+02  0.33009817906E+02  0.00000000000E+00 0.  1.
         14    1    3    3    0    0  0.75231490106E+02  0.51307075713E+02 -0.12616193257E+03  0.15559250095E+03  0.00000000000E+00 0. -1.
        -13    1    4    4    0    0 -0.31204107925E+02  0.18022517680E+01 -0.72014925945E+02  0.78505375750E+02  0.00000000000E+00 0.  1.
         13    1    4    4    0    0 -0.80062965512E+02  0.15596556121E+03 -0.17763818043E+03  0.24958096457E+03  0.00000000000E+00 0. -1.
          1    1    1    2  501    0  0.36563674486E+02 -0.18705548951E+03  0.20231697966E+03  0.27795470621E+03  0.00000000000E+00 0. -1.
<scales pt_clust_5="13000.00000" pt_clust_6="13000.00000" pt_clust_7="13000.00000" pt_clust_8="13000.00000" pt_clust_9="189.14792"></scales>
<clustering>
<clus scale="   80.045">  5  6 -1 -1</clus>
<clus scale="   89.682">  7  8 -1 -1</clus>
<clus scale="  113.339">  2  5  1 -1</clus>
<clus scale="  189.148">  1  9  2 -1</clus>
<clus scale="  189.148">  1  5  2 -1</clus>
</clustering>
</event>
<event>
 9    2  0.9254368E-005  0.1201841E+03  0.7546771E-02  0.1245399E+00
         21   -1    0    0  501  502  0.00000000000E+00  0.00000000000E+00  0.42097159652E+03  0.42097159652E+03  0.00000000000E+00 0. -1.
          4   -1    0    0  502    0 -0.00000000000E+00 -0.00000000000E+00 -0.56907157490E+02  0.56907157490E+02  0.00000000000E+00 0. -1.
         23    2    1    2    0    0  0.68748412625E+02  0.49330086010E+02  0.79276485254E+02  0.14775345271E+03  0.91577945209E+02 0.  0.
         24    2    1    2    0    0 -0.20955713766E+02 -0.73194823083E+02  0.20669644436E+03  0.23551054779E+03  0.83337710206E+02 0.  0.
        -11    1    4    4    0    0 -0.42084661299E+02 -0.71483658828E+02  0.19352424604E+03  0.21055323792E+03  0.00000000000E+00 0.  1.
         12    1    4    4    0    0  0.21128947533E+02 -0.17111642560E+01  0.13172198323E+02  0.24957309864E+02  0.00000000000E+00 0. -1.
        -11    1    3    3    0    0  0.51063824105E+02 -0.47428745379E+01  0.74792184376E+02  0.90685609855E+02  0.00000000000E+00 0.  1.
         11    1    3    3    0    0  0.17684588520E+02  0.54072960548E+02  0.44843008785E+01  0.57067842853E+02  0.00000000000E+00 0. -1.
          3    1    1    2  501    0 -0.47792698859E+02  0.23864737073E+02  0.78091509419E+02  0.94614753518E+02  0.00000000000E+00 0. -1.
<scales pt_clust_5="13000.00000" pt_clust_6="13000.00000" pt_clust_7="13000.00000" pt_clust_8="13000.00000" pt_clust_9="53.41973"></scales>
<clustering>
<clus scale="   53.420">  1  9  2 -1</clus>
<clus scale="   83.338">  5  6 -1 -1</clus>
<clus scale="   91.578">  7  8 -1 -1</clus>
<clus scale="  114.030">  1  5  2 -1</clus>
<clus scale="   53.420">  1  5  2 -1</clus>
</clustering>
</event>
<event>
 9    2  0.9254368E-005  0.1902918E+03  0.7546771E-02  0.1159523E+00
         21   -1    0    0  501  502  0.00000000000E+00  0.00000000000E+00  0.39621326131E+03  0.39621326131E+03  0.00000000000E+00 0.  1.
         -1   -1    0    0    0  501 -0.00000000000E+00 -0.00000000000E+00 -0.16051318800E+03  0.16051318800E+03  0.00000000000E+00 0.  1.
         24    2    1    2    0    0  0.18961213003E+03 -0.40836567224E+02 -0.72790360118E+01  0.21024405837E+03  0.80803432069E+02 0.  0.
         23    2    1    2    0    0 -0.11532052588E+03 -0.18585536534E+02  0.17143903107E+03  0.22745209372E+03  0.93267720598E+02 0.  0.
        -13    1    3    3    0    0  0.18887699745E+03 -0.20875694037E+02 -0.45278771768E+01  0.19008107859E+03  0.00000000000E+00 0.  1.
         14    1    3    3    0    0  0.73513258190E+00 -0.19960873187E+02 -0.27511588350E+01  0.20162979771E+02  0.00000000000E+00 0. -1.
        -13    1    4    4    0    0 -0.59775638125E+02  0.20500431154E+02  0.13792980416E+03  0.15171692544E+03  0.00000000000E+00 0. -1.
         13    1    4    4    0    0 -0.55544887750E+02 -0.39085967688E+02  0.33509226913E+02  0.75735168275E+02  0.00000000000E+00 0.  1.
         -2    1    1    2    0  502 -0.74291604158E+02  0.59422103758E+02  0.71540078250E+02  0.11903029723E+03  0.00000000000E+00 0.  1.
<scales pt_clust_5="13000.00000" pt_clust_6="13000.00000" pt_clust_7="13000.00000" pt_clust_8="13000.00000" pt_clust_9="95.13269"></scales>
<clustering>
<clus scale="   80.803">  5  6 -1 -1</clus>
<clus scale="   93.268">  7  8 -1 -1</clus>
<clus scale="   95.133">  1  9  2 -1</clus>
<clus scale="  184.503">  2  5  1 -1</clus>
<clus scale="   95.133">  1  5  2 -1</clus>
</clustering>
</event>
<event>
 9    2  0.9254368E-005  0.9293148E+02  0.7546771E-02  0.1303310E+00
         21   -1    0    0  501  502  0.00000000000E+00  0.00000000000E+00  0.10378098843E+02  0.10378098843E+02  0.00000000000E+00 0.  1.
          2   -1    0    0  502    0 -0.00000000000E+00 -0.00000000000E+00 -0.12416334582E+04  0.12416334582E+04  0.00000000000E+00 0. -1.
         24    2    1    2    0    0  0.10029809512E+02 -0.13196977644E+01 -0.78189437874E+03  0.78604615295E+03  0.80046214096E+02 0.  0.
         23    2    1    2    0    0 -0.22008244280E+02 -0.15686758508E+02 -0.29491370849E+03  0.31012361790E+03  0.92044150902E+02 0.  0.
        -13    1    3    3    0    0 -0.27224163038E+02  0.85989846444E+01 -0.13409139572E+03  0.13709704590E+03  0.00000000000E+00 0.  1.
         14    1    3    3    0    0  0.37253972550E+02 -0.99186824088E+01 -0.64780298302E+03  0.64894910705E+03  0.00000000000E+00 0. -1.
        -11    1    4    4    0    0 -0.27566720363E+02 -0.52049036854E+02 -0.19217914486E+03  0.20100211449E+03  0.00000000000E+00 0.  1.
         11    1    4    4    0    0  0.55584760833E+01  0.36362278346E+02 -0.10273456362E+03  0.10912150341E+03  0.00000000000E+00 0. -1.
          1    1    1    2  501    0  0.11978434768E+02  0.17006456272E+02 -0.15444727216E+03  0.15584178622E+03  0.00000000000E+00 0. -1.
<scales pt_clust_5="13000.00000" pt_clust_6="13000.00000" pt_clust_7="13000.00000" pt_clust_8="13000.00000" pt_clust_9="20.80151"></scales>
<clustering>
<clus scale="   20.802">  1  9  2 -1</clus>
<clus scale="   80.046">  5  6 -1 -1</clus>
<clus scale="   81.065">  2  5  1 -1</clus>
<clus scale="   92.044">  7  8 -1 -1</clus>
<clus scale="   20.802">  1  5  2 -1</clus>
</clustering>
</event>
<event>
 9    2  0.9254368E-005  0.8960688E+02  0.7546771E-02  0.1311044E+00
          2   -1    0    0  502    0 -0.00000000000E+00  0.00000000000E+00  0.14543156915E+03  0.14543156915E+03  0.00000000000E+00 0. -1.
         21   -1    0    0  501  502  0.00000000000E+00 -0.00000000000E+00 -0.31398382334E+03  0.31398382334E+03  0.00000000000E+00 0.  1.
         23    2    1    2    0    0  0.22321972757E+02 -0.41784674280E+01 -0.15559688698E+02  0.90287941228E+02  0.85988826954E+02 0.  0.
         24    2    1    2    0    0 -0.37216513201E+02 -0.43460763433E+02 -0.24615504366E+03  0.26343643466E+03  0.74381064649E+02 0.  0.
        -11    1    4    4    0    0 -0.74780600286E+01 -0.58507483304E+02 -0.13338390563E+03  0.14584345466E+03  0.00000000000E+00 0.  1.
         12    1    4    4    0    0 -0.29738453173E+02  0.15046719871E+02 -0.11277113802E+03  0.11759298001E+03  0.00000000000E+00 0. -1.
        -11    1    3    3    0    0  0.16038471842E+02 -0.44923227914E+02 -0.76617871956E+01  0.48311820171E+02  0.00000000000E+00 0. -1.
         11    1    3    3    0    0  0.62835009151E+01  0.40744760486E+02 -0.78979015023E+01  0.41976121056E+02  0.00000000000E+00 0.  1.
          1    1    1    2  501    0  0.14894540444E+02  0.47639230861E+02  0.93162478162E+02  0.10569101660E+03  0.00000000000E+00 0. -1.
<scales pt_clust_5="13000.00000" pt_clust_6="13000.00000" pt_clust_7="13000.00000" pt_clust_8="13000.00000" pt_clust_9="49.91339"></scales>
<clustering>
<clus scale="   49.913">  2  9  1 -1</clus>
<clus scale="   74.381">  5  6 -1 -1</clus>
<clus scale="   78.536">  2  5  1 -1</clus>
<clus scale="   85.989">  7  8 -1 -1</clus>
<clus scale="   49.913">  2  5  1 -1</clus>
</clustering>
</event>
<event>
 9    2  0.9254368E-005  0.1123598E+03  0.7546771E-02  0.1259054E+00
         21   -1    0    0  501  502  0.00000000000E+00  0.00000000000E+00  0.32800159375E+02  0.32800159375E+02  0.00000000000E+00 0. -1.
          2   -1    0    0  502    0 -0.00000000000E+00 -0.00000000000E+00 -0.65409321613E+03  0.65409321613E+03  0.00000000000E+00 0. -1.
         24    2    1    2    0    0  0.81064694207E+02  0.12858541525E+02 -0.35660461963E+03  0.37468406519E+03  0.80526189706E+02 0.  0.
         23    2    1    2    0    0 -0.40274081407E+02 -0.45950013903E+02 -0.21284823971E+03  0.23841008468E+03  0.88326609336E+02 0.  0.
        -11    1    3    3    0    0 -0.64284862741E+01  0.24195846059E+02 -0.10878684721E+03  0.11163038353E+03  0.00000000000E+00 0.  1.
         12    1    3    3    0    0  0.87493180481E+02 -0.11337304535E+02 -0.24781777242E+03  0.26305368166E+03  0.00000000000E+00 0. -1.
        -13    1    4    4    0    0 -0.14850650933E+02  0.25053648844E+02 -0.37120504040E+02  0.47182189158E+02  0.00000000000E+00 0.  1.
         13    1    4    4    0    0 -0.25423430475E+02 -0.71003662747E+02 -0.17572773567E+03  0.19122789552E+03  0.00000000000E+00 0. -1.
          1    1    1    2  501    0 -0.40790612800E+02  0.33091472378E+02 -0.51840197408E+02  0.73799225633E+02  0.00000000000E+00 0. -1.
<scales pt_clust_5="13000.00000" pt_clust_6="13000.00000" pt_clust_7="13000.00000" pt_clust_8="13000.00000" pt_clust_9="52.52542"></scales>
<clustering>
<clus scale="   52.525">  1  9  2 -1</clus>
<clus scale="   80.526">  5  6 -1 -1</clus>
<clus scale="   88.327">  7  8 -1 -1</clus>
<clus scale="  106.337">  2  5  1 -1</clus>
<clus scale="   52.525">  1  5  2 -1</clus>
</clustering>
</event>
<event>
 9    2  0.9254368E-005  0.1050237E+03  0.7546771E-02  0.1275538E+00
         21   -1    0    0  501  502  0.00000000000E+00  0.00000000000E+00  0.24944367263E+03  0.24944367263E+03  0.00000000000E+00 0.  1.
         -3   -1    0    0    0  501 -0.00000000000E+00 -0.00000000000E+00 -0.27175767908E+03  0.27175767908E+03  0.00000000000E+00 0.  1.
         23    2    1    2    0    0  0.88379536902E+01 -0.46942517811E+02 -0.21522696176E+03  0.23933726954E+03  0.93155644600E+02 0.  0.
         24    2    1    2    0    0  0.64321944952E+02  0.68093411870E+02  0.14955397870E+03  0.19423000238E+03  0.81147248481E+02 0.  0.
        -13    1    4    4    0    0  0.31202870644E+02  0.45302582994E+02  0.14336138856E+03  0.15355269745E+03  0.00000000000E+00 0.  1.
         14    1    4    4    0    0  0.33119074308E+02  0.22790828876E+02  0.61925901378E+01  0.40677304932E+02  0.00000000000E+00 0. -1.
        -13    1    3    3    0    0  0.40397974954E+02  0.67681838178E+01 -0.66677851548E+02  0.78254332657E+02  0.00000000000E+00 0. -1.
         13    1    3    3    0    0 -0.31560021263E+02 -0.53710701629E+02 -0.14854911021E+03  0.16108293689E+03  0.00000000000E+00 0.  1.
         -4    1    1    2    0  502 -0.73159898642E+02 -0.21150894058E+02  0.43358976612E+02  0.87634079796E+02  0.00000000000E+00 0.  1.
<scales pt_clust_5="13000.00000" pt_clust_6="13000.00000" pt_clust_7="13000.00000" pt_clust_8="13000.00000" pt_clust_9="76.15597"></scales>
<clustering>
<clus scale="   76.156">  1  9  2 -1</clus>
<clus scale="   81.147">  5  6 -1 -1</clus>
<clus scale="   93.156">  7  8 -1 -1</clus>
<clus scale="   94.535">  1  5  2 -1</clus>
<clus scale="   76.156">  1  5  2 -1</clus>
</clustering>
</event>
<event>
 9    2  0.9254368E-005  0.3470316E+03  0.7546771E-02  0.1113964E+00
          4   -1    0    0  502    0 -0.00000000000E+00  0.00000000000E+00  0.54781604210E+03  0.54781604210E+03  0.00000000000E+00 0. -1.
         21   -1    0    0  501  502  0.00000000000E+00 -0.00000000000E+00 -0.33590833305E+03  0.33590833305E+03  0.00000000000E+00 0. -1.
         24    2    1    2    0    0  0.41234181263E+02 -0.31328030861E+01  0.12526914684E+03  0.15537515860E+03  0.82091464850E+02 0.  0.
         23    2    1    2    0    0  0.31665824827E+03  0.53245575977E+02 -0.58690137286E+02  0.33883835401E+03  0.90881023190E+02 0.  0.
        -13    1    3    3    0    0 -0.70495453913E+01  0.28675139217E+02  0.21297273080E+02  0.36407877444E+02  0.00000000000E+00 0.  1.
         14    1    3    3    0    0  0.48283726654E+02 -0.31807942303E+02  0.10397187376E+03  0.11896728116E+03  0.00000000000E+00 0. -1.
        -13    1    4    4    0    0  0.35892096024E+02  0.18539193081E+02  0.20165554373E+02  0.45150789808E+02  0.00000000000E+00 0.  1.
         13    1    4    4    0    0  0.28076615225E+03  0.34706382895E+02 -0.78855691659E+02  0.29368756421E+03  0.00000000000E+00 0. -1.
          3    1    1    2  501    0 -0.35789242954E+03 -0.50112772890E+02  0.14532869949E+03  0.38951086252E+03  0.00000000000E+00 0. -1.
<scales pt_clust_5="13000.00000" pt_clust_6="13000.00000" pt_clust_7="13000.00000" pt_clust_8="13000.00000" pt_clust_9="334.92044"></scales>
<clustering>
<clus scale="   82.091">  5  6 -1 -1</clus>
<clus scale="   90.881">  7  8 -1 -1</clus>
<clus scale="   91.919">  1  5  2 -1</clus>
<clus scale="  334.920">  2  9  1 -1</clus>
<clus scale="  334.920">  2  5  1 -1</clus>
</clustering>
</event>
<event>
 9    2  0.9254368E-005  0.9508059E+02  0.7546771E-02  0.1299779E+00
         21   -1    0    0  501  502  0.00000000000E+00  0.00000000000E+00  0.17818886184E+03  0.17818886184E+03  0.00000000000E+00 0.  1.
          2   -1    0    0  502    0 -0.00000000000E+00 -0.00000000000E+00 -0.14819093058E+03  0.14819093058E+03  0.00000000000E+00 0. -1.
         23    2    1    2    0    0  0.35366407856E+01  0.26194890122E+02 -0.83381521462E+02  0.12713041804E+03  0.92254999715E+02 0.  0.
         24    2    1    2    0    0  0.12031018072E+02 -0.80793546727E+00  0.13926262327E+03  0.15979322168E+03  0.77423493202E+02 0.  0.
        -13    1    4    4    0    0  0.39917519221E+02  0.47129294853E+01  0.11692006461E+03  0.12363624693E+03  0.00000000000E+00 0.  1.
         14    1    4    4    0    0 -0.27886501148E+02 -0.55208649526E+01  0.22342558660E+02  0.36156974757E+02  0.00000000000E+00 0. -1.
        -11    1    3    3    0    0 -0.43856006247E+02  0.19875795910E+02 -0.42499174589E+02  0.64222864991E+02  0.00000000000E+00 0.  1.
         11    1    3    3    0    0  0.47392647032E+02  0.63190942123E+01 -0.40882346873E+02  0.62907553046E+02  0.00000000000E+00 0. -1.
          1    1    1    2  501    0 -0.15567658858E+02 -0.25386954655E+02 -0.25883170549E+02  0.39456152710E+02  0.00000000000E+00 0. -1.
<scales pt_clust_5="13000.00000" pt_clust_6="13000.00000" pt_clust_7="13000.00000" pt_clust_8="13000.00000" pt_clust_9="29.78003"></scales>
<clustering>
<clus scale="   29.780">  1  9  2 -1</clus>
<clus scale="   77.423">  5  6 -1 -1</clus>
<clus scale="   80.770">  1  5  2 -1</clus>
<clus scale="   92.255">  7  8 -1 -1</clus>
<clus scale="   29.780">  1  5  2 -1</clus>
</clustering>
</event>
<event>
 9    2  0.9254368E-005  0.1453086E+03  0.7546771E-02  0.1208905E+00
          4   -1    0    0  502    0 -0.00000000000E+00  0.00000000000E+00  0.77013432896E+03  0.77013432896E+03  0.00000000000E+00 0. -1.
         21   -1    0    0  501  502  0.00000000000E+00 -0.00000000000E+00 -0.21780254177E+03  0.21780254177E+03  0.00000000000E+00 0. -1.
         23    2    1    2    0    0 -0.50140289813E+02 -0.91510239700E+02  0.61909246475E+03  0.63476680927E+03  0.93622911734E+02 0.  0.
         24    2    1    2    0    0  0.10248988679E+03  0.13410526409E+03  0.70590720029E+02  0.20013338995E+03  0.81129065501E+02 0.  0.
        -11    1    4    4    0    0 -0.50293362462E+01  0.48568589256E+02  0.93769155855E+01  0.49720505139E+02  0.00000000000E+00 0.  1.
         12    1    4    4    0    0  0.10751922303E+03  0.85536674837E+02  0.61213804443E+02  0.15041288481E+03  0.00000000000E+00 0. -1.
        -11    1    3    3    0    0 -0.74046519668E+02 -0.89519217383E+02  0.51774042355E+03  0.53061447732E+03  0.00000000000E+00 0.  1.
         11    1    3    3    0    0  0.23906229855E+02 -0.19910223170E+01  0.10135204120E+03  0.10415233195E+03  0.00000000000E+00 0. -1.
          3    1    1    2  501    0 -0.52349596973E+02 -0.42595024393E+02 -0.13735139759E+03  0.15303667151E+03  0.00000000000E+00 0. -1.
<scales pt_clust_5="13000.00000" pt_clust_6="13000.00000" pt_clust_7="13000.00000" pt_clust_8="13000.00000" pt_clust_9="67.48938"></scales>
<clustering>
<clus scale="   67.489">  2  9  1 -1</clus>
<clus scale="   81.129">  5  6 -1 -1</clus>
<clus scale="   93.623">  7  8 -1 -1</clus>
<clus scale="  137.591">  2  5  1 -1</clus>
<clus scale="   67.489">  2  5  1 -1</clus>
</clustering>
</event>
<event>
 9    2  0.9254368E-005  0.1901623E+03  0.7546771E-02  0.1159296E+00
         21   -1    0    0  501  502  0.00000000000E+00  0.00000000000E+00  0.58339238670E+03  0.58339238670E+03  0.00000000000E+00 0. -1.
          2   -1    0    0  502    0 -0.00000000000E+00 -0.00000000000E+00 -0.11353494395E+03  0.11353494395E+03  0.00000000000E+00 0. -1.
         24    2    1    2    0    0  0.17234534096E+03 -0.10312654501E+03  0.71912305848E+02  0.22866614537E+03  0.82333622948E+02 0.  0.
         23    2    1    2    0    0 -0.10831699940E+03  0.52121940683E+02  0.17764967176E+03  0.23324801513E+03  0.91629480116E+02 0.  0.
        -13    1    3    3    0    0  0.76619826048E+02 -0.83381177691E+02  0.65263683233E+02  0.13069952902E+03  0.00000000000E+00 0.  1.
         14    1    3    3    0    0  0.95725514911E+02 -0.19745367321E+02  0.66486226142E+01  0.97966616346E+02  0.00000000000E+00 0. -1.
        -11    1    4    4    0    0 -0.62725267316E+01  0.47761757156E+02  0.68734294627E+02  0.83934100913E+02  0.00000000000E+00 0. -1.
         11    1    4    4    0    0 -0.10204447267E+03  0.43601835261E+01  0.10891537713E+03  0.14931391422E+03  0.00000000000E+00 0.  1.
          1    1    1    2  501    0 -0.64028341555E+02  0.51004604329E+02  0.22029546514E+03  0.23501317015E+03  0.00000000000E+00 0. -1.
<scales pt_clust_5="13000.00000" pt_clust_6="13000.00000" pt_clust_7="13000.00000" pt_clust_8="13000.00000" pt_clust_9="81.86024"></scales>
<clustering>
<clus scale="   81.860">  1  9  2 -1</clus>
<clus scale="   82.334">  5  6 -1 -1</clus>
<clus scale="   91.629">  7  8 -1 -1</clus>
<clus scale="  185.862">  2  5  1 -1</clus>
<clus scale="   81.860">  1  5  2 -1</clus>
</clustering>
</event>
<event>
 9    2  0.9254368E-005  0.1182613E+03  0.7546771E-02  0.1248649E+00
         21   -1    0    0  501  502  0.00000000000E+00  0.00000000000E+00  0.18467688712E+03  0.18467688712E+03  0.00000000000E+00 0.  1.
         -1   -1    0    0    0  501 -0.00000000000E+00 -0.00000000000E+00 -0.16119676672E+03  0.16119676672E+03  0.00000000000E+00 0.  1.
         23    2    1    2    0    0 -0.59536091582E+01  0.80984925752E+02 -0.10011746264E+03  0.15810731093E+03  0.91544589046E+02 0.  0.
         24    2    1    2    0    0 -0.22052579613E+02 -0.52420772584E+02  0.82452809299E+02  0.13038037023E+03  0.83464492530E+02 0.  0.
        -11    1    4    4    0    0 -0.47032054568E+02 -0.58686187772E+02  0.59852090475E+02  0.96116364508E+02  0.00000000000E+00 0.  1.
         12    1    4    4    0    0  0.24979474955E+02  0.62654151879E+01  0.22600718824E+02  0.34264005718E+02  0.00000000000E+00 0. -1.
        -13    1    3    3    0    0 -0.46640756230E+02  0.45674226161E+02 -0.36673562730E+02  0.74876199692E+02  0.00000000000E+00 0. -1.
         13    1    3    3    0    0  0.40687147072E+02  0.35310699591E+02 -0.63443899907E+02  0.83231111237E+02  0.00000000000E+00 0.  1.
         -2    1    1    2    0  502  0.28006188771E+02 -0.28564153168E+02  0.41144773739E+02  0.57385972691E+02  0.00000000000E+00 0.  1.
<scales pt_clust_5="13000.00000" pt_clust_6="13000.00000" pt_clust_7="13000.00000" pt_clust_8="13000.00000" pt_clust_9="40.00322"></scales>
<clustering>
<clus scale="   40.003">  1  9  2 -1</clus>
<clus scale="   83.464">  5  6 -1 -1</clus>
<clus scale="   91.545">  7  8 -1 -1</clus>
<clus scale="  112.123">  1  5  2 -1</clus>
<clus scale="   40.003">  1  5  2 -1</clus>
</clustering>
</event>
<event>
 9    2  0.9254368E-005  0.1683031E+03  0.7546771E-02  0.1181002E+00
          2   -1    0    0  502    0 -0.00000000000E+00  0.00000000000E+00  0.13414959920E+04  0.13414959920E+04  0.00000000000E+00 0. -1.
         21   -1    0    0  501  502  0.00000000000E+00 -0.00000000000E+00 -0.47842042156E+03  0.47842042156E+03  0.00000000000E+00 0. -1.
         24    2    1    2    0    0 -0.11697552127E+03 -0.69843061104E+02  0.11150401798E+04  0.11262438991E+04  0.80928313902E+02 0.  0.
         23    2    1    2    0    0  0.14075509362E+03  0.14964964637E+03  0.15846123500E+03  0.27488386505E+03  0.90797374551E+02 0.  0.
        -13    1    3    3    0    0 -0.33912704707E+02 -0.53697920270E+02  0.28983860047E+03  0.29671527177E+03  0.00000000000E+00 0.  1.
         14    1    3    3    0    0 -0.83062816562E+02 -0.16145140833E+02  0.82520157932E+03  0.82952862735E+03  0.00000000000E+00 0. -1.
        -11    1    4    4    0    0  0.14433323757E+03  0.12203935857E+03  0.15906345839E+03  0.24703617610E+03  0.00000000000E+00 0.  1.
         11    1    4    4    0    0 -0.35781439462E+01  0.27610287804E+02 -0.60222338989E+00  0.27847688947E+02  0.00000000000E+00 0. -1.
          1    1    1    2  501    0 -0.23779572354E+02 -0.79806585269E+02 -0.41042584438E+03  0.41878864937E+03  0.00000000000E+00 0. -1.
<scales pt_clust_5="13000.00000" pt_clust_6="13000.00000" pt_clust_7="13000.00000" pt_clust_8="13000.00000" pt_clust_9="83.27400"></scales>
<clustering>
<clus scale="   80.928">  5  6 -1 -1</clus>
<clus scale="   83.274">  2  9  1 -1</clus>
<clus scale="   90.797">  7  8 -1 -1</clus>
<clus scale="  163.191">  1  5  2 -1</clus>
<clus scale="   83.274">  2  5  1 -1</clus>
</clustering>
</event>
<event>
 9    2  0.9254368E-005  0.2753110E+03  0.7546771E-02  0.1099685E+00
         21   -1    0    0  501  502  0.00000000000E+00  0.00000000000E+00  0.78916015354E+02  0.78916015354E+02  0.00000000000E+00 0.  1.
          2   -1    0    0  502    0 -0.00000000000E+00 -0.00000000000E+00 -0.16246389929E+04  0.16246389929E+04  0.00000000000E+00 0. -1.
         24    2    1    2    0    0  0.86425824070E+02 -0.27477692270E+03 -0.87981161624E+03  0.92927305082E+03  0.80673059858E+02 0.  0.
         23    2    1    2    0    0 -0.15178535992E+03  0.14897015342E+03 -0.31160792935E+03  0.39266679262E+03  0.10888896317E+03 0.  0.
        -13    1    3    3    0    0  0.23684039835E+02 -0.16419754562E+03 -0.40320350967E+03  0.43599866736E+03  0.00000000000E+00 0.  1.
         14    1    3    3    0    0  0.62741784235E+02 -0.11057937708E+03 -0.47660810657E+03  0.49327438346E+03  0.00000000000E+00 0. -1.
        -13    1    4    4    0    0 -0.11760015135E+03  0.14658709060E+03 -0.19371547775E+03  0.26989490000E+03  0.00000000000E+00 0.  1.
         13    1    4    4    0    0 -0.34185208563E+02  0.23830628226E+01 -0.11789245160E+03  0.12277189262E+03  0.00000000000E+00 0. -1.
          1    1    1    2  501    0  0.65359535846E+02  0.12580676928E+03 -0.35430343193E+03  0.38161516480E+03  0.00000000000E+00 0. -1.
<scales pt_clust_5="13000.00000" pt_clust_6="13000.00000" pt_clust_7="13000.00000" pt_clust_8="13000.00000" pt_clust_9="141.77176"></scales>
<clustering>
<clus scale="   80.673">  5  6 -1 -1</clus>
<clus scale="  108.889">  7  8 -1 -1</clus>
<clus scale="  141.772">  1  9  2 -1</clus>
<clus scale="  265.419">  2  5  1 -1</clus>
<clus scale="  141.772">  1  5  2 -1</clus>
</clustering>
</event>
<event>
 9    2  0.9254368E-005  0.1187768E+03  0.7546771E-02  0.1248104E+00
          2   -1    0    0  502    0 -0.00000000000E+00  0.00000000000E+00  0.21312738675E+03  0.21312738675E+03  0.00000000000E+00 0. -1.
         21   -1    0    0  501  502  0.00000000000E+00 -0.00000000000E+00 -0.15254718705E+03  0.15254718705E+03  0.00000000000E+00 0.  1.
         24    2    1    2    0    0 -0.51613637167E+01  0.89179439415E+02  0.13161252033E+03  0.17925601055E+03  0.82651374591E+02 0.  0.
         23    2    1    2    0    0 -0.33811781128E+02 -0.31652155686E+02 -0.39598426573E+02  0.11015334124E+03  0.91763978212E+02 0.  0.
        -11    1    3    3    0    0  0.18459226094E+02  0.95466901656E+02  0.10651486554E+03  0.14422235929E+03  0.00000000000E+00 0.  1.
         12    1    3    3    0    0 -0.23620589811E+02 -0.62874622407E+01  0.25097654788E+02  0.35033651256E+02  0.00000000000E+00 0. -1.
        -13    1    4    4    0    0  0.23933725720E+01 -0.30537285734E+02 -0.60873131785E+02  0.68145375673E+02  0.00000000000E+00 0.  1.
         13    1    4    4    0    0 -0.36205153700E+02 -0.11148699523E+01  0.21274705212E+02  0.42007965570E+02  0.00000000000E+00 0. -1.
          1    1    1    2  501    0  0.38973144845E+02 -0.57527283729E+02 -0.31433894053E+02  0.76265222006E+02  0.00000000000E+00 0. -1.
<scales pt_clust_5="13000.00000" pt_clust_6="13000.00000" pt_clust_7="13000.00000" pt_clust_8="13000.00000" pt_clust_9="69.48593"></scales>
<clustering>
<clus scale="   69.486">  2  9  1 -1</clus>
<clus scale="   82.651">  5  6 -1 -1</clus>
<clus scale="   91.764">  7  8 -1 -1</clus>
<clus scale="  111.886">  1  5  2 -1</clus>
<clus scale="   69.486">  2  5  1 -1</clus>
</clustering>
</event>
<event>
 9    2  0.9254368E-005  0.1547303E+03  0.7546771E-02  0.1202306E+00
          2   -1    0    0  502    0 -0.00000000000E+00  0.00000000000E+00  0.45991732724E+03  0.45991732724E+03  0.00000000000E+00 0. -1.
         21   -1    0    0  501  502  0.00000000000E+00 -0.00000000000E+00 -0.14391226419E+03  0.14391226419E+03  0.00000000000E+00 0.  1.
         23    2    1    2    0    0  0.96132875330E+02  0.80330579671E+01  0.16056141853E+03  0.20743531737E+03  0.89125653070E+02 0.  0.
         24    2    1    2    0    0 -0.47564887669E+01 -0.13076349765E+03 -0.27635726041E+02  0.15779322466E+03  0.83745160401E+02 0.  0.
        -13    1    4    4    0    0  0.68630293080E+01 -0.13383359322E+03 -0.40688441315E+02  0.14005028062E+03  0.00000000000E+00 0.  1.
         14    1    4    4    0    0 -0.11619518075E+02  0.30700955679E+01  0.13052715274E+02  0.17742944037E+02  0.00000000000E+00 0. -1.
        -13    1    3    3    0    0  0.81304611841E+02  0.31244924110E+02  0.66959039874E+02  0.10986445381E+03  0.00000000000E+00 0.  1.
         13    1    3    3    0    0  0.14828263489E+02 -0.23211866143E+02  0.93602378651E+02  0.97570863567E+02  0.00000000000E+00 0. -1.
          1    1    1    2  501    0 -0.91376386564E+02  0.12273043968E+03  0.18307937056E+03  0.23860104940E+03  0.00000000000E+00 0. -1.
<scales pt_clust_5="13000.00000" pt_clust_6="13000.00000" pt_clust_7="13000.00000" pt_clust_8="13000.00000" pt_clust_9="130.10852"></scales>
<clustering>
<clus scale="   83.745">  5  6 -1 -1</clus>
<clus scale="   89.126">  7  8 -1 -1</clus>
<clus scale="  131.337">  1  7  2 -1</clus>
<clus scale="  130.109">  2  9  1 -1</clus>
<clus scale="  130.109">  2  5  1 -1</clus>
</clustering>
</event>
<event>
 9    2  0.9254368E-005  0.1519590E+03  0.7546771E-02  0.1214652E+00
          4   -1    0    0  502    0 -0.00000000000E+00  0.00000000000E+00  0.12621587000E+04  0.12621587000E+04  0.00000000000E+00 0. -1.
         21   -1    0    0  501  502  0.00000000000E+00 -0.00000000000E+00 -0.77781679709E+02  0.77781679709E+02  0.00000000000E+00 0.  1.
         23    2    1    2    0    0 -0.49614146022E+02  0.20549748265E+02  0.66792096397E+02  0.12566972726E+03  0.91912135053E+02 0.  0.
         24    2    1    2    0    0 -0.19636891037E+02  0.12400325151E+03  0.89938803535E+02  0.17419958537E+03  0.80585937279E+02 0.  0.
        -13    1    4    4    0    0 -0.35435040780E+02  0.12046242127E+03  0.57836539009E+02  0.13824580390E+03  0.00000000000E+00 0.  1.
         14    1    4    4    0    0  0.15798149743E+02  0.35408302451E+01  0.32102264526E+02  0.35953781467E+02  0.00000000000E+00 0. -1.
        -11    1    3    3    0    0 -0.14906877042E+01  0.36149246528E+02 -0.63543214001E+01  0.36733738917E+02  0.00000000000E+00 0. -1.
         11    1    3    3    0    0 -0.48123458318E+02 -0.15599498263E+02  0.73146417797E+02  0.88935988346E+02  0.00000000000E+00 0.  1.
          3    1    1    2  501    0  0.69251037059E+02 -0.14455299978E+03  0.10276461204E+04  0.10400710671E+04  0.00000000000E+00 0. -1.
<scales pt_clust_5="13000.00000" pt_clust_6="13000.00000" pt_clust_7="13000.00000" pt_clust_8="13000.00000" pt_clust_9="128.83109"></scales>
<clustering>
<clus scale="   80.586">  5  6 -1 -1</clus>
<clus scale="   91.912">  7  8 -1 -1</clus>
<clus scale="  106.450">  1  7  2 -1</clus>
<clus scale="  128.831">  2  9  1 -1</clus>
<clus scale="  128.831">  2  5  1 -1</clus>
</clustering>
</event>
<event>
 9    2  0.9254368E-005  0.9512380E+02  0.7546771E-02  0.1297284E+00
         -3   -1    0    0    0  501 -0.00000000000E+00  0.00000000000E+00  0.21823654147E+02  0.21823654147E+02  0.00000000000E+00 0.  1.
         21   -1    0    0  501  502  0.00000000000E+00 -0.00000000000E+00 -0.63211701195E+03  0.63211701195E+03  0.00000000000E+00 0.  1.
         24    2    1    2    0    0  0.77715565254E+01  0.28900443386E+02 -0.20684357098E+03  0.22350142749E+03  0.79202225427E+02 0.  0.
         23    2    1    2    0    0 -0.45471786613E+02 -0.26103233446E+01 -0.31295186949E+03  0.32893874205E+03  0.90483845193E+02 0.  0.
        -13    1    3    3    0    0  0.39488524365E+02  0.33494094734E+02 -0.11201997008E+03  0.12340855576E+03  0.00000000000E+00 0.  1.
         14    1    3    3    0    0 -0.31716967840E+02 -0.45936513476E+01 -0.94823600905E+02  0.10009287173E+03  0.00000000000E+00 0. -1.
        -11    1    4    4    0    0 -0.53556474352E+02  0.27183486812E+02 -0.12753603379E+03  0.14097048562E+03  0.00000000000E+00 0.  1.
         11    1    4    4    0    0  0.80846877381E+01 -0.29793810157E+02 -0.18541583570E+03  0.18796825644E+03  0.00000000000E+00 0. -1.
         -4    1    1    2    0  502  0.37700230088E+02 -0.26290120042E+02 -0.90497917333E+02  0.10150049656E+03  0.00000000000E+00 0.  1.
<scales pt_clust_5="13000.00000" pt_clust_6="13000.00000" pt_clust_7="13000.00000" pt_clust_8="13000.00000" pt_clust_9="45.96172"></scales>
<clustering>
<clus scale="   45.962">  2  9  1 -1</clus>
<clus scale="   79.202">  5  6 -1 -1</clus>
<clus scale="   84.464">  1  5  2 -1</clus>
<clus scale="   90.484">  7  8 -1 -1</clus>
<clus scale="   45.962">  2  5  1 -1</clus>
</clustering>
</event>
<event>
 9    2  0.9254368E-005  0.1219454E+03  0.7546771E-02  0.1255812E+00
         21   -1    0    0  501  502  0.00000000000E+00  0.00000000000E+00  0.33962709852E+03  0.33962709852E+03  0.00000000000E+00 0.  1.
         -3   -1    0    0    0  501 -0.00000000000E+00 -0.00000000000E+00 -0.84875792971E+02  0.84875792971E+02  0.00000000000E+00 0.  1.
         24    2    1    2    0    0  0.34962413626E+02  0.20556982762E+02  0.78736735424E+02  0.11858757283E+03  0.78857967373E+02 0.  0.
         23    2    1    2    0    0  0.61579268573E+02  0.32465264402E+02  0.15671946173E+03  0.19409422805E+03  0.90915235069E+02 0.  0.
        -11    1    3    3    0    0  0.24405475554E+02  0.15438773727E+02 -0.88610345593E+01  0.30207629908E+02  0.00000000000E+00 0.  1.
         12    1    3    3    0    0  0.10556938072E+02  0.51182090344E+01  0.87597769984E+02  0.88379942924E+02  0.00000000000E+00 0. -1.
        -11    1    4    4    0    0  0.68776394173E+02  0.11245729471E+02  0.51862389373E+02  0.86869823634E+02  0.00000000000E+00 0. -1.
         11    1    4    4    0    0 -0.71971256003E+01  0.21219534932E+02  0.10485707235E+03  0.10722440441E+03  0.00000000000E+00 0.  1.
         -4    1    1    2    0  502 -0.96541682199E+02 -0.53022247164E+02  0.19295108394E+02  0.11182109060E+03  0.00000000000E+00 0.  1.
<scales pt_clust_5="13000.00000" pt_clust_6="13000.00000" pt_clust_7="13000.00000" pt_clust_8="13000.00000" pt_clust_9="81.27181"></scales>
<clustering>
<clus scale="   78.858">  5  6 -1 -1</clus>
<clus scale="   88.677">  2  5  1 -1</clus>
<clus scale="   81.272">  1  9  2 -1</clus>
<clus scale="   90.915">  7  8 -1 -1</clus>
<clus scale="   81.272">  1  5  2 -1</clus>
</clustering>
</event>
<event>
 9    2  0.9254368E-005  0.1420106E+03  0.7546771E-02  0.1236211E+00
         21   -1    0    0  501  502  0.00000000000E+00  0.00000000000E+00  0.10335366611E+03  0.10335366611E+03  0.00000000000E+00 0. -1.
          2   -1    0    0  502    0 -0.00000000000E+00 -0.00000000000E+00 -0.47116357557E+03  0.47116357557E+03  0.00000000000E+00 0. -1.
         24    2    1    2    0    0 -0.17405208485E+01  0.13744738140E+02 -0.18645834542E+01  0.83300264294E+02  0.82118877980E+02 0.  0.
         23    2    1    2    0    0 -0.57936147925E+02 -0.10676486792E+03 -0.34865546142E+03  0.37935550610E+03  0.87147202869E+02 0.  0.
        -13    1    3    3    0    0 -0.25516578173E+02  0.12304278952E+02 -0.33389972038E+02  0.43787912429E+02  0.00000000000E+00 0.  1.
         14    1    3    3    0    0  0.23776057325E+02  0.14404591882E+01  0.31525388584E+02  0.39512351865E+02  0.00000000000E+00 0. -1.
        -13    1    4    4    0    0 -0.18181616164E+01 -0.65807633020E+02 -0.89845910649E+02  0.11138329289E+03  0.00000000000E+00 0.  1.
         13    1    4    4    0    0 -0.56117986308E+02 -0.40957234904E+02 -0.25880955077E+03  0.26797221321E+03  0.00000000000E+00 0. -1.
          1    1    1    2  501    0  0.59676668773E+02  0.93020129784E+02 -0.17289864587E+02  0.11186147129E+03  0.00000000000E+00 0. -1.
<scales pt_clust_5="13000.00000" pt_clust_6="13000.00000" pt_clust_7="13000.00000" pt_clust_8="13000.00000" pt_clust_9="112.12667"></scales>
<clustering>
<clus scale="   82.119">  5  6 -1 -1</clus>
<clus scale="   83.279">  2  5  1 -1</clus>
<clus scale="   87.147">  7  8 -1 -1</clus>
<clus scale="  112.127">  1  9  2 -1</clus>
<clus scale="  112.127">  1  5  2 -1</clus>
</clustering>
</event>
<event>
 9    2  0.9254368E-005  0.2090018E+03  0.7546771E-02  0.1143118E+00
         21   -1    0    0  501  502  0.00000000000E+00  0.00000000000E+00  0.22860461102E+03  0.22860461102E+03  0.00000000000E+00 0. -1.
          2   -1    0    0  502    0 -0.00000000000E+00 -0.00000000000E+00 -0.11859875943E+04  0.11859875943E+04  0.00000000000E+00 0. -1.
         23    2    1    2    0    0 -0.19321918877E+02  0.15758460935E+03  0.26334209353E+01  0.18433267482E+03  0.93623471670E+02 0.  0.
         24    2    1    2    0    0  0.14154020813E+03 -0.19496272571E+03  0.63148274845E+01  0.25551316185E+03  0.84870512566E+02 0.  0.
        -13    1    4    4    0    0  0.29913038535E+02 -0.11132926070E+03 -0.63834452079E+01  0.11545450418E+03  0.00000000000E+00 0.  1.
         14    1    4    4    0    0  0.11162716959E+03 -0.83633465000E+02  0.12698272692E+02  0.14005865767E+03  0.00000000000E+00 0. -1.
        -11    1    3    3    0    0  0.26434429002E+02  0.12383357471E+03  0.99131443910E+01  0.12701103768E+03  0.00000000000E+00 0.  1.
         11    1    3    3    0    0 -0.45756347879E+02  0.33751034646E+02 -0.72797234557E+01  0.57321637141E+02  0.00000000000E+00 0. -1.
          1    1    1    2  501    0 -0.12221828925E+03  0.37378116352E+02 -0.96633123168E+03  0.97474636861E+03  0.00000000000E+00 0. -1.
<scales pt_clust_5="13000.00000" pt_clust_6="13000.00000" pt_clust_7="13000.00000" pt_clust_8="13000.00000" pt_clust_9="127.80630"></scales>
<clustering>
<clus scale="   84.871">  5  6 -1 -1</clus>
<clus scale="   93.623">  7  8 -1 -1</clus>
<clus scale="  127.806">  1  9  2 -1</clus>
<clus scale="  205.230">  1  5  2 -1</clus>
<clus scale="  127.806">  1  5  2 -1</clus>
</clustering>
</event>
<event>
 9    2  0.9254368E-005  0.1758296E+03  0.7546771E-02  0.1172640E+00
         21   -1    0    0  501  502  0.00000000000E+00  0.00000000000E+00  0.10204027727E+03  0.10204027727E+03  0.00000000000E+00 0.  1.
          2   -1    0    0  502    0 -0.00000000000E+00 -0.00000000000E+00 -0.65894176239E+03  0.65894176239E+03  0.00000000000E+00 0. -1.
         23    2    1    2    0    0  0.11112421381E+03 -0.15091045244E+03 -0.46407074022E+03  0.50838918356E+03  0.89304840182E+02 0.  0.
         24    2    1    2    0    0 -0.81945068101E+02  0.48851980967E+02 -0.67095171585E+02  0.14336980964E+03  0.83376435725E+02 0.  0.
        -11    1    4    4    0    0 -0.18856814153E+02  0.20916547067E+02  0.18299277700E+02  0.33584891626E+02  0.00000000000E+00 0.  1.
         12    1    4    4    0    0 -0.63088253949E+02  0.27935433900E+02 -0.85394449285E+02  0.10978491801E+03  0.00000000000E+00 0. -1.
        -13    1    3    3    0    0  0.91595204208E+02 -0.97057625342E+02 -0.40360742602E+03  0.42509859845E+03  0.00000000000E+00 0.  1.
         13    1    3    3    0    0  0.19529009606E+02 -0.53852827102E+02 -0.60463314205E+02  0.83290585109E+02  0.00000000000E+00 0. -1.
          1    1    1    2  501    0 -0.29179145713E+02  0.10205847148E+03 -0.25735573317E+02  0.10922304646E+03  0.00000000000E+00 0. -1.
<scales pt_clust_5="13000.00000" pt_clust_6="13000.00000" pt_clust_7="13000.00000" pt_clust_8="13000.00000" pt_clust_9="106.14779"></scales>
<clustering>
<clus scale="   83.376">  5  6 -1 -1</clus>
<clus scale="   89.305">  7  8 -1 -1</clus>
<clus scale="  106.148">  1  9  2 -1</clus>
<clus scale="  172.894">  1  5  2 -1</clus>
<clus scale="  106.148">  1  5  2 -1</clus>
</clustering>
</event>
<event>
 9    2  0.9254368E-005  0.1156509E+03  0.7546771E-02  0.1252658E+00
         -1   -1    0    0    0  501 -0.00000000000E+00  0.00000000000E+00  0.37412387111E+03  0.37412387111E+03  0.00000000000E+00 0.  1.
         21   -1    0    0  501  502  0.00000000000E+00 -0.00000000000E+00 -0.11836603190E+03  0.11836603190E+03  0.00000000000E+00 0.  1.
         24    2    1    2    0    0  0.64663864608E+02  0.22139879220E+02  0.28561149775E+03  0.30709782866E+03  0.89797322227E+02 0.  0.
         23    2    1    2    0    0 -0.41996999894E+02 -0.33325005501E+02  0.35407784243E+02  0.11540672074E+03  0.95868117820E+02 0.  0.
        -11    1    3    3    0    0  0.20403609326E+02 -0.33226363776E+02  0.69909180863E+02  0.80047436512E+02  0.00000000000E+00 0.  1.
         12    1    3    3    0    0  0.44260255282E+02  0.55366242996E+02  0.21570231689E+03  0.22705039215E+03  0.00000000000E+00 0. -1.
        -11    1    4    4    0    0 -0.35753296210E+02  0.14426974226E+02  0.51766097777E+02  0.64545833748E+02  0.00000000000E+00 0.  1.
         11    1    4    4    0    0 -0.62437036850E+01 -0.47751979727E+02 -0.16358313534E+02  0.50860886988E+02  0.00000000000E+00 0. -1.
         -2    1    1    2    0  502 -0.22666864713E+02  0.11185126281E+02 -0.65261442783E+02  0.69985353611E+02  0.00000000000E+00 0.  1.
<scales pt_clust_5="13000.00000" pt_clust_6="13000.00000" pt_clust_7="13000.00000" pt_clust_8="13000.00000" pt_clust_9="25.27635"></scales>
<clustering>
<clus scale="   25.276">  2  9  1 -1</clus>
<clus scale="   89.797">  5  6 -1 -1</clus>
<clus scale="   95.868">  7  8 -1 -1</clus>
<clus scale="  110.671">  1  5  2 -1</clus>
<clus scale="   25.276">  2  5  1 -1</clus>
</clustering>
</event>
<event>
 9    2  0.9254368E-005  0.2771286E+03  0.7546771E-02  0.1097806E+00
         -3   -1    0    0    0  501 -0.00000000000E+00  0.00000000000E+00  0.82001796577E+03  0.82001796577E+03  0.00000000000E+00 0.  1.
         21   -1    0    0  501  502  0.00000000000E+00 -0.00000000000E+00 -0.10970558180E+03  0.10970558180E+03  0.00000000000E+00 0.  1.
         23    2    1    2    0    0 -0.11428480536E+03 -0.24987612039E+03  0.39205948007E+03  0.48774591578E+03  0.93200591081E+02 0.  0.
         24    2    1    2    0    0  0.12501171845E+03  0.21400480364E+03  0.30720379879E+03  0.40294046035E+03  0.80999104083E+02 0.  0.
        -11    1    4    4    0    0  0.98149523513E+02  0.10532850669E+03  0.21040712215E+03  0.25494819148E+03  0.00000000000E+00 0.  1.
         12    1    4    4    0    0  0.26862194936E+02  0.10867629695E+03  0.96796676639E+02  0.14799226886E+03  0.00000000000E+00 0. -1.
        -11    1    3    3    0    0  0.74731701743E+01 -0.25844641474E+02  0.82044481187E+02  0.86342866866E+02  0.00000000000E+00 0. -1.
         11    1    3    3    0    0 -0.12175797553E+03 -0.22403147892E+03  0.31001499888E+03  0.40140304892E+03  0.00000000000E+00 0.  1.
         -4    1    1    2    0  502 -0.10726913091E+02  0.35871316750E+02  0.11049105117E+02  0.39037171436E+02  0.00000000000E+00 0.  1.
<scales pt_clust_5="13000.00000" pt_clust_6="13000.00000" pt_clust_7="13000.00000" pt_clust_8="13000.00000" pt_clust_9="37.44086"></scales>
<clustering>
<clus scale="   37.441">  2  9  1 -1</clus>
<clus scale="   80.999">  5  6 -1 -1</clus>
<clus scale="   93.201">  7  8 -1 -1</clus>
<clus scale="  273.267">  2  5  1 -1</clus>
<clus scale="   37.441">  2  5  1 -1</clus>
</clustering>
</event>
<event>
 9    2  0.9254368E-005  0.1704190E+03  0.7546771E-02  0.1178895E+00
         21   -1    0    0  501  502  0.00000000000E+00  0.00000000000E+00  0.24779403833E+03  0.24779403833E+03  0.00000000000E+00 0.  1.
         -1   -1    0    0    0  501 -0.00000000000E+00 -0.00000000000E+00 -0.66461715654E+03  0.66461715654E+03  0.00000000000E+00 0.  1.
         23    2    1    2    0    0 -0.12261868209E+03  0.81274834257E+02 -0.54348821575E+03  0.57042714511E+03  0.91469925845E+02 0.  0.
         24    2    1    2    0    0  0.83924885844E+02 -0.10539894951E+03 -0.45862677840E+02  0.16353233056E+03  0.80542615415E+02 0.  0.
        -13    1    4    4    0    0  0.23863915678E+01 -0.65902096141E+02 -0.13412593695E+02  0.67295459060E+02  0.00000000000E+00 0.  1.
         14    1    4    4    0    0  0.81538494277E+02 -0.39496853367E+02 -0.32450084145E+02  0.96236871498E+02  0.00000000000E+00 0. -1.
        -11    1    3    3    0    0 -0.94806901337E+02  0.76938822105E+02 -0.51883941715E+03  0.53301244983E+03  0.00000000000E+00 0.  1.
         11    1    3    3    0    0 -0.27811780756E+02  0.43360121516E+01 -0.24648798607E+02  0.37414695282E+02  0.00000000000E+00 0. -1.
         -2    1    1    2    0  502  0.38693796249E+02  0.24124115251E+02  0.17252777539E+03  0.17845171920E+03  0.00000000000E+00 0.  1.
<scales pt_clust_5="13000.00000" pt_clust_6="13000.00000" pt_clust_7="13000.00000" pt_clust_8="13000.00000" pt_clust_9="45.59806"></scales>
<clustering>
<clus scale="   45.598">  1  9  2 -1</clus>
<clus scale="   80.543">  5  6 -1 -1</clus>
<clus scale="   91.470">  7  8 -1 -1</clus>
<clus scale="  164.812">  1  5  2 -1</clus>
<clus scale="   45.598">  1  5  2 -1</clus>
</clustering>
</event>
<event>
 9    2  0.9254368E-005  0.1727667E+03  0.7546771E-02  0.1200589E+00
         -1   -1    0    0    0  501 -0.00000000000E+00  0.00000000000E+00  0.55532185790E+03  0.55532185790E+03  0.00000000000E+00 0.  1.
         21   -1    0    0  501  502  0.00000000000E+00 -0.00000000000E+00 -0.12920656973E+03  0.12920656973E+03  0.00000000000E+00 0.  1.
         23    2    1    2    0    0 -0.68535400957E+01 -0.22106995018E+02 -0.25968568689E+02  0.10130957198E+03  0.95150263135E+02 0.  0.
         24    2    1    2    0    0  0.12258805413E+03 -0.78802592066E+02  0.37621439851E+03  0.41194890144E+03  0.83228265721E+02 0.  0.
        -11    1    4    4    0    0  0.36764622624E+02 -0.63349330275E+02  0.23332848475E+03  0.24455460928E+03  0.00000000000E+00 0.  1.
         12    1    4    4    0    0  0.85823431508E+02 -0.15453261791E+02  0.14288591376E+03  0.16739429215E+03  0.00000000000E+00 0. -1.
        -11    1    3    3    0    0  0.20886551164E+02 -0.51402619989E+02 -0.46510462649E+01  0.55678627790E+02  0.00000000000E+00 0.  1.
         11    1    3    3    0    0 -0.27740091260E+02  0.29295624970E+02 -0.21317522424E+02  0.45630944191E+02  0.00000000000E+00 0. -1.
         -2    1    1    2    0  502 -0.11573451404E+03  0.10090958708E+03  0.75869458343E+02  0.17126995421E+03  0.00000000000E+00 0.  1.
<scales pt_clust_5="13000.00000" pt_clust_6="13000.00000" pt_clust_7="13000.00000" pt_clust_8="13000.00000" pt_clust_9="151.39813"></scales>
<clustering>
<clus scale="   83.228">  5  6 -1 -1</clus>
<clus scale="   95.150">  7  8 -1 -1</clus>
<clus scale="   97.925">  1  7  2 -1</clus>
<clus scale="  151.398">  2  9  1 -1</clus>
<clus scale="  151.398">  2  5  1 -1</clus>
</clustering>
</event>
<event>
 9    2  0.9254368E-005  0.9290496E+02  0.7546771E-02  0.1303343E+00
          2   -1    0    0  502    0 -0.00000000000E+00  0.00000000000E+00  0.50764279514E+03  0.50764279514E+03  0.00000000000E+00 0. -1.
         21   -1    0    0  501  502  0.00000000000E+00 -0.00000000000E+00 -0.36833712794E+02  0.36833712794E+02  0.00000000000E+00 0. -1.
         24    2    1    2    0    0 -0.11016012493E+02  0.45447754738E+00  0.18337187591E+03  0.20043758218E+03  0.80177430702E+02 0.  0.
         23    2    1    2    0    0 -0.44661653573E+02  0.40248225237E+02  0.11911841877E+03  0.16213805496E+03  0.92113887351E+02 0.  0.
        -13    1    3    3    0    0  0.14156336346E+02 -0.23365524869E+02  0.21134685526E+02  0.34540187368E+02  0.00000000000E+00 0.  1.
         14    1    3    3    0    0 -0.25172348840E+02  0.23820002416E+02  0.16223719039E+03  0.16589739481E+03  0.00000000000E+00 0. -1.
        -13    1    4    4    0    0 -0.28805396739E+02 -0.21203594558E+02  0.79881842065E+02  0.87524008107E+02  0.00000000000E+00 0.  1.
         13    1    4    4    0    0 -0.15856256834E+02  0.61451819795E+02  0.39236576703E+02  0.74614046857E+02  0.00000000000E+00 0. -1.
          1    1    1    2  501    0  0.55677666066E+02 -0.40702702785E+02  0.16831878767E+03  0.18190087079E+03  0.00000000000E+00 0. -1.
<scales pt_clust_5="13000.00000" pt_clust_6="13000.00000" pt_clust_7="13000.00000" pt_clust_8="13000.00000" pt_clust_9="68.96896"></scales>
<clustering>
<clus scale="   68.969">  2  9  1 -1</clus>
<clus scale="   80.177">  5  6 -1 -1</clus>
<clus scale="   81.085">  1  5  2 -1</clus>
<clus scale="   92.114">  7  8 -1 -1</clus>
<clus scale="   68.969">  2  5  1 -1</clus>
</clustering>
</event>
<event>
 9    2  0.9254368E-005  0.1821215E+03  0.7546771E-02  0.1167055E+00
          4   -1    0    0  502    0 -0.00000000000E+00  0.00000000000E+00  0.24787195874E+03  0.24787195874E+03  0.00000000000E+00 0. -1.
         21   -1    0    0  501  502  0.00000000000E+00 -0.00000000000E+00 -0.42830527992E+03  0.42830527992E+03  0.00000000000E+00 0.  1.
         24    2    1    2    0    0  0.14361010746E+03 -0.64220030619E+02  0.49247802668E+02  0.18369048619E+03  0.81047969439E+02 0.  0.
         23    2    1    2    0    0 -0.11041729068E+03  0.12890732774E+03 -0.32170244530E+03  0.37520873623E+03  0.92087215229E+02 0.  0.
        -11    1    3    3    0    0  0.42049718191E+02 -0.51170378949E+02 -0.74447184014E+01  0.66648408186E+02  0.00000000000E+00 0.  1.
         12    1    3    3    0    0  0.10156038927E+03 -0.13049651670E+02  0.56692521070E+02  0.11704207800E+03  0.00000000000E+00 0. -1.
        -13    1    4    4    0    0 -0.62279909198E+02  0.16374464741E+02 -0.15949181997E+03  0.17200160122E+03  0.00000000000E+00 0.  1.
         13    1    4    4    0    0 -0.48137381482E+02  0.11253286299E+03 -0.16221062533E+03  0.20320713501E+03  0.00000000000E+00 0. -1.
          3    1    1    2  501    0 -0.33192816780E+02 -0.64687297117E+02  0.92021321449E+02  0.11727801625E+03  0.00000000000E+00 0. -1.
<scales pt_clust_5="13000.00000" pt_clust_6="13000.00000" pt_clust_7="13000.00000" pt_clust_8="13000.00000" pt_clust_9="72.70636"></scales>
<clustering>
<clus scale="   72.706">  2  9  1 -1</clus>
<clus scale="   81.048">  5  6 -1 -1</clus>
<clus scale="   92.087">  7  8 -1 -1</clus>
<clus scale="  176.796">  1  5  2 -1</clus>
<clus scale="   72.706">  2  5  1 -1</clus>
</clustering>
</event>
<event>
 9    2  0.9254368E-005  0.1438943E+03  0.7546771E-02  0.1211938E+00
         21   -1    0    0  501  502  0.00000000000E+00  0.00000000000E+00  0.50748153305E+02  0.50748153305E+02  0.00000000000E+00 0. -1.
          2   -1    0    0  502    0 -0.00000000000E+00 -0.00000000000E+00 -0.84675537135E+03  0.84675537135E+03  0.00000000000E+00 0. -1.
         24    2    1    2    0    0  0.21938363867E+02  0.93770242960E+02 -0.46981103859E+03  0.48619226636E+03  0.79914689619E+02 0.  0.
         23    2    1    2    0    0 -0.74402836294E+02 -0.13234342593E+03 -0.19974197514E+03  0.26907526741E+03  0.97232085584E+02 0.  0.
        -11    1    3    3    0    0 -0.19197003556E+02  0.75407257913E+02 -0.33988301441E+03  0.34867641586E+03  0.00000000000E+00 0.  1.
         12    1    3    3    0    0  0.41135367422E+02  0.18362985047E+02 -0.12992802417E+03  0.13751585050E+03  0.00000000000E+00 0. -1.
        -11    1    4    4    0    0  0.17101532601E+02 -0.57649737527E+02 -0.49011784215E+02  0.77576476114E+02  0.00000000000E+00 0. -1.
         11    1    4    4    0    0 -0.91504368896E+02 -0.74693688401E+02 -0.15073019092E+03  0.19149879130E+03  0.00000000000E+00 0.  1.
          1    1    1    2  501    0  0.52464472428E+02  0.38573182968E+02 -0.12645420433E+03  0.14223599089E+03  0.00000000000E+00 0. -1.
<scales pt_clust_5="13000.00000" pt_clust_6="13000.00000" pt_clust_7="13000.00000" pt_clust_8="13000.00000" pt_clust_9="65.11847"></scales>
<clustering>
<clus scale="   65.118">  1  9  2 -1</clus>
<clus scale="   79.915">  5  6 -1 -1</clus>
<clus scale="   97.232">  7  8 -1 -1</clus>
<clus scale="  132.808">  2  5  1 -1</clus>
<clus scale="   65.118">  1  5  2 -1</clus>
</clustering>
</event>
<event>
 9    2  0.9254368E-005  0.9522850E+02  0.7546771E-02  0.1298865E+00
         21   -1    0    0  501  502  0.00000000000E+00  0.00000000000E+00  0.21089878881E+03  0.21089878881E+03  0.00000000000E+00 0.  1.
          2   -1    0    0  502    0 -0.00000000000E+00 -0.00000000000E+00 -0.11897218839E+03  0.11897218839E+03  0.00000000000E+00 0. -1.
         23    2    1    2    0    0 -0.15289566971E+02  0.23790507236E+02 -0.19645108880E+02  0.97884292720E+02  0.91627754342E+02 0.  0.
         24    2    1    2    0    0 -0.19895606376E+02 -0.27423851580E+02  0.15462669600E+03  0.17626479027E+03  0.77536819551E+02 0.  0.
        -11    1    4    4    0    0  0.41007292319E+01 -0.33637885052E+02  0.14621207433E+03  0.15008762098E+03  0.00000000000E+00 0.  1.
         12    1    4    4    0    0 -0.23996335608E+02  0.62140334718E+01  0.84146216727E+01  0.26177169299E+02  0.00000000000E+00 0. -1.
        -13    1    3    3    0    0  0.30639203975E+02  0.74067902961E+01 -0.34670972367E+02  0.46858272349E+02  0.00000000000E+00 0.  1.
         13    1    3    3    0    0 -0.45928770946E+02  0.16383716940E+02  0.15025863487E+02  0.51026020371E+02  0.00000000000E+00 0. -1.
          1    1    1    2  501    0  0.35185173347E+02  0.36333443438E+01 -0.43054986697E+02  0.55721894207E+02  0.00000000000E+00 0. -1.
<scales pt_clust_5="13000.00000" pt_clust_6="13000.00000" pt_clust_7="13000.00000" pt_clust_8="13000.00000" pt_clust_9="35.37229"></scales>
<clustering>
<clus scale="   35.372">  1  9  2 -1</clus>
<clus scale="   77.537">  5  6 -1 -1</clus>
<clus scale="   81.761">  1  5  2 -1</clus>
<clus scale="   91.628">  7  8 -1 -1</clus>
<clus scale="   35.372">  1  5  2 -1</clus>
</clustering>
</event>
<event>
 9    2  0.9254368E-005  0.1272579E+03  0.7546771E-02  0.1242295E+00
         -1   -1    0    0    0  501 -0.00000000000E+00  0.00000000000E+00  0.23811108330E+03  0.23811108330E+03  0.00000000000E+00 0.  1.
         21   -1    0    0  501  502  0.00000000000E+00 -0.00000000000E+00 -0.12203027321E+03  0.12203027321E+03  0.00000000000E+00 0.  1.
         23    2    1    2    0    0  0.40774814655E+01 -0.29275094154E+02  0.24482658438E+01  0.10229216686E+03  0.97898091929E+02 0.  0.
         24    2    1    2    0    0  0.47099309132E+02 -0.66741728001E+02  0.92428618785E+02  0.14699838682E+03  0.79954193011E+02 0.  0.
        -11    1    4    4    0    0  0.21096143692E+02 -0.66912339843E+02  0.97881780244E+02  0.12042903058E+03  0.00000000000E+00 0.  1.
         12    1    4    4    0    0  0.26003165440E+02  0.17061184258E+00 -0.54531614587E+01  0.26569356243E+02  0.00000000000E+00 0. -1.
        -13    1    3    3    0    0  0.31536152903E+02 -0.49593102005E+02 -0.19228311817E+02  0.61836337874E+02  0.00000000000E+00 0.  1.
         13    1    3    3    0    0 -0.27458671438E+02  0.20318007851E+02  0.21676577661E+02  0.40455828990E+02  0.00000000000E+00 0. -1.
         -2    1    1    2    0  502 -0.51176790598E+02  0.96016822154E+02  0.21203925458E+02  0.11085080283E+03  0.00000000000E+00 0.  1.
<scales pt_clust_5="13000.00000" pt_clust_6="13000.00000" pt_clust_7="13000.00000" pt_clust_8="13000.00000" pt_clust_9="99.00451"></scales>
<clustering>
<clus scale="   79.954">  5  6 -1 -1</clus>
<clus scale="   97.898">  7  8 -1 -1</clus>
<clus scale="  102.263">  1  7  2 -1</clus>
<clus scale="   99.005">  2  9  1 -1</clus>
<clus scale="   99.005">  2  5  1 -1</clus>
</clustering>
</event>
<event>
 9    2  0.9254368E-005  0.9331654E+02  0.7546771E-02  0.1301901E+00
         21   -1    0    0  501  502  0.00000000000E+00  0.00000000000E+00  0.21932361942E+03  0.21932361942E+03  0.00000000000E+00 0. -1.
         -1   -1    0    0    0  501 -0.00000000000E+00 -0.00000000000E+00 -0.85742090220E+02  0.85742090220E+02  0.00000000000E+00 0.  1.
         23    2    1    2    0    0 -0.11692797332E+02  0.22635829437E+02 -0.13143933159E+02  0.96198947544E+02  0.91827949155E+02 0.  0.
         24    2    1    2    0    0  0.10498955455E+02  0.25457499472E+02  0.13465819836E+03  0.15926824997E+03  0.80468830732E+02 0.  0.
        -11    1    4    4    0    0  0.10208428245E+02  0.31177528555E+02  0.97438888671E+01  0.34222706852E+02  0.00000000000E+00 0.  1.
         12    1    4    4    0    0  0.29052721018E+00 -0.57200290830E+01  0.12491430949E+03  0.12504554312E+03  0.00000000000E+00 0. -1.
        -11    1    3    3    0    0 -0.51717170990E+02  0.12988084284E+02 -0.12232124196E+01  0.53337157379E+02  0.00000000000E+00 0. -1.
         11    1    3    3    0    0  0.40024373658E+02  0.96477451534E+01 -0.11920720739E+02  0.42861790166E+02  0.00000000000E+00 0.  1.
         -2    1    1    2    0  502  0.11938418775E+01 -0.48093328909E+02  0.12067263997E+02  0.49598512119E+02  0.00000000000E+00 0.  1.
<scales pt_clust_5="13000.00000" pt_clust_6="13000.00000" pt_clust_7="13000.00000" pt_clust_8="13000.00000" pt_clust_9="48.10817"></scales>
<clustering>
<clus scale="   48.108">  1  9  2 -1</clus>
<clus scale="   80.469">  5  6 -1 -1</clus>
<clus scale="   82.163">  1  5  2 -1</clus>
<clus scale="   91.828">  7  8 -1 -1</clus>
<clus scale="   48.108">  1  5  2 -1</clus>
</clustering>
</event>
<event>
 9    2  0.9254368E-005  0.1963613E+03  0.7546771E-02  0.1158589E+00
         21   -1    0    0  501  502  0.00000000000E+00  0.00000000000E+00  0.94389862619E+03  0.94389862619E+03  0.00000000000E+00 0. -1.
          4   -1    0    0  502    0 -0.00000000000E+00 -0.00000000000E+00 -0.23572408077E+03  0.23572408077E+03  0.00000000000E+00 0. -1.
         24    2    1    2    0    0 -0.14423104674E+03 -0.24857960734E+02 -0.15659702609E+03  0.22834606405E+03  0.78732352511E+02 0.  0.
         23    2    1    2    0    0  0.23747041493E+03 -0.45477278880E+01  0.43744666464E+03  0.51291052841E+03  0.12371235167E+03 0.  0.
        -11    1    3    3    0    0 -0.69334674847E+02  0.26596878586E+02 -0.57706857587E+02  0.94046650654E+02  0.00000000000E+00 0.  1.
         12    1    3    3    0    0 -0.74896371890E+02 -0.51454839320E+02 -0.98890168503E+02  0.13429941340E+03  0.00000000000E+00 0. -1.
        -11    1    4    4    0    0  0.15370228369E+03  0.54419172299E+02  0.30052913170E+03  0.34191168060E+03  0.00000000000E+00 0.  1.
         11    1    4    4    0    0  0.83768131234E+02 -0.58966900187E+02  0.13691753294E+03  0.17099884782E+03  0.00000000000E+00 0. -1.
          3    1    1    2  501    0 -0.93239368190E+02  0.29405688622E+02  0.42732490687E+03  0.43836611449E+03  0.00000000000E+00 0. -1.
<scales pt_clust_5="13000.00000" pt_clust_6="13000.00000" pt_clust_7="13000.00000" pt_clust_8="13000.00000" pt_clust_9="97.76643"></scales>
<clustering>
<clus scale="   78.732">  5  6 -1 -1</clus>
<clus scale="   97.766">  1  9  2 -1</clus>
<clus scale="  123.712">  7  8 -1 -1</clus>
<clus scale="  171.615">  2  5  1 -1</clus>
<clus scale="   97.766">  1  5  2 -1</clus>
</clustering>
</event>
<event>
 9    2  0.9254368E-005  0.1277621E+03  0.7546771E-02  0.1245963E+00
         21   -1    0    0  501  502  0.00000000000E+00  0.00000000000E+00  0.33957112985E+02  0.33957112985E+02  0.00000000000E+00 0. -1.
          2   -1    0    0  502    0 -0.00000000000E+00 -0.00000000000E+00 -0.11055741823E+04  0.11055741823E+04  0.00000000000E+00 0. -1.
         24    2    1    2    0    0 -0.37331973579E+02  0.25124899651E+02 -0.89017953699E+02  0.12935140678E+03  0.82356866877E+02 0.  0.
         23    2    1    2    0    0 -0.73510779136E+02 -0.30750717128E+02 -0.41621083540E+03  0.43302007561E+03  0.89025193764E+02 0.  0.
        -11    1    3    3    0    0 -0.57703032456E+02  0.34703815226E+02 -0.48442302762E+02  0.82949692240E+02  0.00000000000E+00 0.  1.
         12    1    3    3    0    0  0.20371058877E+02 -0.95789155750E+01 -0.40575650937E+02  0.46401714541E+02  0.00000000000E+00 0. -1.
        -11    1    4    4    0    0  0.16221224235E+02 -0.24679324782E+02 -0.10500335324E+03  0.10907750171E+03  0.00000000000E+00 0.  1.
         11    1    4    4    0    0 -0.89732003371E+02 -0.60713923457E+01 -0.31120748216E+03  0.32394257390E+03  0.00000000000E+00 0. -1.
          1    1    1    2  501    0  0.11084275272E+03  0.56258174768E+01 -0.56638828017E+03  0.57715981284E+03  0.00000000000E+00 0. -1.
<scales pt_clust_5="13000.00000" pt_clust_6="13000.00000" pt_clust_7="13000.00000" pt_clust_8="13000.00000" pt_clust_9="91.63888"></scales>
<clustering>
<clus scale="   82.357">  5  6 -1 -1</clus>
<clus scale="   89.025">  7  8 -1 -1</clus>
<clus scale="   93.849">  2  5  1 -1</clus>
<clus scale="   91.639">  1  9  2 -1</clus>
<clus scale="   91.639">  1  5  2 -1</clus>
</clustering>
</event>
<event>
 9    2  0.9254368E-005  0.2080354E+03  0.7546771E-02  0.1175427E+00
         21   -1    0    0  501  502  0.00000000000E+00  0.00000000000E+00  0.14330666001E+03  0.14330666001E+03  0.00000000000E+00 0.  1.
         -1   -1    0    0    0  501 -0.00000000000E+00 -0.00000000000E+00 -0.57983925715E+03  0.57983925715E+03  0.00000000000E+00 0.  1.
         24    2    1    2    0    0 -0.31770646194E+02 -0.46735158631E+02 -0.66985123394E+02  0.11869271386E+03  0.80046265088E+02 0.  0.
         23    2    1    2    0    0  0.19797962317E+03  0.10746221402E+03 -0.35008119299E+03  0.42643035261E+03  0.92422644965E+02 0.  0.
        -11    1    3    3    0    0 -0.24582974787E+02  0.15060064827E+02 -0.22609382538E+01  0.28917815335E+02  0.00000000000E+00 0.  1.
         12    1    3    3    0    0 -0.71876714074E+01 -0.61795223458E+02 -0.64724185140E+02  0.89774898521E+02  0.00000000000E+00 0. -1.
        -11    1    4    4    0    0  0.11317980305E+03  0.81007465426E+02 -0.13575839322E+03  0.19442792650E+03  0.00000000000E+00 0. -1.
         11    1    4    4    0    0  0.84799820122E+02  0.26454748590E+02 -0.21432279978E+03  0.23200242611E+03  0.00000000000E+00 0.  1.
         -2    1    1    2    0  502 -0.16620897698E+03 -0.60727055385E+02 -0.19466280758E+02  0.17802285070E+03  0.00000000000E+00 0.  1.
<scales pt_clust_5="13000.00000" pt_clust_6="13000.00000" pt_clust_7="13000.00000" pt_clust_8="13000.00000" pt_clust_9="186.37806"></scales>
<clustering>
<clus scale="   80.046">  5  6 -1 -1</clus>
<clus scale="   92.423">  7  8 -1 -1</clus>
<clus scale="   97.985">  2  5  1 -1</clus>
<clus scale="  186.378">  1  9  2 -1</clus>
<clus scale="  186.378">  1  5  2 -1</clus>
</clustering>
</event>
<event>
 9    2  0.9254368E-005  0.1188730E+03  0.7546771E-02  0.1250367E+00
         21   -1    0    0  501  502  0.00000000000E+00  0.00000000000E+00  0.41305126500E+02  0.41305126500E+02  0.00000000000E+00 0.  1.
          2   -1    0    0  502    0 -0.00000000000E+00 -0.00000000000E+00 -0.96877428439E+03  0.96877428439E+03  0.00000000000E+00 0. -1.
         24    2    1    2    0    0  0.69448238713E+02 -0.80582561050E+02 -0.26766327723E+03  0.29921783516E+03  0.81062173027E+02 0.  0.
         23    2    1    2    0    0  0.89183814094E+01  0.29374826666E+02 -0.96799811601E+02  0.14012574103E+03  0.96553621396E+02 0.  0.
        -13    1    3    3    0    0  0.51675927304E+02 -0.48956120088E+01 -0.14480017450E+03  0.15382281695E+03  0.00000000000E+00 0.  1.
         14    1    3    3    0    0  0.17772311408E+02 -0.75686949041E+02 -0.12286310273E+03  0.14539501821E+03  0.00000000000E+00 0. -1.
        -11    1    4    4    0    0 -0.33310746325E+02  0.44249362815E+02 -0.63917676522E+02  0.84575890786E+02  0.00000000000E+00 0.  1.
         11    1    4    4    0    0  0.42229127734E+02 -0.14874536149E+02 -0.32882135080E+02  0.55549850245E+02  0.00000000000E+00 0. -1.
          1    1    1    2  501    0 -0.78366620122E+02  0.51207734384E+02 -0.56300606906E+03  0.57073583470E+03  0.00000000000E+00 0. -1.
<scales pt_clust_5="13000.00000" pt_clust_6="13000.00000" pt_clust_7="13000.00000" pt_clust_8="13000.00000" pt_clust_9="93.61393"></scales>
<clustering>
<clus scale="   81.062">  5  6 -1 -1</clus>
<clus scale="   93.614">  1  9  2 -1</clus>
<clus scale="   96.554">  7  8 -1 -1</clus>
<clus scale="  106.674">  2  5  1 -1</clus>
<clus scale="   93.614">  1  5  2 -1</clus>
</clustering>
</event>
<event>
 9    2  0.9254368E-005  0.1902996E+03  0.7546771E-02  0.1159162E+00
          2   -1    0    0  502    0 -0.00000000000E+00  0.00000000000E+00  0.12662981577E+04  0.12662981577E+04  0.00000000000E+00 0. -1.
         21   -1    0    0  501  502  0.00000000000E+00 -0.00000000000E+00 -0.85847001477E+02  0.85847001477E+02  0.00000000000E+00 0.  1.
         23    2    1    2    0    0 -0.80384572136E+02 -0.14189012514E+03  0.54151109482E+03  0.57248812116E+03  0.88960080967E+02 0.  0.
         24    2    1    2    0    0  0.22321008929E+03  0.68782811057E+02  0.21818332852E+03  0.32934599442E+03  0.79441803469E+02 0.  0.
        -13    1    4    4    0    0  0.37926535410E+02 -0.25128123099E+01  0.55026829545E+01  0.38405934875E+02  0.00000000000E+00 0.  1.
         14    1    4    4    0    0  0.18528355388E+03  0.71295623367E+02  0.21268064556E+03  0.29094005954E+03  0.00000000000E+00 0. -1.
        -11    1    3    3    0    0 -0.23777105111E+02 -0.10651733051E+03  0.23959806583E+03  0.26328411569E+03  0.00000000000E+00 0.  1.
         11    1    3    3    0    0 -0.56607467025E+02 -0.35372794631E+02  0.30191302899E+03  0.30920400546E+03  0.00000000000E+00 0. -1.
          1    1    1    2  501    0 -0.14282551715E+03  0.73107314085E+02  0.42075673292E+03  0.45031104364E+03  0.00000000000E+00 0. -1.
<scales pt_clust_5="13000.00000" pt_clust_6="13000.00000" pt_clust_7="13000.00000" pt_clust_8="13000.00000" pt_clust_9="160.44885"></scales>
<clustering>
<clus scale="   79.442">  5  6 -1 -1</clus>
<clus scale="   88.960">  7  8 -1 -1</clus>
<clus scale="  160.449">  2  9  1 -1</clus>
<clus scale="  186.040">  2  5  1 -1</clus>
<clus scale="  160.449">  2  5  1 -1</clus>
</clustering>
</event>
<event>
 9    2  0.9254368E-005  0.1867679E+03  0.7546771E-02  0.1181518E+00
         21   -1    0    0  501  502  0.00000000000E+00  0.00000000000E+00  0.38981639266E+03  0.38981639266E+03  0.00000000000E+00 0.  1.
         -3   -1    0    0    0  501 -0.00000000000E+00 -0.00000000000E+00 -0.42772001754E+03  0.42772001754E+03  0.00000000000E+00 0.  1.
         24    2    1    2    0    0  0.85716622661E+02  0.11530883553E+02  0.21265297658E+03  0.24321863940E+03  0.80335032373E+02 0.  0.
         23    2    1    2    0    0  0.16359380343E+02  0.12495632444E+03 -0.34581121728E+03  0.37906995347E+03  0.90702366482E+02 0.  0.
        -11    1    3    3    0    0  0.54101324972E+02 -0.78936533057E+01  0.43006614616E+02  0.69561713801E+02  0.00000000000E+00 0.  1.
         12    1    3    3    0    0  0.31615297689E+02  0.19424536859E+02  0.16964636196E+03  0.17365692560E+03  0.00000000000E+00 0. -1.
        -11    1    4    4    0    0  0.22721302565E+02  0.85895723590E+02 -0.31930968207E+03  0.33144080314E+03  0.00000000000E+00 0.  1.
         11    1    4    4    0    0 -0.63619222216E+01  0.39060600850E+02 -0.26501535214E+02  0.47629150337E+02  0.00000000000E+00 0. -1.
         -4    1    1    2    0  502 -0.10207600300E+03 -0.13648720799E+03  0.95254615827E+02  0.19524781733E+03  0.00000000000E+00 0.  1.
<scales pt_clust_5="13000.00000" pt_clust_6="13000.00000" pt_clust_7="13000.00000" pt_clust_8="13000.00000" pt_clust_9="163.26460"></scales>
<clustering>
<clus scale="   80.335">  5  6 -1 -1</clus>
<clus scale="   90.702">  7  8 -1 -1</clus>
<clus scale="  118.043">  2  5  1 -1</clus>
<clus scale="  163.265">  1  9  2 -1</clus>
<clus scale="  163.265">  1  5  2 -1</clus>
</clustering>
</event>
<event>
 9    2  0.9254368E-005  0.9855006E+02  0.7546771E-02  0.1291241E+00
          2   -1    0    0  502    0 -0.00000000000E+00  0.00000000000E+00  0.28066215881E+03  0.28066215881E+03  0.00000000000E+00 0. -1.
         21   -1    0    0  501  502  0.00000000000E+00 -0.00000000000E+00 -0.14235902041E+03  0.14235902041E+03  0.00000000000E+00 0. -1.
         24    2    1    2    0    0  0.10727758131E+02  0.34375892676E+02  0.23022751710E+03  0.24558076898E+03  0.77513983735E+02 0.  0.
         23    2    1    2    0    0 -0.34876025917E+02 -0.14437467489E+02 -0.23719710079E+02  0.10239005076E+03  0.92175485879E+02 0.  0.
        -11    1    3    3    0    0 -0.31768111811E+02  0.19365573062E+02  0.13804303582E+03  0.14296894098E+03  0.00000000000E+00 0.  1.
         12    1    3    3    0    0  0.42495869941E+02  0.15010319614E+02  0.92184481278E+02  0.10261182800E+03  0.00000000000E+00 0. -1.
        -13    1    4    4    0    0 -0.34049572660E+01  0.34392505514E+02 -0.27511060165E+02  0.44173483006E+02  0.00000000000E+00 0. -1.
         13    1    4    4    0    0 -0.31471068651E+02 -0.48829973003E+02  0.37913500859E+01  0.58216567753E+02  0.00000000000E+00 0.  1.
          1    1    1    2  501    0  0.24148267786E+02 -0.19938425187E+02 -0.68204668616E+02  0.75050359473E+02  0.00000000000E+00 0. -1.
<scales pt_clust_5="13000.00000" pt_clust_6="13000.00000" pt_clust_7="13000.00000" pt_clust_8="13000.00000" pt_clust_9="31.31580"></scales>
<clustering>
<clus scale="   31.316">  2  9  1 -1</clus>
<clus scale="   77.514">  5  6 -1 -1</clus>
<clus scale="   84.995">  1  5  2 -1</clus>
<clus scale="   92.175">  7  8 -1 -1</clus>
<clus scale="   31.316">  2  5  1 -1</clus>
</clustering>
</event>
<event>
 9    2  0.9254368E-005  0.1408267E+03  0.7546771E-02  0.1214453E+00
         21   -1    0    0  501  502  0.00000000000E+00  0.00000000000E+00  0.38152992445E+02  0.38152992445E+02  0.00000000000E+00 0. -1.
          2   -1    0    0  502    0 -0.00000000000E+00 -0.00000000000E+00 -0.69027265962E+03  0.69027265962E+03  0.00000000000E+00 0. -1.
         23    2    1    2    0    0 -0.98182722073E+02  0.16714203589E+02 -0.35977821136E+03  0.38441251623E+03  0.91724640925E+02 0.  0.
         24    2    1    2    0    0  0.11552817479E+03 -0.38354746081E+02 -0.20181591892E+03  0.24933446537E+03  0.81364395015E+02 0.  0.
        -13    1    4    4    0    0  0.30440918768E+02 -0.23045996388E+01 -0.12646797218E+03  0.13010037933E+03  0.00000000000E+00 0.  1.
         14    1    4    4    0    0  0.85087256022E+02 -0.36050146443E+02 -0.75347946734E+02  0.11923408604E+03  0.00000000000E+00 0. -1.
        -11    1    3    3    0    0  0.21108164182E+01  0.31697679992E+02 -0.59136707372E+02  0.67129342478E+02  0.00000000000E+00 0.  1.
         11    1    3    3    0    0 -0.10029353849E+03 -0.14983476403E+02 -0.30064150399E+03  0.31728317376E+03  0.00000000000E+00 0. -1.
          1    1    1    2  501    0 -0.17345452717E+02  0.21640542493E+02 -0.90525536898E+02  0.94678670459E+02  0.00000000000E+00 0. -1.
<scales pt_clust_5="13000.00000" pt_clust_6="13000.00000" pt_clust_7="13000.00000" pt_clust_8="13000.00000" pt_clust_9="27.73407"></scales>
<clustering>
<clus scale="   27.734">  1  9  2 -1</clus>
<clus scale="   81.364">  5  6 -1 -1</clus>
<clus scale="   91.725">  7  8 -1 -1</clus>
<clus scale="  134.309">  1  5  2 -1</clus>
<clus scale="   27.734">  1  5  2 -1</clus>
</clustering>
</event>
<event>
 9    2  0.9254368E-005  0.1007760E+03  0.7546771E-02  0.1284638E+00
          4   -1    0    0  502    0 -0.00000000000E+00  0.00000000000E+00  0.16766258567E+03  0.16766258567E+03  0.00000000000E+00 0. -1.
         21   -1    0    0  501  502  0.00000000000E+00 -0.00000000000E+00 -0.40255143746E+03  0.40255143746E+03  0.00000000000E+00 0. -1.
         23    2    1    2    0    0  0.43003333060E+02 -0.85296988546E+00  0.13706296199E+03  0.17050663841E+03  0.91849028194E+02 0.  0.
         24    2    1    2    0    0 -0.12641000122E+02  0.41444103244E+02 -0.28415246414E+03  0.29832574356E+03  0.79863745309E+02 0.  0.
        -11    1    4    4    0    0 -0.83482888753E+01  0.40646636296E+02 -0.53854509518E+02  0.67986404264E+02  0.00000000000E+00 0.  1.
         12    1    4    4    0    0 -0.42927112464E+01  0.79746694788E+00 -0.23029795462E+03  0.23033933929E+03  0.00000000000E+00 0. -1.
        -13    1    3    3    0    0 -0.22812475668E+02  0.13286444415E+02  0.13160938968E+02  0.29498287506E+02  0.00000000000E+00 0.  1.
         13    1    3    3    0    0  0.65815808727E+02 -0.14139414301E+02  0.12390202302E+03  0.14100835090E+03  0.00000000000E+00 0. -1.
          3    1    1    2  501    0 -0.30362332938E+02 -0.40591133358E+02 -0.87799349642E+02  0.10138164117E+03  0.00000000000E+00 0. -1.
<scales pt_clust_5="13000.00000" pt_clust_6="13000.00000" pt_clust_7="13000.00000" pt_clust_8="13000.00000" pt_clust_9="50.69035"></scales>
<clustering>
<clus scale="   50.690">  2  9  1 -1</clus>
<clus scale="   79.864">  5  6 -1 -1</clus>
<clus scale="   89.988">  2  5  1 -1</clus>
<clus scale="   91.849">  7  8 -1 -1</clus>
<clus scale="   50.690">  2  5  1 -1</clus>
</clustering>
</event>
<event>
 9    2  0.9254368E-005  0.1696390E+03  0.7546771E-02  0.1181076E+00
         21   -1    0    0  501  502  0.00000000000E+00  0.00000000000E+00  0.29197457193E+03  0.29197457193E+03  0.00000000000E+00 0.  1.
         -1   -1    0    0    0  501 -0.00000000000E+00 -0.00000000000E+00 -0.24494468120E+03  0.24494468120E+03  0.00000000000E+00 0.  1.
         23    2    1    2    0    0 -0.75776788888E+02 -0.13423404426E+03 -0.89309052776E+02  0.20024644582E+03  0.91441958541E+02 0.  0.
         24    2    1    2    0    0  0.49767532352E+02  0.83109559958E+02  0.21101727813E+03  0.24250780329E+03  0.69983832104E+02 0.  0.
        -11    1    4    4    0    0  0.27193577203E+02  0.47471756162E+02  0.18505646977E+03  0.19297397565E+03  0.00000000000E+00 0.  1.
         12    1    4    4    0    0  0.22573955149E+02  0.35637803796E+02  0.25960808362E+02  0.49533827646E+02  0.00000000000E+00 0. -1.
        -13    1    3    3    0    0 -0.78594915173E+02 -0.60146992542E+02 -0.24942343066E+02  0.10206342087E+03  0.00000000000E+00 0.  1.
         13    1    3    3    0    0  0.28181262850E+01 -0.74087051718E+02 -0.64366709710E+02  0.98183024943E+02  0.00000000000E+00 0. -1.
         -2    1    1    2    0  502  0.26009256536E+02  0.51124484303E+02 -0.74678334619E+02  0.94165004021E+02  0.00000000000E+00 0.  1.
<scales pt_clust_5="13000.00000" pt_clust_6="13000.00000" pt_clust_7="13000.00000" pt_clust_8="13000.00000" pt_clust_9="57.36024"></scales>
<clustering>
<clus scale="   57.360">  1  9  2 -1</clus>
<clus scale="   69.984">  5  6 -1 -1</clus>
<clus scale="   91.442">  7  8 -1 -1</clus>
<clus scale="  159.102">  1  5  2 -1</clus>
<clus scale="   57.360">  1  5  2 -1</clus>
</clustering>
</event>
<event>
 9    2  0.9254368E-005  0.1397583E+03  0.7546771E-02  0.1215721E+00
         21   -1    0    0  501  502  0.00000000000E+00  0.00000000000E+00  0.57811087985E+02  0.57811087985E+02  0.00000000000E+00 0. -1.
         -3   -1    0    0    0  501 -0.00000000000E+00 -0.00000000000E+00 -0.10431151721E+04  0.10431151721E+04  0.00000000000E+00 0.  1.
         23    2    1    2    0    0 -0.71187701866E+02 -0.42221455074E+02 -0.14724619058E+03  0.19143235872E+03  0.90080892312E+02 0.  0.
         24    2    1    2    0    0  0.15493631436E+03 -0.32421373532E+02 -0.22690960451E+03  0.28813441352E+03  0.80480212885E+02 0.  0.
        -11    1    4    4    0    0  0.89133496334E+02  0.21857035571E+02 -0.10676096202E+03  0.14078498920E+03  0.00000000000E+00 0.  1.
         12    1    4    4    0    0  0.65802818025E+02 -0.54278409103E+02 -0.12014864249E+03  0.14734942432E+03  0.00000000000E+00 0. -1.
        -11    1    3    3    0    0 -0.56103251812E+01 -0.50635145978E+02 -0.92466598264E+02  0.10557208699E+03  0.00000000000E+00 0.  1.
         11    1    3    3    0    0 -0.65577376684E+02  0.84136909034E+01 -0.54779592312E+02  0.85860271728E+02  0.00000000000E+00 0. -1.
         -4    1    1    2    0  502 -0.83748612494E+02  0.74642828606E+02 -0.61114828906E+03  0.62135948788E+03  0.00000000000E+00 0.  1.
<scales pt_clust_5="13000.00000" pt_clust_6="13000.00000" pt_clust_7="13000.00000" pt_clust_8="13000.00000" pt_clust_9="112.18464"></scales>
<clustering>
<clus scale="   80.480">  5  6 -1 -1</clus>
<clus scale="   90.081">  7  8 -1 -1</clus>
<clus scale="  112.185">  1  9  2 -1</clus>
<clus scale="  133.772">  1  5  2 -1</clus>
<clus scale="  112.185">  1  5  2 -1</clus>
</clustering>
</event>
<event>
 9    2  0.9254368E-005  0.9415698E+02  0.7546771E-02  0.1300049E+00
         21   -1    0    0  501  502  0.00000000000E+00  0.00000000000E+00  0.22433698886E+03  0.22433698886E+03  0.00000000000E+00 0.  1.
         -1   -1    0    0    0  501 -0.00000000000E+00 -0.00000000000E+00 -0.25552584825E+03  0.25552584825E+03  0.00000000000E+00 0.  1.
         23    2    1    2    0    0 -0.15527819173E+02  0.24068763636E+02 -0.19726657889E+03  0.21971663492E+03  0.92416870555E+02 0.  0.
         24    2    1    2    0    0 -0.48829571212E+02  0.27036975210E+02  0.32696929731E+02  0.10348061784E+03  0.80770192532E+02 0.  0.
        -11    1    4    4    0    0 -0.38014762240E+02  0.55091258140E+02  0.15006180395E+02  0.68595585293E+02  0.00000000000E+00 0.  1.
         12    1    4    4    0    0 -0.10814808972E+02 -0.28054282930E+02  0.17690749336E+02  0.34885032548E+02  0.00000000000E+00 0. -1.
        -13    1    3    3    0    0  0.12413539991E+02 -0.29707480400E+02 -0.41141023150E+02  0.52241881213E+02  0.00000000000E+00 0. -1.
         13    1    3    3    0    0 -0.27941359164E+02  0.53776244036E+02 -0.15612555574E+03  0.16747475371E+03  0.00000000000E+00 0.  1.
         -2    1    1    2    0  502  0.64357390385E+02 -0.51105738846E+02  0.13338078977E+03  0.15666558435E+03  0.00000000000E+00 0.  1.
<scales pt_clust_5="13000.00000" pt_clust_6="13000.00000" pt_clust_7="13000.00000" pt_clust_8="13000.00000" pt_clust_9="82.18072"></scales>
<clustering>
<clus scale="   80.770">  5  6 -1 -1</clus>
<clus scale="   82.181">  1  9  2 -1</clus>
<clus scale="   82.756">  1  5  2 -1</clus>
<clus scale="   92.417">  7  8 -1 -1</clus>
<clus scale="   82.181">  1  5  2 -1</clus>
</clustering>
</event>
<event>
 9    2  0.9254368E-005  0.2502524E+03  0.7546771E-02  0.1113869E+00
         21   -1    0    0  501  502  0.00000000000E+00  0.00000000000E+00  0.43201886554E+03  0.43201886554E+03  0.00000000000E+00 0. -1.
          2   -1    0    0  502    0 -0.00000000000E+00 -0.00000000000E+00 -0.42975209062E+03  0.42975209062E+03  0.00000000000E+00 0. -1.
         24    2    1    2    0    0 -0.14953408550E+03  0.15955535838E+03 -0.24195666972E+03  0.33553062327E+03  0.78863261521E+02 0.  0.
         23    2    1    2    0    0  0.20573085146E+03 -0.25774716920E+03  0.22940458631E+03  0.41213815597E+03  0.92046775650E+02 0.  0.
        -11    1    3    3    0    0 -0.12046168174E+03  0.96382797906E+02 -0.12122951368E+03  0.19620717491E+03  0.00000000000E+00 0.  1.
         12    1    3    3    0    0 -0.29072403761E+02  0.63172560471E+02 -0.12072715605E+03  0.13932344836E+03  0.00000000000E+00 0. -1.
        -11    1    4    4    0    0  0.41921269497E+02 -0.84236719831E+02  0.11175815076E+03  0.14609278581E+03  0.00000000000E+00 0.  1.
         11    1    4    4    0    0  0.16380958196E+03 -0.17351044937E+03  0.11764643555E+03  0.26604537016E+03  0.00000000000E+00 0. -1.
          1    1    1    2  501    0 -0.56196765954E+02  0.98191810825E+02  0.14818858322E+02  0.11410217692E+03  0.00000000000E+00 0. -1.
<scales pt_clust_5="13000.00000" pt_clust_6="13000.00000" pt_clust_7="13000.00000" pt_clust_8="13000.00000" pt_clust_9="113.13580"></scales>
<clustering>
<clus scale="   78.863">  5  6 -1 -1</clus>
<clus scale="   92.047">  7  8 -1 -1</clus>
<clus scale="  113.136">  1  9  2 -1</clus>
<clus scale="  245.709">  2  5  1 -1</clus>
<clus scale="  113.136">  1  5  2 -1</clus>
</clustering>
</event>
<event>
 9    2  0.9254368E-005  0.1038450E+03  0.7546771E-02  0.1280564E+00
          2   -1    0    0  502    0 -0.00000000000E+00  0.00000000000E+00  0.34842423346E+03  0.34842423346E+03  0.00000000000E+00 0. -1.
         21   -1    0    0  501  502  0.00000000000E+00 -0.00000000000E+00 -0.53714820780E+02  0.53714820780E+02  0.00000000000E+00 0. -1.
         24    2    1    2    0    0 -0.28037634213E+02  0.75031736574E+02  0.25629810125E+03  0.28023014745E+03  0.80152033082E+02 0.  0.
         23    2    1    2    0    0  0.19190755975E+02 -0.29732875445E+02  0.18295902999E+02  0.71561277949E+02  0.59447013702E+02 0.  0.
        -13    1    3    3    0    0  0.45386697975E+01  0.78249147364E+02  0.20391222149E+03  0.21845759923E+03  0.00000000000E+00 0.  1.
         14    1    3    3    0    0 -0.32576304011E+02 -0.32174107904E+01  0.52385879760E+02  0.61772548218E+02  0.00000000000E+00 0. -1.
        -11    1    4    4    0    0  0.40086410065E+02 -0.13407337314E+02  0.74926169371E+01  0.42928035994E+02  0.00000000000E+00 0. -1.
         11    1    4    4    0    0 -0.20895654090E+02 -0.16325538131E+02  0.10803286062E+02  0.28633241955E+02  0.00000000000E+00 0.  1.
          1    1    1    2  501    0  0.88468782386E+01 -0.45298861129E+02  0.20115408433E+02  0.50347628847E+02  0.00000000000E+00 0. -1.
<scales pt_clust_5="13000.00000" pt_clust_6="13000.00000" pt_clust_7="13000.00000" pt_clust_8="13000.00000" pt_clust_9="46.15468"></scales>
<clustering>
<clus scale="   46.155">  2  9  1 -1</clus>
<clus scale="   59.447">  7  8 -1 -1</clus>
<clus scale="   80.152">  5  6 -1 -1</clus>
<clus scale="   88.845">  2  7  1 -1</clus>
<clus scale="   46.155">  2  5  1 -1</clus>
</clustering>
</event>
<event>
 9    2  0.9254368E-005  0.9296091E+02  0.7546771E-02  0.1300236E+00
          2   -1    0    0  502    0 -0.00000000000E+00  0.00000000000E+00  0.32356730547E+03  0.32356730547E+03  0.00000000000E+00 0. -1.
         21   -1    0    0  501  502  0.00000000000E+00 -0.00000000000E+00 -0.55674761891E+02  0.55674761891E+02  0.00000000000E+00 0. -1.
         24    2    1    2    0    0  0.25656769328E+02 -0.74647136793E+01  0.23075794066E+03  0.24665745248E+03  0.82925749475E+02 0.  0.
         23    2    1    2    0    0 -0.54975039392E+01 -0.10896518667E+01  0.53536351152E+02  0.10522423301E+03  0.90413430565E+02 0.  0.
        -11    1    3    3    0    0  0.29301763785E+02  0.35910213834E+01  0.20182819265E+02  0.35760802410E+02  0.00000000000E+00 0.  1.
         12    1    3    3    0    0 -0.36449944573E+01 -0.11055735063E+02  0.21057512139E+03  0.21089665007E+03  0.00000000000E+00 0. -1.
        -11    1    4    4    0    0 -0.45185325056E+02  0.91838103407E+01  0.13797694131E+02  0.48129329272E+02  0.00000000000E+00 0. -1.
         11    1    4    4    0    0  0.39687821117E+02 -0.10273462207E+02  0.39738657021E+02  0.57094903736E+02  0.00000000000E+00 0.  1.
          1    1    1    2  501    0 -0.20159265389E+02  0.85543655460E+01 -0.16401748233E+02  0.27360381869E+02  0.00000000000E+00 0. -1.
<scales pt_clust_5="13000.00000" pt_clust_6="13000.00000" pt_clust_7="13000.00000" pt_clust_8="13000.00000" pt_clust_9="21.89916"></scales>
<clustering>
<clus scale="   21.899">  2  9  1 -1</clus>
<clus scale="   82.926">  5  6 -1 -1</clus>
<clus scale="   85.696">  1  5  2 -1</clus>
<clus scale="   90.413">  7  8 -1 -1</clus>
<clus scale="   21.899">  2  5  1 -1</clus>
</clustering>
</event>
<event>
 9    2  0.9254368E-005  0.9442998E+02  0.7546771E-02  0.1298077E+00
         21   -1    0    0  501  502  0.00000000000E+00  0.00000000000E+00  0.27358490424E+02  0.27358490424E+02  0.00000000000E+00 0. -1.
          2   -1    0    0  502    0 -0.00000000000E+00 -0.00000000000E+00 -0.75745958319E+03  0.75745958319E+03  0.00000000000E+00 0. -1.
         24    2    1    2    0    0 -0.30789478073E+02 -0.90836661864E+00 -0.52423361081E+03  0.53160136578E+03  0.82645727702E+02 0.  0.
         23    2    1    2    0    0 -0.20782820444E+02 -0.65469138561E+01 -0.14305933101E+03  0.17160698411E+03  0.92239888869E+02 0.  0.
        -13    1    3    3    0    0 -0.36712777197E+02 -0.30288070200E+02 -0.18419717894E+03  0.19024667129E+03  0.00000000000E+00 0.  1.
         14    1    3    3    0    0  0.59232991233E+01  0.29379703582E+02 -0.34003643186E+03  0.34135469449E+03  0.00000000000E+00 0. -1.
        -13    1    4    4    0    0 -0.99833518337E+01  0.42294805516E+02 -0.80772670759E+02  0.91721002116E+02  0.00000000000E+00 0.  1.
         13    1    4    4    0    0 -0.10799468611E+02 -0.48841719372E+02 -0.62286660252E+02  0.79885981992E+02  0.00000000000E+00 0. -1.
          1    1    1    2  501    0  0.51572298518E+02  0.74552804747E+01 -0.62808150948E+02  0.81609723727E+02  0.00000000000E+00 0. -1.
<scales pt_clust_5="13000.00000" pt_clust_6="13000.00000" pt_clust_7="13000.00000" pt_clust_8="13000.00000" pt_clust_9="52.10838"></scales>
<clustering>
<clus scale="   52.108">  1  9  2 -1</clus>
<clus scale="   82.646">  5  6 -1 -1</clus>
<clus scale="   85.083">  2  5  1 -1</clus>
<clus scale="   92.240">  7  8 -1 -1</clus>
<clus scale="   52.108">  1  5  2 -1</clus>
</clustering>
</event>
<event>
 9    2  0.9254368E-005  0.1715923E+03  0.7546771E-02  0.1208236E+00
         -1   -1    0    0    0  501 -0.00000000000E+00  0.00000000000E+00  0.35102125481E+03  0.35102125481E+03  0.00000000000E+00 0.  1.
         21   -1    0    0  501  502  0.00000000000E+00 -0.00000000000E+00 -0.14444138661E+03  0.14444138661E+03  0.00000000000E+00 0.  1.
         24    2    1    2    0    0  0.15538517707E+02  0.28521228424E+02  0.14468450257E+03  0.16768355882E+03  0.78289620077E+02 0.  0.
         23    2    1    2    0    0  0.44374861965E+02  0.12208483209E+03  0.20562221818E+02  0.16050616995E+03  0.92008646460E+02 0.  0.
        -13    1    3    3    0    0 -0.40275253448E+00  0.53091693569E+02  0.11101437307E+03  0.12305722719E+03  0.00000000000E+00 0.  1.
         14    1    3    3    0    0  0.15941270241E+02 -0.24570465145E+02  0.33670129505E+02  0.44626331635E+02  0.00000000000E+00 0. -1.
        -11    1    4    4    0    0  0.57228808215E+01  0.79283568703E+02 -0.28848820153E+02  0.84562935470E+02  0.00000000000E+00 0.  1.
         11    1    4    4    0    0  0.38651981144E+02  0.42801263390E+02  0.49411041971E+02  0.75943234477E+02  0.00000000000E+00 0. -1.
         -2    1    1    2    0  502 -0.59913379672E+02 -0.15060606052E+03  0.41333143817E+02  0.16727291265E+03  0.00000000000E+00 0.  1.
<scales pt_clust_5="13000.00000" pt_clust_6="13000.00000" pt_clust_7="13000.00000" pt_clust_8="13000.00000" pt_clust_9="144.83908"></scales>
<clustering>
<clus scale="   78.290">  5  6 -1 -1</clus>
<clus scale="   84.759">  1  5  2 -1</clus>
<clus scale="   92.009">  7  8 -1 -1</clus>
<clus scale="  144.839">  2  9  1 -1</clus>
<clus scale="  144.839">  2  5  1 -1</clus>
</clustering>
</event>
<event>
 9    2  0.9254368E-005  0.1221453E+03  0.7546771E-02  0.1242083E+00
          2   -1    0    0  502    0 -0.00000000000E+00  0.00000000000E+00  0.30150676317E+03  0.30150676317E+03  0.00000000000E+00 0. -1.
         21   -1    0    0  501  502  0.00000000000E+00 -0.00000000000E+00 -0.23185950072E+03  0.23185950072E+03  0.00000000000E+00 0. -1.
         23    2    1    2    0    0 -0.84501460594E+02  0.57915993958E+02  0.21725675880E+03  0.25786742910E+03  0.93810194268E+02 0.  0.
         24    2    1    2    0    0  0.16004367578E+02 -0.32399716726E+02  0.17641808633E+02  0.94803162587E+02  0.85851760606E+02 0.  0.
        -11    1    4    4    0    0  0.32293649807E+02 -0.55739103440E+02  0.15525670459E+02  0.66262915068E+02  0.00000000000E+00 0.  1.
         12    1    4    4    0    0 -0.16289282228E+02  0.23339386713E+02  0.21161381740E+01  0.28540247519E+02  0.00000000000E+00 0. -1.
        -13    1    3    3    0    0 -0.42027477034E+02 -0.14709038626E+02  0.33356738152E+02  0.55635749507E+02  0.00000000000E+00 0.  1.
         13    1    3    3    0    0 -0.42473983561E+02  0.72625032583E+02  0.18390002065E+03  0.20223167959E+03  0.00000000000E+00 0. -1.
          1    1    1    2  501    0  0.68497093016E+02 -0.25516277231E+02 -0.16525130498E+03  0.18069567221E+03  0.00000000000E+00 0. -1.
<scales pt_clust_5="13000.00000" pt_clust_6="13000.00000" pt_clust_7="13000.00000" pt_clust_8="13000.00000" pt_clust_9="73.09536"></scales>
<clustering>
<clus scale="   73.095">  2  9  1 -1</clus>
<clus scale="   85.852">  5  6 -1 -1</clus>
<clus scale="   93.810">  7  8 -1 -1</clus>
<clus scale="  116.145">  2  5  1 -1</clus>
<clus scale="   73.095">  2  5  1 -1</clus>
</clustering>
</event>
<event>
 9    2  0.9254368E-005  0.1367404E+03  0.7546771E-02  0.1221531E+00
          2   -1    0    0  502    0 -0.00000000000E+00  0.00000000000E+00  0.17866760601E+03  0.17866760601E+03  0.00000000000E+00 0. -1.
         21   -1    0    0  501  502  0.00000000000E+00 -0.00000000000E+00 -0.36047371264E+03  0.36047371264E+03  0.00000000000E+00 0. -1.
         24    2    1    2    0    0 -0.21982357607E+02  0.10064578301E+03  0.12610211167E+03  0.18214373262E+03  0.81619844900E+02 0.  0.
         23    2    1    2    0    0  0.46589214905E+02 -0.39623974884E+02 -0.18560865909E+03  0.21812231580E+03  0.96882175823E+02 0.  0.
        -11    1    3    3    0    0  0.29348868918E+02  0.25772273224E+02  0.51543267141E+02  0.64670507664E+02  0.00000000000E+00 0.  1.
         12    1    3    3    0    0 -0.51331226525E+02  0.74873509786E+02  0.74558844533E+02  0.11747322496E+03  0.00000000000E+00 0. -1.
        -13    1    4    4    0    0  0.73112839616E+02 -0.16469218528E+02 -0.15188394701E+03  0.16936781227E+03  0.00000000000E+00 0. -1.
         13    1    4    4    0    0 -0.26523624711E+02 -0.23154756356E+02 -0.33724712082E+02  0.48754503533E+02  0.00000000000E+00 0.  1.
          1    1    1    2  501    0 -0.24606857299E+02 -0.61021808126E+02 -0.12229955922E+03  0.13887527022E+03  0.00000000000E+00 0. -1.
<scales pt_clust_5="13000.00000" pt_clust_6="13000.00000" pt_clust_7="13000.00000" pt_clust_8="13000.00000" pt_clust_9="65.79634"></scales>
<clustering>
<clus scale="   65.796">  2  9  1 -1</clus>
<clus scale="   81.620">  5  6 -1 -1</clus>
<clus scale="   96.882">  7  8 -1 -1</clus>
<clus scale="  126.387">  1  5  2 -1</clus>
<clus scale="   65.796">  2  5  1 -1</clus>
</clustering>
</event>
<event>
 9    2  0.9254368E-005  0.1960454E+03  0.7546771E-02  0.1172377E+00
          2   -1    0    0  502    0 -0.00000000000E+00  0.00000000000E+00  0.36453130573E+03  0.36453130573E+03  0.00000000000E+00 0. -1.
         21   -1    0    0  501  502  0.00000000000E+00 -0.00000000000E+00 -0.21079959431E+03  0.21079959431E+03  0.00000000000E+00 0. -1.
         23    2    1    2    0    0  0.15589001273E+02 -0.85621033946E+02  0.10077120002E+03  0.16093928690E+03  0.90402659807E+02 0.  0.
         24    2    1    2    0    0  0.49544520661E+02  0.22777640660E+03  0.71034706972E+02  0.25698385538E+03  0.81596699686E+02 0.  0.
        -13    1    4    4    0    0  0.69845428095E+02  0.16138424569E+03  0.64276789758E+02  0.18722917583E+03  0.00000000000E+00 0.  1.
         14    1    4    4    0    0 -0.20300907435E+02  0.66392160916E+02  0.67579172144E+01  0.69754679548E+02  0.00000000000E+00 0. -1.
        -13    1    3    3    0    0 -0.20290208604E+02 -0.57327919442E+02  0.97780794027E+02  0.11514888881E+03  0.00000000000E+00 0.  1.
         13    1    3    3    0    0  0.35879209878E+02 -0.28293114504E+02  0.29904059942E+01  0.45790398096E+02  0.00000000000E+00 0. -1.
          1    1    1    2  501    0 -0.65133521934E+02 -0.14215537266E+03 -0.18074195576E+02  0.15740775775E+03  0.00000000000E+00 0. -1.
<scales pt_clust_5="13000.00000" pt_clust_6="13000.00000" pt_clust_7="13000.00000" pt_clust_8="13000.00000" pt_clust_9="178.25759"></scales>
<clustering>
<clus scale="   81.597">  5  6 -1 -1</clus>
<clus scale="   90.403">  7  8 -1 -1</clus>
<clus scale="  125.486">  1  7  2 -1</clus>
<clus scale="  178.258">  2  9  1 -1</clus>
<clus scale="  178.258">  2  5  1 -1</clus>
</clustering>
</event>
<event>
 9    2  0.9254368E-005  0.1174972E+03  0.7546771E-02  0.1251518E+00
          2   -1    0    0  502    0 -0.00000000000E+00  0.00000000000E+00  0.67160246944E+03  0.67160246944E+03  0.00000000000E+00 0. -1.
         21   -1    0    0  501  502  0.00000000000E+00 -0.00000000000E+00 -0.52965126704E+02  0.52965126704E+02  0.00000000000E+00 0. -1.
         24    2    1    2    0    0  0.64793278091E+02 -0.40664950345E+02  0.37771654686E+03  0.39393033983E+03  0.81605856357E+02 0.  0.
         23    2    1    2    0    0 -0.72973189675E+02 -0.44268096900E+02  0.84415567392E+02  0.15238344847E+03  0.93861475247E+02 0.  0.
        -13    1    3    3    0    0 -0.51868220784E+01 -0.41542001995E+02  0.14296575409E+03  0.14896928507E+03  0.00000000000E+00 0.  1.
         14    1    3    3    0    0  0.69980100169E+02  0.87705164969E+00  0.23475079277E+03  0.24496105475E+03  0.00000000000E+00 0. -1.
        -11    1    4    4    0    0 -0.52659669587E+02  0.20737642313E+02  0.52396899015E+02  0.77126685628E+02  0.00000000000E+00 0.  1.
         11    1    4    4    0    0 -0.20313520088E+02 -0.65005739213E+02  0.32018668378E+02  0.75256762844E+02  0.00000000000E+00 0. -1.
          1    1    1    2  501    0  0.81799115844E+01  0.84933047246E+02  0.15650522848E+03  0.17825380784E+03  0.00000000000E+00 0. -1.
<scales pt_clust_5="13000.00000" pt_clust_6="13000.00000" pt_clust_7="13000.00000" pt_clust_8="13000.00000" pt_clust_9="85.32608"></scales>
<clustering>
<clus scale="   81.606">  5  6 -1 -1</clus>
<clus scale="   85.326">  2  9  1 -1</clus>
<clus scale="   93.861">  7  8 -1 -1</clus>
<clus scale="  107.959">  1  5  2 -1</clus>
<clus scale="   85.326">  2  5  1 -1</clus>
</clustering>
</event>
<event>
 9    2  0.9254368E-005  0.2079217E+03  0.7546771E-02  0.1179815E+00
          2   -1    0    0  502    0 -0.00000000000E+00  0.00000000000E+00  0.11016460850E+04  0.11016460850E+04  0.00000000000E+00 0. -1.
         21   -1    0    0  501  502  0.00000000000E+00 -0.00000000000E+00 -0.99518302076E+02  0.99518302076E+02  0.00000000000E+00 0. -1.
         24    2    1    2    0    0  0.16772868273E+02  0.10358539440E+02  0.60535794698E+03  0.61184930961E+03  0.86675863129E+02 0.  0.
         23    2    1    2    0    0 -0.17942911231E+03 -0.91828243350E+02  0.32664075390E+03  0.39434724796E+03  0.90489431662E+02 0.  0.
        -13    1    3    3    0    0  0.14912196309E+02  0.46968770868E+02  0.26682645230E+03  0.27133889268E+03  0.00000000000E+00 0.  1.
         14    1    3    3    0    0  0.18606719644E+01 -0.36610231428E+02  0.33853149468E+03  0.34051041693E+03  0.00000000000E+00 0. -1.
        -13    1    4    4    0    0 -0.13734882169E+03 -0.51691509467E+02  0.15650303353E+03  0.21454582372E+03  0.00000000000E+00 0.  1.
         13    1    4    4    0    0 -0.42080290622E+02 -0.40136733883E+02  0.17013772038E+03  0.17980142425E+03  0.00000000000E+00 0. -1.
          1    1    1    2  501    0  0.16265624404E+03  0.81469703910E+02  0.70129081990E+02  0.19496782945E+03  0.00000000000E+00 0. -1.
<scales pt_clust_5="13000.00000" pt_clust_6="13000.00000" pt_clust_7="13000.00000" pt_clust_8="13000.00000" pt_clust_9="187.19801"></scales>
<clustering>
<clus scale="   86.676">  5  6 -1 -1</clus>
<clus scale="   88.889">  1  5  2 -1</clus>
<clus scale="   90.489">  7  8 -1 -1</clus>
<clus scale="  187.198">  2  9  1 -1</clus>
<clus scale="  187.198">  2  5  1 -1</clus>
</clustering>
</event>
<event>
 9    2  0.9254368E-005  0.2528131E+03  0.7546771E-02  0.1111540E+00
         21   -1    0    0  501  502  0.00000000000E+00  0.00000000000E+00  0.20578172095E+03  0.20578172095E+03  0.00000000000E+00 0. -1.
          2   -1    0    0  502    0 -0.00000000000E+00 -0.00000000000E+00 -0.76724672390E+03  0.76724672390E+03  0.00000000000E+00 0. -1.
         24    2    1    2    0    0  0.35954164035E+02  0.54361459206E+02 -0.19525992912E+03  0.22156944037E+03  0.81967718209E+02 0.  0.
         23    2    1    2    0    0  0.70361844330E+02  0.67575798477E+02 -0.51457797822E+03  0.53194520719E+03  0.93047998988E+02 0.  0.
        -11    1    3    3    0    0  0.57053141643E+02  0.59372888291E+02 -0.16417993031E+03  0.18367158287E+03  0.00000000000E+00 0.  1.
         12    1    3    3    0    0 -0.21098977608E+02 -0.50114290856E+01 -0.31079998806E+02  0.37897857504E+02  0.00000000000E+00 0. -1.
        -13    1    4    4    0    0 -0.10920527898E+02  0.50579095351E+02 -0.20307339739E+03  0.20956218061E+03  0.00000000000E+00 0.  1.
         13    1    4    4    0    0  0.81282372228E+02  0.16996703126E+02 -0.31150458083E+03  0.32238302658E+03  0.00000000000E+00 0. -1.
          1    1    1    2  501    0 -0.10631600836E+03 -0.12193725768E+03  0.14837290439E+03  0.21951379729E+03  0.00000000000E+00 0. -1.
<scales pt_clust_5="13000.00000" pt_clust_6="13000.00000" pt_clust_7="13000.00000" pt_clust_8="13000.00000" pt_clust_9="161.77697"></scales>
<clustering>
<clus scale="   81.968">  5  6 -1 -1</clus>
<clus scale="   93.048">  7  8 -1 -1</clus>
<clus scale="  102.940">  5  7 -1 -1</clus>
<clus scale="  161.777">  1  9  2 -1</clus>
<clus scale="  161.777">  1  5  2 -1</clus>
</clustering>
</event>
<event>
 9    2  0.9254368E-005  0.1273422E+03  0.7546771E-02  0.1233780E+00
          2   -1    0    0  502    0 -0.00000000000E+00  0.00000000000E+00  0.14495089425E+03  0.14495089425E+03  0.00000000000E+00 0. -1.
         21   -1    0    0  501  502  0.00000000000E+00 -0.00000000000E+00 -0.14294047135E+03  0.14294047135E+03  0.00000000000E+00 0. -1.
         23    2    1    2    0    0 -0.87275523939E+02 -0.96233334847E+01  0.71793092593E+01  0.12602397756E+03  0.90115896562E+02 0.  0.
         24    2    1    2    0    0  0.93552389879E+02 -0.12812048309E+02 -0.29511235204E+02  0.12817324390E+03  0.81493982685E+02 0.  0.
        -13    1    4    4    0    0 -0.11074310457E+01 -0.27750102217E+02 -0.13977353791E+02  0.31091172309E+02  0.00000000000E+00 0.  1.
         14    1    4    4    0    0  0.94659820925E+02  0.14938053908E+02 -0.15533881413E+02  0.97082071588E+02  0.00000000000E+00 0. -1.
        -13    1    3    3    0    0 -0.50724109613E+02 -0.49256725678E+02 -0.45391949330E+01  0.70850297185E+02  0.00000000000E+00 0. -1.
         13    1    3    3    0    0 -0.36551414326E+02  0.39633392193E+02  0.11718504192E+02  0.55173680378E+02  0.00000000000E+00 0.  1.
          1    1    1    2  501    0 -0.62768659400E+01  0.22435381793E+02  0.24342348847E+02  0.33694144144E+02  0.00000000000E+00 0. -1.
<scales pt_clust_5="13000.00000" pt_clust_6="13000.00000" pt_clust_7="13000.00000" pt_clust_8="13000.00000" pt_clust_9="23.29691"></scales>
<clustering>
<clus scale="   23.297">  2  9  1 -1</clus>
<clus scale="   81.494">  5  6 -1 -1</clus>
<clus scale="   90.116">  7  8 -1 -1</clus>
<clus scale="  121.394">  2  5  1 -1</clus>
<clus scale="   23.297">  2  5  1 -1</clus>
</clustering>
</event>
<event>
 9    2  0.9254368E-005  0.9462095E+02  0.7546771E-02  0.1298065E+00
          2   -1    0    0  502    0 -0.00000000000E+00  0.00000000000E+00  0.61024817316E+02  0.61024817316E+02  0.00000000000E+00 0. -1.
         21   -1    0    0  501  502  0.00000000000E+00 -0.00000000000E+00 -0.25518544321E+03  0.25518544321E+03  0.00000000000E+00 0. -1.
         24    2    1    2    0    0  0.34820302679E+02  0.53920544260E+01 -0.14202964177E+01  0.85943157185E+02  0.78375259461E+02 0.  0.
         23    2    1    2    0    0 -0.12991244249E+02 -0.21526158780E+02 -0.17456230305E+03  0.19759819213E+03  0.89111727318E+02 0.  0.
        -11    1    3    3    0    0  0.32491792962E+02  0.39116046590E+02 -0.80816774345E+01  0.51488787331E+02  0.00000000000E+00 0.  1.
         12    1    3    3    0    0  0.23285097172E+01 -0.33723992164E+02  0.66613810167E+01  0.34454369854E+02  0.00000000000E+00 0. -1.
        -13    1    4    4    0    0 -0.37119415800E+02  0.17811637842E+02 -0.50044835605E+02  0.64804251733E+02  0.00000000000E+00 0.  1.
         13    1    4    4    0    0  0.24128171552E+02 -0.39337796622E+02 -0.12451746745E+03  0.13279394039E+03  0.00000000000E+00 0. -1.
          1    1    1    2  501    0 -0.21829058430E+02  0.16134104354E+02 -0.18178026424E+02  0.32668911215E+02  0.00000000000E+00 0. -1.
<scales pt_clust_5="13000.00000" pt_clust_6="13000.00000" pt_clust_7="13000.00000" pt_clust_8="13000.00000" pt_clust_9="27.14439"></scales>
<clustering>
<clus scale="   27.144">  2  9  1 -1</clus>
<clus scale="   78.375">  5  6 -1 -1</clus>
<clus scale="   84.587">  1  5  2 -1</clus>
<clus scale="   89.112">  7  8 -1 -1</clus>
<clus scale="   27.144">  2  5  1 -1</clus>
</clustering>
</event>
<event>
 9    2  0.9254368E-005  0.1185164E+03  0.7546771E-02  0.1248997E+00
         21   -1    0    0  501  502  0.00000000000E+00  0.00000000000E+00  0.51926305748E+02  0.51926305748E+02  0.00000000000E+00 0. -1.
          2   -1    0    0  502    0 -0.00000000000E+00 -0.00000000000E+00 -0.46658612759E+03  0.46658612759E+03  0.00000000000E+00 0. -1.
         24    2    1    2    0    0 -0.70205845333E+02  0.58886845803E+02 -0.28749707443E+03  0.31214035874E+03  0.79878122292E+02 0.  0.
         23    2    1    2    0    0  0.51862119357E+02 -0.39109967432E+01 -0.76640431286E+02  0.12948683096E+03  0.90488166991E+02 0.  0.
        -13    1    3    3    0    0 -0.92474115419E+01 -0.18589907806E+02 -0.76185732031E+02  0.78964327753E+02  0.00000000000E+00 0.  1.
         14    1    3    3    0    0 -0.60958433791E+02  0.77476753609E+02 -0.21131134239E+03  0.23317603098E+03  0.00000000000E+00 0. -1.
        -13    1    4    4    0    0  0.47705281137E+02  0.38518717468E+02 -0.50876884013E+02  0.79673978002E+02  0.00000000000E+00 0.  1.
         13    1    4    4    0    0  0.41568382208E+01 -0.42429714212E+02 -0.25763547274E+02  0.49812852962E+02  0.00000000000E+00 0. -1.
          1    1    1    2  501    0  0.18343725976E+02 -0.54975849060E+02 -0.50522316134E+02  0.76885243643E+02  0.00000000000E+00 0. -1.
<scales pt_clust_5="13000.00000" pt_clust_6="13000.00000" pt_clust_7="13000.00000" pt_clust_8="13000.00000" pt_clust_9="57.95547"></scales>
<clustering>
<clus scale="   57.955">  1  9  2 -1</clus>
<clus scale="   79.878">  5  6 -1 -1</clus>
<clus scale="   90.488">  7  8 -1 -1</clus>
<clus scale="  110.628">  2  5  1 -1</clus>
<clus scale="   57.955">  1  5  2 -1</clus>
</clustering>
</event>
<event>
 9    2  0.9254368E-005  0.1215771E+03  0.7546771E-02  0.1242556E+00
         21   -1    0    0  501  502  0.00000000000E+00  0.00000000000E+00  0.77411717238E+02  0.77411717238E+02  0.00000000000E+00 0.  1.
         -1   -1    0    0    0  501 -0.00000000000E+00 -0.00000000000E+00 -0.40256599340E+03  0.40256599340E+03  0.00000000000E+00 0.  1.
         24    2    1    2    0    0 -0.14238370565E+02 -0.79294940445E+02 -0.18145535681E+03  0.21491812591E+03  0.82300276743E+02 0.  0.
         23    2    1    2    0    0 -0.64460204770E+01  0.92129152555E+02 -0.95358927476E+01  0.12870607821E+03  0.89134669949E+02 0.  0.
        -11    1    3    3    0    0  0.31284118453E+02 -0.55061642447E+02 -0.92663801725E+02  0.11223662810E+03  0.00000000000E+00 0.  1.
         12    1    3    3    0    0 -0.45522489018E+02 -0.24233297997E+02 -0.88791555084E+02  0.10268149781E+03  0.00000000000E+00 0. -1.
        -13    1    4    4    0    0  0.20021748577E+01  0.66278171646E+02  0.36161676605E+02  0.75527952414E+02  0.00000000000E+00 0.  1.
         13    1    4    4    0    0 -0.84481953346E+01  0.25850980909E+02 -0.45697569353E+02  0.53178125795E+02  0.00000000000E+00 0. -1.
         -2    1    1    2    0  502  0.20684391042E+02 -0.12834212110E+02 -0.13416302660E+03  0.13635350652E+03  0.00000000000E+00 0.  1.
<scales pt_clust_5="13000.00000" pt_clust_6="13000.00000" pt_clust_7="13000.00000" pt_clust_8="13000.00000" pt_clust_9="24.34259"></scales>
<clustering>
<clus scale="   24.343">  1  9  2 -1</clus>
<clus scale="   82.300">  5  6 -1 -1</clus>
<clus scale="   89.135">  7  8 -1 -1</clus>
<clus scale="  116.659">  2  5  1 -1</clus>
<clus scale="   24.343">  1  5  2 -1</clus>
</clustering>
</event>
<event>
 9    2  0.9254368E-005  0.1037402E+03  0.7546771E-02  0.1278804E+00
         21   -1    0    0  501  502  0.00000000000E+00  0.00000000000E+00  0.25569523610E+03  0.25569523610E+03  0.00000000000E+00 0. -1.
          4   -1    0    0  502    0 -0.00000000000E+00 -0.00000000000E+00 -0.34364949559E+03  0.34364949559E+03  0.00000000000E+00 0. -1.
         23    2    1    2    0    0 -0.43579313052E+02  0.28360022765E+02 -0.31844088874E+03  0.33528262727E+03  0.91139415777E+02 0.  0.
         24    2    1    2    0    0  0.16282071597E+02  0.11437590640E+02  0.13366844228E+03  0.15588285155E+03  0.77693542919E+02 0.  0.
        -11    1    4    4    0    0  0.11984867667E+02 -0.32424504289E+02  0.74260850245E+02  0.81912510708E+02  0.00000000000E+00 0.  1.
         12    1    4    4    0    0  0.42972039298E+01  0.43862094929E+02  0.59407592037E+02  0.73970340846E+02  0.00000000000E+00 0. -1.
        -11    1    3    3    0    0 -0.19956460299E+02  0.59690332339E+02 -0.15708578295E+03  0.16922511423E+03  0.00000000000E+00 0.  1.
         11    1    3    3    0    0 -0.23622852753E+02 -0.31330309575E+02 -0.16135510579E+03  0.16605751303E+03  0.00000000000E+00 0. -1.
          3    1    1    2  501    0  0.27297241455E+02 -0.39797613405E+02  0.96818186966E+02  0.10817925287E+03  0.00000000000E+00 0. -1.
<scales pt_clust_5="13000.00000" pt_clust_6="13000.00000" pt_clust_7="13000.00000" pt_clust_8="13000.00000" pt_clust_9="48.25960"></scales>
<clustering>
<clus scale="   48.260">  1  9  2 -1</clus>
<clus scale="   77.694">  5  6 -1 -1</clus>
<clus scale="   91.139">  7  8 -1 -1</clus>
<clus scale="   92.152">  1  5  2 -1</clus>
<clus scale="   48.260">  1  5  2 -1</clus>
</clustering>
</event>
<event>
 9    2  0.9254368E-005  0.1511177E+03  0.7546771E-02  0.1201618E+00
         21   -1    0    0  501  502  0.00000000000E+00  0.00000000000E+00  0.91263309697E+02  0.91263309697E+02  0.00000000000E+00 0.  1.
          2   -1    0    0  502    0 -0.00000000000E+00 -0.00000000000E+00 -0.59971113149E+03  0.59971113149E+03  0.00000000000E+00 0. -1.
         24    2    1    2    0    0 -0.88131616757E+02  0.58450864882E+02 -0.15661332044E+03  0.20565278195E+03  0.81127363500E+02 0.  0.
         23    2    1    2    0    0  0.66189287848E+02 -0.14859459891E+03 -0.92042955962E+02  0.20946117703E+03  0.94555286953E+02 0.  0.
        -13    1    3    3    0    0 -0.94586165396E+02  0.36793253095E+02 -0.91203819920E+02  0.13644934198E+03  0.00000000000E+00 0.  1.
         14    1    3    3    0    0  0.64545486390E+01  0.21657611787E+02 -0.65409500521E+02  0.69203439979E+02  0.00000000000E+00 0. -1.
        -11    1    4    4    0    0  0.28094091973E+02 -0.74895454386E+02  0.69595079242E+01  0.80293473222E+02  0.00000000000E+00 0.  1.
         11    1    4    4    0    0  0.38095195875E+02 -0.73699144524E+02 -0.99002463886E+02  0.12916770381E+03  0.00000000000E+00 0. -1.
          1    1    1    2  501    0  0.21942328910E+02  0.90143734029E+02 -0.25979154539E+03  0.27586048220E+03  0.00000000000E+00 0. -1.
<scales pt_clust_5="13000.00000" pt_clust_6="13000.00000" pt_clust_7="13000.00000" pt_clust_8="13000.00000" pt_clust_9="92.77590"></scales>
<clustering>
<clus scale="   81.127">  5  6 -1 -1</clus>
<clus scale="   92.776">  1  9  2 -1</clus>
<clus scale="   94.555">  7  8 -1 -1</clus>
<clus scale="  143.100">  2  5  1 -1</clus>
<clus scale="   92.776">  1  5  2 -1</clus>
</clustering>
</event>
<event>
 9    2  0.9254368E-005  0.1395472E+03  0.7546771E-02  0.1217053E+00
         21   -1    0    0  501  502  0.00000000000E+00  0.00000000000E+00  0.44801333191E+02  0.44801333191E+02  0.00000000000E+00 0.  1.
          2   -1    0    0  502    0 -0.00000000000E+00 -0.00000000000E+00 -0.80093682458E+03  0.80093682458E+03  0.00000000000E+00 0. -1.
         24    2    1    2    0    0 -0.58393974544E+02 -0.94092595846E+02 -0.59240883050E+03  0.60779380307E+03  0.78751582469E+02 0.  0.
         23    2    1    2    0    0  0.29259657358E+02  0.71214866858E+02 -0.75469512880E+02  0.14222850911E+03  0.92766462797E+02 0.  0.
        -11    1    3    3    0    0 -0.27582770443E+02 -0.50666833946E+02 -0.12869640742E+03  0.14103440208E+03  0.00000000000E+00 0.  1.
         12    1    3    3    0    0 -0.30811204100E+02 -0.43425761900E+02 -0.46371242308E+03  0.46675940099E+03  0.00000000000E+00 0. -1.
        -13    1    4    4    0    0 -0.30692486008E+02  0.20340192647E+02 -0.59982228190E+01  0.37305908530E+02  0.00000000000E+00 0.  1.
         13    1    4    4    0    0  0.59952143367E+02  0.50874674211E+02 -0.69471290061E+02  0.10492260058E+03  0.00000000000E+00 0. -1.
          1    1    1    2  501    0  0.29134317185E+02  0.22877728988E+02 -0.88257148009E+02  0.95715845586E+02  0.00000000000E+00 0. -1.
<scales pt_clust_5="13000.00000" pt_clust_6="13000.00000" pt_clust_7="13000.00000" pt_clust_8="13000.00000" pt_clust_9="37.04322"></scales>
<clustering>
<clus scale="   37.043">  1  9  2 -1</clus>
<clus scale="   78.752">  5  6 -1 -1</clus>
<clus scale="   92.766">  7  8 -1 -1</clus>
<clus scale="  130.651">  2  5  1 -1</clus>
<clus scale="   37.043">  1  5  2 -1</clus>
</clustering>
</event>
<event>
 9    2  0.9254368E-005  0.9320652E+02  0.7546771E-02  0.1302138E+00
          2   -1    0    0  502    0 -0.00000000000E+00  0.00000000000E+00  0.43099414912E+03  0.43099414912E+03  0.00000000000E+00 0. -1.
         21   -1    0    0  501  502  0.00000000000E+00 -0.00000000000E+00 -0.90934146918E+02  0.90934146918E+02  0.00000000000E+00 0. -1.
         24    2    1    2    0    0 -0.62793141828E+01 -0.38295527754E+01  0.28814056618E+03  0.29931574167E+03  0.80689727174E+02 0.  0.
         23    2    1    2    0    0  0.56318401545E+02 -0.36759836700E+02  0.92249673598E+02  0.14659981290E+03  0.91969858741E+02 0.  0.
        -11    1    3    3    0    0  0.34107271447E+02 -0.15467624305E+02  0.16510941282E+03  0.16930348954E+03  0.00000000000E+00 0.  1.
         12    1    3    3    0    0 -0.40386585629E+02  0.11638071530E+02  0.12303115336E+03  0.13001225213E+03  0.00000000000E+00 0. -1.
        -11    1    4    4    0    0  0.29075375462E+02  0.29468911200E+02  0.25003029130E+02  0.48362647273E+02  0.00000000000E+00 0.  1.
         11    1    4    4    0    0  0.27243026084E+02 -0.66228747899E+02  0.67246644468E+02  0.98237165628E+02  0.00000000000E+00 0. -1.
          1    1    1    2  501    0 -0.50039087363E+02  0.40589389475E+02 -0.40330237578E+02  0.76012741466E+02  0.00000000000E+00 0. -1.
<scales pt_clust_5="13000.00000" pt_clust_6="13000.00000" pt_clust_7="13000.00000" pt_clust_8="13000.00000" pt_clust_9="64.43143"></scales>
<clustering>
<clus scale="   64.431">  2  9  1 -1</clus>
<clus scale="   80.690">  5  6 -1 -1</clus>
<clus scale="   82.096">  1  5  2 -1</clus>
<clus scale="   91.970">  7  8 -1 -1</clus>
<clus scale="   64.431">  2  5  1 -1</clus>
</clustering>
</event>
<event>
 9    2  0.9254368E-005  0.9366278E+02  0.7546771E-02  0.1301052E+00
          2   -1    0    0  502    0 -0.00000000000E+00  0.00000000000E+00  0.69080436397E+03  0.69080436397E+03  0.00000000000E+00 0. -1.
         21   -1    0    0  501  502  0.00000000000E+00 -0.00000000000E+00 -0.32190660627E+02  0.32190660627E+02  0.00000000000E+00 0.  1.
         24    2    1    2    0    0 -0.87856723940E+01 -0.91153326956E+00  0.22693357444E+03  0.24092774389E+03  0.80432031162E+02 0.  0.
         23    2    1    2    0    0  0.41517697932E+02  0.35275802862E+02  0.97656302120E+02  0.14468885019E+03  0.91815077821E+02 0.  0.
        -11    1    3    3    0    0  0.21181415532E+02 -0.31580669561E+02  0.10475047391E+03  0.11143900950E+03  0.00000000000E+00 0.  1.
         12    1    3    3    0    0 -0.29967087926E+02  0.30669136291E+02  0.12218310053E+03  0.12948873439E+03  0.00000000000E+00 0. -1.
        -11    1    4    4    0    0  0.55568918098E+02 -0.38485726945E+01  0.25163072880E+02  0.61121979739E+02  0.00000000000E+00 0.  1.
         11    1    4    4    0    0 -0.14051220166E+02  0.39124375557E+02  0.72493229240E+02  0.83566870448E+02  0.00000000000E+00 0. -1.
          1    1    1    2  501    0 -0.32732025538E+02 -0.34364269593E+02  0.33402382678E+03  0.33737843052E+03  0.00000000000E+00 0. -1.
<scales pt_clust_5="13000.00000" pt_clust_6="13000.00000" pt_clust_7="13000.00000" pt_clust_8="13000.00000" pt_clust_9="47.45831"></scales>
<clustering>
<clus scale="   47.458">  2  9  1 -1</clus>
<clus scale="   80.432">  5  6 -1 -1</clus>
<clus scale="   82.535">  1  5  2 -1</clus>
<clus scale="   91.815">  7  8 -1 -1</clus>
<clus scale="   47.458">  2  5  1 -1</clus>
</clustering>
</event>
<event>
 9    2  0.9254368E-005  0.1551105E+03  0.7546771E-02  0.1194876E+00
         21   -1    0    0  501  502  0.00000000000E+00  0.00000000000E+00  0.42492000107E+03  0.42492000107E+03  0.00000000000E+00 0. -1.
          2   -1    0    0  502    0 -0.00000000000E+00 -0.00000000000E+00 -0.16544734415E+03  0.16544734415E+03  0.00000000000E+00 0. -1.
         24    2    1    2    0    0  0.12762726427E+03 -0.25350575613E+02 -0.10211535339E+03  0.18569470359E+03  0.84401464884E+02 0.  0.
         23    2    1    2    0    0 -0.11400548090E+03 -0.74906457828E+01  0.31213606420E+03  0.34376620700E+03  0.87709309962E+02 0.  0.
        -13    1    3    3    0    0  0.79429639744E+02 -0.16807861747E+02 -0.10937045396E+03  0.13621111587E+03  0.00000000000E+00 0.  1.
         14    1    3    3    0    0  0.48197624522E+02 -0.85427138666E+01  0.72551005652E+01  0.49483587723E+02  0.00000000000E+00 0. -1.
        -11    1    4    4    0    0 -0.74620501036E+02 -0.29229673716E+02  0.10660076238E+03  0.13336534610E+03  0.00000000000E+00 0.  1.
         11    1    4    4    0    0 -0.39384979860E+02  0.21739027933E+02  0.20553530182E+03  0.21040086090E+03  0.00000000000E+00 0. -1.
          1    1    1    2  501    0 -0.13621783370E+02  0.32841221396E+02  0.49451946112E+02  0.60906434629E+02  0.00000000000E+00 0. -1.
<scales pt_clust_5="13000.00000" pt_clust_6="13000.00000" pt_clust_7="13000.00000" pt_clust_8="13000.00000" pt_clust_9="35.55417"></scales>
<clustering>
<clus scale="   35.554">  1  9  2 -1</clus>
<clus scale="   84.401">  5  6 -1 -1</clus>
<clus scale="   87.709">  7  8 -1 -1</clus>
<clus scale="  153.264">  2  5  1 -1</clus>
<clus scale="   35.554">  1  5  2 -1</clus>
</clustering>
</event>
<event>
 9    2  0.9254368E-005  0.1427264E+03  0.7546771E-02  0.1212390E+00
         21   -1    0    0  501  502  0.00000000000E+00  0.00000000000E+00  0.13249890982E+03  0.13249890982E+03  0.00000000000E+00 0.  1.
          2   -1    0    0  502    0 -0.00000000000E+00 -0.00000000000E+00 -0.26475604244E+03  0.26475604244E+03  0.00000000000E+00 0. -1.
         24    2    1    2    0    0  0.68981971751E+02  0.90130203986E+02 -0.17704758654E+03  0.22521205618E+03  0.80577020630E+02 0.  0.
         23    2    1    2    0    0 -0.56859662414E+02 -0.72382821524E+02  0.10329287754E+02  0.13142895831E+03  0.93244746953E+02 0.  0.
        -13    1    3    3    0    0 -0.46549955675E+00  0.36699874085E+02 -0.12472000150E+02  0.38764006958E+02  0.00000000000E+00 0.  1.
         14    1    3    3    0    0  0.69447471307E+02  0.53430329900E+02 -0.16457558639E+03  0.18644804923E+03  0.00000000000E+00 0. -1.
        -11    1    4    4    0    0 -0.20673114767E+02 -0.83413607289E+02  0.27013251125E+02  0.90082869023E+02  0.00000000000E+00 0.  1.
         11    1    4    4    0    0 -0.36186547647E+02  0.11030785765E+02 -0.16683963370E+02  0.41346089282E+02  0.00000000000E+00 0. -1.
          1    1    1    2  501    0 -0.12122309337E+02 -0.17747382462E+02  0.34461166159E+02  0.40613937767E+02  0.00000000000E+00 0. -1.
<scales pt_clust_5="13000.00000" pt_clust_6="13000.00000" pt_clust_7="13000.00000" pt_clust_8="13000.00000" pt_clust_9="21.49232"></scales>
<clustering>
<clus scale="   21.492">  1  9  2 -1</clus>
<clus scale="   80.577">  5  6 -1 -1</clus>
<clus scale="   93.245">  7  8 -1 -1</clus>
<clus scale="  134.792">  2  5  1 -1</clus>
<clus scale="   21.492">  1  5  2 -1</clus>
</clustering>
</event>
<event>
 9    2  0.9254368E-005  0.1258955E+03  0.7546771E-02  0.1250728E+00
          2   -1    0    0  502    0 -0.00000000000E+00  0.00000000000E+00  0.67333985978E+03  0.67333985978E+03  0.00000000000E+00 0. -1.
         21   -1    0    0  501  502  0.00000000000E+00 -0.00000000000E+00 -0.25542398091E+03  0.25542398091E+03  0.00000000000E+00 0. -1.
         24    2    1    2    0    0 -0.63725098646E+00  0.38364493318E+02  0.61682547880E+03  0.62323537685E+03  0.80476227697E+02 0.  0.
         23    2    1    2    0    0 -0.65471892190E+01  0.70464164660E+02 -0.13893239681E+03  0.18105935976E+03  0.92044645061E+02 0.  0.
        -11    1    3    3    0    0  0.14803326962E+02 -0.21980545202E+02  0.15929972757E+03  0.16148896576E+03  0.00000000000E+00 0.  1.
         12    1    3    3    0    0 -0.15440577948E+02  0.60345038520E+02  0.45752575122E+03  0.46174641109E+03  0.00000000000E+00 0. -1.
        -11    1    4    4    0    0 -0.42639559205E+02  0.49122416012E+02 -0.11668960657E+03  0.13359494020E+03  0.00000000000E+00 0. -1.
         11    1    4    4    0    0  0.36092369986E+02  0.21341748648E+02 -0.22242790233E+02  0.47464419557E+02  0.00000000000E+00 0.  1.
          1    1    1    2  501    0  0.71844402055E+01 -0.10882865798E+03 -0.59977203124E+02  0.12446910409E+03  0.00000000000E+00 0. -1.
<scales pt_clust_5="13000.00000" pt_clust_6="13000.00000" pt_clust_7="13000.00000" pt_clust_8="13000.00000" pt_clust_9="85.89220"></scales>
<clustering>
<clus scale="   80.476">  5  6 -1 -1</clus>
<clus scale="   89.155">  1  5  2 -1</clus>
<clus scale="   85.892">  2  9  1 -1</clus>
<clus scale="   92.045">  7  8 -1 -1</clus>
<clus scale="   85.892">  2  5  1 -1</clus>
</clustering>
</event>
<event>
 9    2  0.9254368E-005  0.1246886E+03  0.7546771E-02  0.1239236E+00
         21   -1    0    0  501  502  0.00000000000E+00  0.00000000000E+00  0.77033162341E+03  0.77033162341E+03  0.00000000000E+00 0. -1.
         -1   -1    0    0    0  501 -0.00000000000E+00 -0.00000000000E+00 -0.31068484510E+02  0.31068484510E+02  0.00000000000E+00 0.  1.
         23    2    1    2    0    0 -0.32471498345E+02  0.85662422571E+02  0.33092572396E+03  0.35529381225E+03  0.91265598098E+02 0.  0.
         24    2    1    2    0    0  0.53582855100E+02 -0.59772167993E+02  0.39411890332E+03  0.40979981225E+03  0.78500584291E+02 0.  0.
        -11    1    4    4    0    0  0.63086754587E+02 -0.21353801294E+02  0.17726762906E+03  0.18936667010E+03  0.00000000000E+00 0.  1.
         12    1    4    4    0    0 -0.95038994863E+01 -0.38418366698E+02  0.21685127427E+03  0.22043314215E+03  0.00000000000E+00 0. -1.
        -11    1    3    3    0    0 -0.63175403478E+02  0.63071003050E+02  0.25797700064E+03  0.27298574302E+03  0.00000000000E+00 0.  1.
         11    1    3    3    0    0  0.30703905133E+02  0.22591419521E+02  0.72948723320E+02  0.82308069231E+02  0.00000000000E+00 0. -1.
         -2    1    1    2    0  502 -0.21111356755E+02 -0.25890254579E+02  0.14218511614E+02  0.36306483426E+02  0.00000000000E+00 0.  1.
<scales pt_clust_5="13000.00000" pt_clust_6="13000.00000" pt_clust_7="13000.00000" pt_clust_8="13000.00000" pt_clust_9="33.40652"></scales>
<clustering>
<clus scale="   33.407">  1  9  2 -1</clus>
<clus scale="   78.501">  5  6 -1 -1</clus>
<clus scale="   91.266">  7  8 -1 -1</clus>
<clus scale="  115.673">  1  5  2 -1</clus>
<clus scale="   33.407">  1  5  2 -1</clus>
</clustering>
</event>
<event>
 9    2  0.9254368E-005  0.1028578E+03  0.7546771E-02  0.1279679E+00
          2   -1    0    0  502    0 -0.00000000000E+00  0.00000000000E+00  0.11694500003E+03  0.11694500003E+03  0.00000000000E+00 0. -1.
         21   -1    0    0  501  502  0.00000000000E+00 -0.00000000000E+00 -0.21609918368E+03  0.21609918368E+03  0.00000000000E+00 0. -1.
         24    2    1    2    0    0 -0.30930205209E+02  0.38581724742E+02  0.75671420190E+02  0.12059276593E+03  0.79819949160E+02 0.  0.
         23    2    1    2    0    0  0.34578780309E+02 -0.17493226409E+02 -0.13796505034E+03  0.16982821674E+03  0.91134861984E+02 0.  0.
        -13    1    3    3    0    0  0.12707385707E+02 -0.17510354696E+02  0.26316962447E+02  0.34068646664E+02  0.00000000000E+00 0.  1.
         14    1    3    3    0    0 -0.43637590915E+02  0.56092079438E+02  0.49354457743E+02  0.86524119271E+02  0.00000000000E+00 0. -1.
        -13    1    4    4    0    0  0.12500333033E+01 -0.51149797303E+02 -0.80133078334E+02  0.95074573839E+02  0.00000000000E+00 0.  1.
         13    1    4    4    0    0  0.33328747005E+02  0.33656570894E+02 -0.57831972002E+02  0.74753642901E+02  0.00000000000E+00 0. -1.
          1    1    1    2  501    0 -0.36485750997E+01 -0.21088498333E+02 -0.36860553502E+02  0.42623201037E+02  0.00000000000E+00 0. -1.
<scales pt_clust_5="13000.00000" pt_clust_6="13000.00000" pt_clust_7="13000.00000" pt_clust_8="13000.00000" pt_clust_9="21.40180"></scales>
<clustering>
<clus scale="   21.402">  2  9  1 -1</clus>
<clus scale="   79.820">  5  6 -1 -1</clus>
<clus scale="   91.135">  7  8 -1 -1</clus>
<clus scale="   92.981">  1  5  2 -1</clus>
<clus scale="   21.402">  2  5  1 -1</clus>
</clustering>
</event>
<event>
 9    2  0.9254368E-005  0.1177110E+03  0.7546771E-02  0.1249734E+00
         -3   -1    0    0    0  501 -0.00000000000E+00  0.00000000000E+00  0.15216531065E+03  0.15216531065E+03  0.00000000000E+00 0.  1.
         21   -1    0    0  501  502  0.00000000000E+00 -0.00000000000E+00 -0.13913631969E+03  0.13913631969E+03  0.00000000000E+00 0.  1.
         24    2    1    2    0    0  0.36884741588E+02 -0.57125957582E+02  0.51886736418E+02  0.11787540297E+03  0.81108063830E+02 0.  0.
         23    2    1    2    0    0 -0.45367656561E+02  0.80545273643E+02 -0.18990648408E+01  0.12885753563E+03  0.89749053880E+02 0.  0.
        -11    1    3    3    0    0  0.36866949109E+02 -0.57230527861E+02  0.71230904285E+02  0.98530944282E+02  0.00000000000E+00 0.  1.
         12    1    3    3    0    0  0.17792479064E-01  0.10457027923E+00 -0.19344167868E+02  0.19344458690E+02  0.00000000000E+00 0. -1.
        -13    1    4    4    0    0 -0.32087518767E+02 -0.39002457174E+01 -0.24357097325E+02  0.40473311791E+02  0.00000000000E+00 0.  1.
         13    1    4    4    0    0 -0.13280137794E+02  0.84445519360E+02  0.22458032484E+02  0.88384223835E+02  0.00000000000E+00 0. -1.
         -4    1    1    2    0  502  0.84829149730E+01 -0.23419316061E+02 -0.36958680614E+02  0.44568691746E+02  0.00000000000E+00 0.  1.
<scales pt_clust_5="13000.00000" pt_clust_6="13000.00000" pt_clust_7="13000.00000" pt_clust_8="13000.00000" pt_clust_9="24.90832"></scales>
<clustering>
<clus scale="   24.908">  2  9  1 -1</clus>
<clus scale="   81.108">  5  6 -1 -1</clus>
<clus scale="   89.749">  7  8 -1 -1</clus>
<clus scale="  111.263">  1  5  2 -1</clus>
<clus scale="   24.908">  2  5  1 -1</clus>
</clustering>
</event>
<event>
 9    2  0.9254368E-005  0.9386521E+02  0.7546771E-02  0.1300816E+00
         21   -1    0    0  501  502  0.00000000000E+00  0.00000000000E+00  0.24116012515E+02  0.24116012515E+02  0.00000000000E+00 0. -1.
          2   -1    0    0  502    0 -0.00000000000E+00 -0.00000000000E+00 -0.65937068720E+03  0.65937068720E+03  0.00000000000E+00 0. -1.
         23    2    1    2    0    0  0.15855536868E+01 -0.17934735690E+02 -0.22386152721E+03  0.24264511592E+03  0.91861309522E+02 0.  0.
         24    2    1    2    0    0  0.41504155903E+02 -0.19289534713E+01 -0.14888426188E+03  0.17407913473E+03  0.80066883874E+02 0.  0.
        -13    1    4    4    0    0  0.12595634221E+02 -0.21974653427E+02 -0.13315780420E+03  0.13554532900E+03  0.00000000000E+00 0.  1.
         14    1    4    4    0    0  0.28908521682E+02  0.20045699956E+02 -0.15726457680E+02  0.38533805726E+02  0.00000000000E+00 0. -1.
        -11    1    3    3    0    0  0.43429221627E+02  0.17233374340E+01 -0.74057584924E+02  0.85869628320E+02  0.00000000000E+00 0.  1.
         11    1    3    3    0    0 -0.41843667940E+02 -0.19658073124E+02 -0.14980394229E+03  0.15677548760E+03  0.00000000000E+00 0. -1.
          1    1    1    2  501    0 -0.43089709590E+02  0.19863689162E+02 -0.26250888560E+03  0.26676244907E+03  0.00000000000E+00 0. -1.
<scales pt_clust_5="13000.00000" pt_clust_6="13000.00000" pt_clust_7="13000.00000" pt_clust_8="13000.00000" pt_clust_9="47.44778"></scales>
<clustering>
<clus scale="   47.448">  1  9  2 -1</clus>
<clus scale="   80.067">  5  6 -1 -1</clus>
<clus scale="   82.358">  1  5  2 -1</clus>
<clus scale="   91.861">  7  8 -1 -1</clus>
<clus scale="   47.448">  1  5  2 -1</clus>
</clustering>
</event>
<event>
 9    2  0.9254368E-005  0.1147622E+03  0.7546771E-02  0.1256114E+00
          2   -1    0    0  502    0 -0.00000000000E+00  0.00000000000E+00  0.50856772088E+03  0.50856772088E+03  0.00000000000E+00 0. -1.
         21   -1    0    0  501  502  0.00000000000E+00 -0.00000000000E+00 -0.11182842345E+03  0.11182842345E+03  0.00000000000E+00 0.  1.
         23    2    1    2    0    0  0.56472742935E+02 -0.41540480208E+02  0.42113021027E+03  0.43654292603E+03  0.91127877592E+02 0.  0.
         24    2    1    2    0    0 -0.22701768552E+02  0.78980455521E+02  0.20724083021E+02  0.11619530440E+03  0.79489486707E+02 0.  0.
        -11    1    4    4    0    0 -0.22409789195E+02  0.12945824253E+01 -0.18573566651E+02  0.29135064330E+02  0.00000000000E+00 0.  1.
         12    1    4    4    0    0 -0.29197935769E+00  0.77685873096E+02  0.39297649672E+02  0.87060240066E+02  0.00000000000E+00 0. -1.
        -11    1    3    3    0    0  0.35452922029E+01  0.22584470052E+02  0.36809830260E+02  0.43331178014E+02  0.00000000000E+00 0.  1.
         11    1    3    3    0    0  0.52927450733E+02 -0.64124950260E+02  0.38432038001E+03  0.39321174802E+03  0.00000000000E+00 0. -1.
          1    1    1    2  501    0 -0.33770974383E+02 -0.37439975313E+02 -0.45114995857E+02  0.67657913901E+02  0.00000000000E+00 0. -1.
<scales pt_clust_5="13000.00000" pt_clust_6="13000.00000" pt_clust_7="13000.00000" pt_clust_8="13000.00000" pt_clust_9="50.42054"></scales>
<clustering>
<clus scale="   50.421">  2  9  1 -1</clus>
<clus scale="   79.489">  5  6 -1 -1</clus>
<clus scale="   91.128">  7  8 -1 -1</clus>
<clus scale="  105.758">  2  5  1 -1</clus>
<clus scale="   50.421">  2  5  1 -1</clus>
</clustering>
</event>
<event>
 9    2  0.9254368E-005  0.9958852E+02  0.7546771E-02  0.1284905E+00
         -3   -1    0    0    0  501 -0.00000000000E+00  0.00000000000E+00  0.55967416644E+03  0.55967416644E+03  0.00000000000E+00 0.  1.
         21   -1    0    0  501  502  0.00000000000E+00 -0.00000000000E+00 -0.25925866339E+02  0.25925866339E+02  0.00000000000E+00 0. -1.
         24    2    1    2    0    0  0.30523629183E+02  0.25827123845E+02  0.30158944919E+03  0.31533445733E+03  0.82951141335E+02 0.  0.
         23    2    1    2    0    0 -0.45210795495E+02 -0.11753078645E+02  0.22769969896E+03  0.24944069517E+03  0.90506113683E+02 0.  0.
        -11    1    3    3    0    0  0.86962528998E+01  0.54684652409E+02  0.19856302676E+03  0.20613905893E+03  0.00000000000E+00 0.  1.
         12    1    3    3    0    0  0.21827376283E+02 -0.28857528563E+02  0.10302642244E+03  0.10919539839E+03  0.00000000000E+00 0. -1.
        -11    1    4    4    0    0 -0.66106977654E+02  0.78100448254E+01  0.19465335231E+03  0.20572082262E+03  0.00000000000E+00 0.  1.
         11    1    4    4    0    0  0.20896182159E+02 -0.19563123470E+02  0.33046346647E+02  0.43719872546E+02  0.00000000000E+00 0. -1.
         -4    1    1    2    0  502  0.14687166312E+02 -0.14074045200E+02  0.44591519473E+01  0.20824880280E+02  0.00000000000E+00 0.  1.
<scales pt_clust_5="13000.00000" pt_clust_6="13000.00000" pt_clust_7="13000.00000" pt_clust_8="13000.00000" pt_clust_9="20.34187"></scales>
<clustering>
<clus scale="   20.342">  2  9  1 -1</clus>
<clus scale="   82.951">  5  6 -1 -1</clus>
<clus scale="   90.506">  7  8 -1 -1</clus>
<clus scale="   92.776">  1  5  2 -1</clus>
<clus scale="   20.342">  2  5  1 -1</clus>
</clustering>
</event>
<event>
 9    2  0.9254368E-005  0.1125280E+03  0.7546771E-02  0.1260351E+00
          2   -1    0    0  502    0 -0.00000000000E+00  0.00000000000E+00  0.23540930510E+03  0.23540930510E+03  0.00000000000E+00 0. -1.
         21   -1    0    0  501  502  0.00000000000E+00 -0.00000000000E+00 -0.12546708516E+03  0.12546708516E+03  0.00000000000E+00 0.  1.
         24    2    1    2    0    0  0.12243685509E+02 -0.69365878155E+02  0.14693543874E+03  0.18281031238E+03  0.82873724824E+02 0.  0.
         23    2    1    2    0    0 -0.70705516150E+01  0.15006748619E+02 -0.65990793537E+02  0.11623942004E+03  0.94242361687E+02 0.  0.
        -13    1    3    3    0    0  0.32454909146E+02 -0.61817263645E+01  0.88280365979E+02  0.94260054562E+02  0.00000000000E+00 0.  1.
         14    1    3    3    0    0 -0.20211223637E+02 -0.63184151791E+02  0.58655072760E+02  0.88550257814E+02  0.00000000000E+00 0. -1.
        -13    1    4    4    0    0  0.23361666655E+02  0.46334918048E+02 -0.38775208082E+02  0.64778151110E+02  0.00000000000E+00 0.  1.
         13    1    4    4    0    0 -0.30432218270E+02 -0.31328169430E+02 -0.27215585455E+02  0.51461268934E+02  0.00000000000E+00 0. -1.
          1    1    1    2  501    0 -0.51731338943E+01  0.54359129536E+02  0.28997574738E+02  0.61826657834E+02  0.00000000000E+00 0. -1.
<scales pt_clust_5="13000.00000" pt_clust_6="13000.00000" pt_clust_7="13000.00000" pt_clust_8="13000.00000" pt_clust_9="54.60475"></scales>
<clustering>
<clus scale="   54.605">  2  9  1 -1</clus>
<clus scale="   82.874">  5  6 -1 -1</clus>
<clus scale="   94.242">  7  8 -1 -1</clus>
<clus scale="  103.194">  1  5  2 -1</clus>
<clus scale="   54.605">  2  5  1 -1</clus>
</clustering>
</event>
<event>
 9    2  0.9254368E-005  0.1568182E+03  0.7546771E-02  0.1194790E+00
          2   -1    0    0  502    0 -0.00000000000E+00  0.00000000000E+00  0.64752785812E+03  0.64752785812E+03  0.00000000000E+00 0. -1.
         21   -1    0    0  501  502  0.00000000000E+00 -0.00000000000E+00 -0.18634427316E+03  0.18634427316E+03  0.00000000000E+00 0. -1.
         23    2    1    2    0    0 -0.11298785394E+03 -0.77333104070E+02  0.58176828477E+03  0.60495439272E+03  0.93641956275E+02 0.  0.
         24    2    1    2    0    0  0.44786926379E+02  0.48933698641E+02 -0.21712112861E+02  0.10549293879E+03  0.79101002854E+02 0.  0.
        -11    1    4    4    0    0  0.63450003720E+02  0.35060279160E+02 -0.32992216743E+02  0.79646798507E+02  0.00000000000E+00 0.  1.
         12    1    4    4    0    0 -0.18663077341E+02  0.13873419482E+02  0.11280103882E+02  0.25846140283E+02  0.00000000000E+00 0. -1.
        -13    1    3    3    0    0 -0.88017835656E+02 -0.11945112626E+02  0.23576115809E+03  0.25193877981E+03  0.00000000000E+00 0.  1.
         13    1    3    3    0    0 -0.24970018285E+02 -0.65387991443E+02  0.34600712669E+03  0.35301561291E+03  0.00000000000E+00 0. -1.
          1    1    1    2  501    0  0.68200927561E+02  0.28399405428E+02 -0.98872586956E+02  0.12342479978E+03  0.00000000000E+00 0. -1.
<scales pt_clust_5="13000.00000" pt_clust_6="13000.00000" pt_clust_7="13000.00000" pt_clust_8="13000.00000" pt_clust_9="73.87755"></scales>
<clustering>
<clus scale="   73.878">  2  9  1 -1</clus>
<clus scale="   79.101">  5  6 -1 -1</clus>
<clus scale="   93.642">  7  8 -1 -1</clus>
<clus scale="  148.594">  2  5  1 -1</clus>
<clus scale="   73.878">  2  5  1 -1</clus>
</clustering>
</event>
<event>
 9    2  0.9254368E-005  0.1114456E+03  0.7546771E-02  0.1270869E+00
          2   -1    0    0  502    0 -0.00000000000E+00  0.00000000000E+00  0.13403577890E+04  0.13403577890E+04  0.00000000000E+00 0. -1.
         21   -1    0    0  501  502  0.00000000000E+00 -0.00000000000E+00 -0.27418844725E+02  0.27418844725E+02  0.00000000000E+00 0.  1.
         24    2    1    2    0    0  0.35197452169E+02  0.20348617560E+02  0.10262216992E+04  0.10300860785E+04  0.79331118036E+02 0.  0.
         23    2    1    2    0    0  0.30741538046E+02 -0.21234996627E+02  0.18679445911E+03  0.21796879760E+03  0.10593516662E+03 0.  0.
        -11    1    3    3    0    0  0.13212302963E+02  0.35747563538E+02  0.21045528236E+03  0.21387818758E+03  0.00000000000E+00 0.  1.
         12    1    3    3    0    0  0.21985149207E+02 -0.15398945978E+02  0.81576641684E+03  0.81620789090E+03  0.00000000000E+00 0. -1.
        -13    1    4    4    0    0  0.68276513418E+02 -0.28637239685E+02  0.12567880522E+03  0.14586615736E+03  0.00000000000E+00 0.  1.
         13    1    4    4    0    0 -0.37534975372E+02  0.74022430580E+01  0.61115653899E+02  0.72102640243E+02  0.00000000000E+00 0. -1.
          1    1    1    2  501    0 -0.65938990215E+02  0.88637906698E+00  0.99922785905E+02  0.11972175759E+03  0.00000000000E+00 0. -1.
<scales pt_clust_5="13000.00000" pt_clust_6="13000.00000" pt_clust_7="13000.00000" pt_clust_8="13000.00000" pt_clust_9="65.94495"></scales>
<clustering>
<clus scale="   65.945">  2  9  1 -1</clus>
<clus scale="   79.331">  5  6 -1 -1</clus>
<clus scale="   86.552">  1  5  2 -1</clus>
<clus scale="  105.935">  7  8 -1 -1</clus>
<clus scale="   65.945">  2  5  1 -1</clus>
</clustering>
</event>
<event>
 9    2  0.9254368E-005  0.9217905E+02  0.7546771E-02  0.1302482E+00
          2   -1    0    0  502    0 -0.00000000000E+00  0.00000000000E+00  0.50911657994E+03  0.50911657994E+03  0.00000000000E+00 0. -1.
         21   -1    0    0  501  502  0.00000000000E+00 -0.00000000000E+00 -0.10623847969E+03  0.10623847969E+03  0.00000000000E+00 0. -1.
         23    2    1    2    0    0 -0.21303280413E+02 -0.31185831705E+02  0.31478226232E+03  0.32969815203E+03  0.90479903421E+02 0.  0.
         24    2    1    2    0    0 -0.52620627600E+02 -0.94118771158E+01  0.15195254847E+03  0.17987128655E+03  0.80041169786E+02 0.  0.
        -11    1    4    4    0    0  0.41776192174E+01 -0.25092358812E+02  0.12214601537E+02  0.28218353314E+02  0.00000000000E+00 0.  1.
         12    1    4    4    0    0 -0.56798246818E+02  0.15680481696E+02  0.13973794693E+03  0.15165293324E+03  0.00000000000E+00 0. -1.
        -13    1    3    3    0    0  0.25154174979E+02 -0.37750802138E+02  0.21071979102E+03  0.21554740989E+03  0.00000000000E+00 0. -1.
         13    1    3    3    0    0 -0.46457455392E+02  0.65649704325E+01  0.10406247130E+03  0.11415074214E+03  0.00000000000E+00 0.  1.
          1    1    1    2  501    0  0.73923908013E+02  0.40597708821E+02 -0.63856710540E+02  0.10578562104E+03  0.00000000000E+00 0. -1.
<scales pt_clust_5="13000.00000" pt_clust_6="13000.00000" pt_clust_7="13000.00000" pt_clust_8="13000.00000" pt_clust_9="84.33812"></scales>
<clustering>
<clus scale="   80.041">  5  6 -1 -1</clus>
<clus scale="   84.338">  2  9  1 -1</clus>
<clus scale="   84.338">  2  5  1 -1</clus>
<clus scale="   90.480">  7  8 -1 -1</clus>
<clus scale="   84.338">  2  5  1 -1</clus>
</clustering>
</event>
<event>
 9    2  0.9254368E-005  0.9440888E+02  0.7546771E-02  0.1297415E+00
         21   -1    0    0  501  502  0.00000000000E+00  0.00000000000E+00  0.30446539248E+03  0.30446539248E+03  0.00000000000E+00 0.  1.
          2   -1    0    0  502    0 -0.00000000000E+00 -0.00000000000E+00 -0.68320096164E+02  0.68320096164E+02  0.00000000000E+00 0. -1.
         23    2    1    2    0    0  0.36663614223E+01 -0.84013798062E+01  0.26608011074E+02  0.94282857119E+02  0.89984695946E+02 0.  0.
         24    2    1    2    0    0 -0.57073369995E+02  0.17529661280E+02  0.55344656661E+02  0.11506762672E+03  0.81319549374E+02 0.  0.
        -11    1    4    4    0    0  0.62387988703E+01  0.33058579292E+02  0.82269050562E+01  0.34633426671E+02  0.00000000000E+00 0.  1.
         12    1    4    4    0    0 -0.63312168865E+02 -0.15528918011E+02  0.47117751605E+02  0.80434200048E+02  0.00000000000E+00 0. -1.
        -13    1    3    3    0    0 -0.29105807136E+02  0.10057479324E+01  0.46456778673E+02  0.54830573795E+02  0.00000000000E+00 0.  1.
         13    1    3    3    0    0  0.32772168559E+02 -0.94071277386E+01 -0.19848767599E+02  0.39452283324E+02  0.00000000000E+00 0. -1.
          1    1    1    2  501    0  0.53407008573E+02 -0.91282814742E+01  0.15419262858E+03  0.16343500481E+03  0.00000000000E+00 0. -1.
<scales pt_clust_5="13000.00000" pt_clust_6="13000.00000" pt_clust_7="13000.00000" pt_clust_8="13000.00000" pt_clust_9="54.18149"></scales>
<clustering>
<clus scale="   54.181">  1  9  2 -1</clus>
<clus scale="   81.320">  5  6 -1 -1</clus>
<clus scale="   86.190">  1  5  2 -1</clus>
<clus scale="   89.985">  7  8 -1 -1</clus>
<clus scale="   54.181">  1  5  2 -1</clus>
</clustering>
</event>
<event>
 9    2  0.9254368E-005  0.1037034E+03  0.7546771E-02  0.1275202E+00
          2   -1    0    0  502    0 -0.00000000000E+00  0.00000000000E+00  0.41261965700E+03  0.41261965700E+03  0.00000000000E+00 0. -1.
         21   -1    0    0  501  502  0.00000000000E+00 -0.00000000000E+00 -0.99937788204E+02  0.99937788204E+02  0.00000000000E+00 0.  1.
         24    2    1    2    0    0 -0.24714205327E+02 -0.52903636401E+02  0.34352787445E+03  0.35755162597E+03  0.80138492765E+02 0.  0.
         23    2    1    2    0    0 -0.43583343290E+01  0.57709210636E+02 -0.54542285591E+02  0.11719286129E+03  0.86081111451E+02 0.  0.
        -13    1    3    3    0    0 -0.10297757453E+02  0.21246944616E+02  0.83390136083E+02  0.86668282896E+02  0.00000000000E+00 0.  1.
         14    1    3    3    0    0 -0.14416447874E+02 -0.74150581017E+02  0.26013773837E+03  0.27088334308E+03  0.00000000000E+00 0. -1.
        -13    1    4    4    0    0  0.22299010442E+02  0.38895894826E+02  0.90316451384E+01  0.45735184649E+02  0.00000000000E+00 0. -1.
         13    1    4    4    0    0 -0.26657344771E+02  0.18813315811E+02 -0.63573930729E+02  0.71457676637E+02  0.00000000000E+00 0.  1.
          1    1    1    2  501    0  0.29072539656E+02 -0.48055742360E+01  0.23696279939E+02  0.37812957947E+02  0.00000000000E+00 0. -1.
<scales pt_clust_5="13000.00000" pt_clust_6="13000.00000" pt_clust_7="13000.00000" pt_clust_8="13000.00000" pt_clust_9="29.46705"></scales>
<clustering>
<clus scale="   29.467">  2  9  1 -1</clus>
<clus scale="   80.138">  5  6 -1 -1</clus>
<clus scale="   86.081">  7  8 -1 -1</clus>
<clus scale="   98.826">  1  5  2 -1</clus>
<clus scale="   29.467">  2  5  1 -1</clus>
</clustering>
</event>
<event>
 9    2  0.9254368E-005  0.9745016E+02  0.7546771E-02  0.1288960E+00
          2   -1    0    0  502    0 -0.00000000000E+00  0.00000000000E+00  0.17701633405E+03  0.17701633405E+03  0.00000000000E+00 0. -1.
         21   -1    0    0  501  502  0.00000000000E+00 -0.00000000000E+00 -0.16751201263E+03  0.16751201263E+03  0.00000000000E+00 0.  1.
         23    2    1    2    0    0 -0.11586859902E+02 -0.27964152560E+02  0.50121171684E+02  0.10627842132E+03  0.88694542313E+02 0.  0.
         24    2    1    2    0    0  0.54055526568E+02  0.69386833754E+02 -0.98289234035E+02  0.15551220714E+03  0.82381675102E+02 0.  0.
        -11    1    4    4    0    0  0.48167906764E+02  0.31615827551E+02 -0.10195569526E+03  0.11710965626E+03  0.00000000000E+00 0.  1.
         12    1    4    4    0    0  0.58876198036E+01  0.37771006202E+02  0.36664612229E+01  0.38402550884E+02  0.00000000000E+00 0. -1.
        -11    1    3    3    0    0  0.43258374019E+01  0.27203749055E+02  0.39075703112E+02  0.47808654087E+02  0.00000000000E+00 0. -1.
         11    1    3    3    0    0 -0.15912697304E+02 -0.55167901615E+02  0.11045468571E+02  0.58469767231E+02  0.00000000000E+00 0.  1.
          1    1    1    2  501    0 -0.42468666666E+02 -0.41422681193E+02  0.57672383776E+02  0.82737718219E+02  0.00000000000E+00 0. -1.
<scales pt_clust_5="13000.00000" pt_clust_6="13000.00000" pt_clust_7="13000.00000" pt_clust_8="13000.00000" pt_clust_9="59.32478"></scales>
<clustering>
<clus scale="   59.325">  2  9  1 -1</clus>
<clus scale="   82.382">  5  6 -1 -1</clus>
<clus scale="   88.695">  7  8 -1 -1</clus>
<clus scale="   91.742">  2  5  1 -1</clus>
<clus scale="   59.325">  2  5  1 -1</clus>
</clustering>
</event>
<event>
 9    2  0.9254368E-005  0.1039424E+03  0.7546771E-02  0.1277212E+00
         21   -1    0    0  501  502  0.00000000000E+00  0.00000000000E+00  0.37922614574E+02  0.37922614574E+02  0.00000000000E+00 0.  1.
          2   -1    0    0  502    0 -0.00000000000E+00 -0.00000000000E+00 -0.81763989114E+03  0.81763989114E+03  0.00000000000E+00 0. -1.
         23    2    1    2    0    0 -0.26873529575E+02 -0.36856407582E+02 -0.36957752417E+03  0.38349340395E+03  0.91646402709E+02 0.  0.
         24    2    1    2    0    0 -0.23761720693E+02  0.82573740420E+02 -0.10021976746E+03  0.15472953576E+03  0.80710504079E+02 0.  0.
        -11    1    4    4    0    0 -0.30647040328E+01  0.84512806825E+02 -0.45148430597E+02  0.95865466742E+02  0.00000000000E+00 0.  1.
         12    1    4    4    0    0 -0.20697016661E+02 -0.19390664045E+01 -0.55071336865E+02  0.58864069017E+02  0.00000000000E+00 0. -1.
        -13    1    3    3    0    0 -0.59622549165E+02 -0.19244877752E+02 -0.27069112105E+03  0.27784689436E+03  0.00000000000E+00 0. -1.
         13    1    3    3    0    0  0.32749019589E+02 -0.17611529830E+02 -0.98886403116E+02  0.10564650959E+03  0.00000000000E+00 0.  1.
          1    1    1    2  501    0  0.50635250269E+02 -0.45717332839E+02 -0.30991998493E+03  0.31733956600E+03  0.00000000000E+00 0. -1.
<scales pt_clust_5="13000.00000" pt_clust_6="13000.00000" pt_clust_7="13000.00000" pt_clust_8="13000.00000" pt_clust_9="68.22029"></scales>
<clustering>
<clus scale="   68.220">  1  9  2 -1</clus>
<clus scale="   80.711">  5  6 -1 -1</clus>
<clus scale="   91.646">  7  8 -1 -1</clus>
<clus scale="   94.441">  1  5  2 -1</clus>
<clus scale="   68.220">  1  5  2 -1</clus>
</clustering>
</event>
<event>
 9    2  0.9254368E-005  0.1429069E+03  0.7546771E-02  0.1211827E+00
         21   -1    0    0  501  502  0.00000000000E+00  0.00000000000E+00  0.83691167405E+02  0.83691167405E+02  0.00000000000E+00 0. -1.
          2   -1    0    0  502    0 -0.00000000000E+00 -0.00000000000E+00 -0.35588025689E+03  0.35588025689E+03  0.00000000000E+00 0. -1.
         23    2    1    2    0    0  0.12322652970E+03  0.62846268363E+01 -0.11123110408E+03  0.18952094191E+03  0.91222556145E+02 0.  0.
         24    2    1    2    0    0 -0.95227672166E+02  0.34648798124E+02 -0.70762742536E+02  0.14712010233E+03  0.79800438723E+02 0.  0.
        -13    1    4    4    0    0 -0.36512327036E+02  0.24233008722E+02 -0.75504151139E+02  0.87299860118E+02  0.00000000000E+00 0.  1.
         14    1    4    4    0    0 -0.58715345131E+02  0.10415789402E+02  0.47414086031E+01  0.59820242211E+02  0.00000000000E+00 0. -1.
        -13    1    3    3    0    0 -0.31664746346E+01  0.20748690044E+02 -0.36145154635E+02  0.41797211675E+02  0.00000000000E+00 0.  1.
         13    1    3    3    0    0  0.12639300434E+03 -0.14464063208E+02 -0.75085949441E+02  0.14772373023E+03  0.00000000000E+00 0. -1.
          1    1    1    2  501    0 -0.27998857537E+02 -0.40933424960E+02 -0.90195242873E+02  0.10293038006E+03  0.00000000000E+00 0. -1.
<scales pt_clust_5="13000.00000" pt_clust_6="13000.00000" pt_clust_7="13000.00000" pt_clust_8="13000.00000" pt_clust_9="49.59318"></scales>
<clustering>
<clus scale="   49.593">  1  9  2 -1</clus>
<clus scale="   79.800">  5  6 -1 -1</clus>
<clus scale="   91.223">  7  8 -1 -1</clus>
<clus scale="  135.900">  1  5  2 -1</clus>
<clus scale="   49.593">  1  5  2 -1</clus>
</clustering>
</event>
<event>
 9    2  0.9254368E-005  0.1080197E+03  0.7546771E-02  0.1268702E+00
         21   -1    0    0  501  502  0.00000000000E+00  0.00000000000E+00  0.23412318761E+03  0.23412318761E+03  0.00000000000E+00 0. -1.
          2   -1    0    0  502    0 -0.00000000000E+00 -0.00000000000E+00 -0.44065659079E+03  0.44065659079E+03  0.00000000000E+00 0. -1.
         24    2    1    2    0    0  0.64916553969E+02 -0.39485298352E+01 -0.39471781519E+03  0.40794451501E+03  0.79917606555E+02 0.  0.
         23    2    1    2    0    0  0.22007537604E+02  0.29489931722E+01  0.56853373522E+02  0.10934037953E+03  0.90719260599E+02 0.  0.
        -11    1    3    3    0    0  0.39025698085E+02 -0.41486187931E+02 -0.19948275837E+03  0.20745476564E+03  0.00000000000E+00 0.  1.
         12    1    3    3    0    0  0.25890855884E+02  0.37537658096E+02 -0.19523505682E+03  0.20048974937E+03  0.00000000000E+00 0. -1.
        -13    1    4    4    0    0 -0.21320155469E+02  0.12707874835E+01  0.62094123101E+02  0.65664633203E+02  0.00000000000E+00 0.  1.
         13    1    4    4    0    0  0.43327693073E+02  0.16782056887E+01 -0.52407495785E+01  0.43675746331E+02  0.00000000000E+00 0. -1.
          1    1    1    2  501    0 -0.86924091573E+02  0.99953666299E+00  0.13133103848E+03  0.15749488385E+03  0.00000000000E+00 0. -1.
<scales pt_clust_5="13000.00000" pt_clust_6="13000.00000" pt_clust_7="13000.00000" pt_clust_8="13000.00000" pt_clust_9="86.92984"></scales>
<clustering>
<clus scale="   79.918">  5  6 -1 -1</clus>
<clus scale="   86.930">  1  9  2 -1</clus>
<clus scale="   90.719">  7  8 -1 -1</clus>
<clus scale="   99.122">  2  5  1 -1</clus>
<clus scale="   86.930">  1  5  2 -1</clus>
</clustering>
</event>
<event>
 9    2  0.9254368E-005  0.9573001E+02  0.7546771E-02  0.1298552E+00
         21   -1    0    0  501  502  0.00000000000E+00  0.00000000000E+00  0.18049353744E+03  0.18049353744E+03  0.00000000000E+00 0.  1.
         -3   -1    0    0    0  501 -0.00000000000E+00 -0.00000000000E+00 -0.11380988522E+03  0.11380988522E+03  0.00000000000E+00 0.  1.
         24    2    1    2    0    0 -0.38700050514E+01 -0.21942384559E+01 -0.54862150708E+02  0.97332895299E+02  0.80274811152E+02 0.  0.
         23    2    1    2    0    0  0.20512549011E+02  0.22667664713E+02  0.34063325772E+02  0.10559591785E+03  0.95160916421E+02 0.  0.
        -13    1    3    3    0    0 -0.34739948702E+02 -0.18417390188E+02 -0.47549739562E+02  0.61701231994E+02  0.00000000000E+00 0.  1.
         14    1    3    3    0    0  0.30869943651E+02  0.16223151732E+02 -0.73124111457E+01  0.35631663305E+02  0.00000000000E+00 0. -1.
        -13    1    4    4    0    0 -0.25791076227E+02  0.64180289066E+01 -0.19491190212E+02  0.32958719694E+02  0.00000000000E+00 0.  1.
         13    1    4    4    0    0  0.46303625238E+02  0.16249635807E+02  0.53554515984E+02  0.72637198159E+02  0.00000000000E+00 0. -1.
         -4    1    1    2    0  502 -0.16642543959E+02 -0.20473426257E+02  0.87482477160E+02  0.91374609505E+02  0.00000000000E+00 0.  1.
<scales pt_clust_5="13000.00000" pt_clust_6="13000.00000" pt_clust_7="13000.00000" pt_clust_8="13000.00000" pt_clust_9="26.38438"></scales>
<clustering>
<clus scale="   26.384">  1  9  2 -1</clus>
<clus scale="   80.275">  5  6 -1 -1</clus>
<clus scale="   80.949">  2  5  1 -1</clus>
<clus scale="   95.161">  7  8 -1 -1</clus>
<clus scale="   26.384">  1  5  2 -1</clus>
</clustering>
</event>
<event>
 9    2  0.9254368E-005  0.9727992E+02  0.7546771E-02  0.1295746E+00
          2   -1    0    0  502    0 -0.00000000000E+00  0.00000000000E+00  0.98935113022E+02  0.98935113022E+02  0.00000000000E+00 0. -1.
         21   -1    0    0  501  502  0.00000000000E+00 -0.00000000000E+00 -0.23845192610E+03  0.23845192610E+03  0.00000000000E+00 0.  1.
         24    2    1    2    0    0  0.65423828516E+01 -0.30287816657E+01  0.56607534457E+02  0.98987323857E+02  0.80883255594E+02 0.  0.
         23    2    1    2    0    0  0.82101629711E+01  0.30889112686E+02 -0.16542639996E+03  0.19439744671E+03  0.96968703327E+02 0.  0.
        -13    1    3    3    0    0  0.26275705552E+01  0.38951692738E+02  0.27472227833E+02  0.47737425530E+02  0.00000000000E+00 0.  1.
         14    1    3    3    0    0  0.39148122965E+01 -0.41980474404E+02  0.29135306624E+02  0.51249898327E+02  0.00000000000E+00 0. -1.
        -13    1    4    4    0    0  0.14823629524E+02 -0.22383783226E+02 -0.79151287193E+01  0.27989694647E+02  0.00000000000E+00 0. -1.
         13    1    4    4    0    0 -0.66134665524E+01  0.53272895913E+02 -0.15751127124E+03  0.16640775206E+03  0.00000000000E+00 0.  1.
          1    1    1    2  501    0 -0.14752545823E+02 -0.27860331021E+02 -0.30697947582E+02  0.44002268561E+02  0.00000000000E+00 0. -1.
<scales pt_clust_5="13000.00000" pt_clust_6="13000.00000" pt_clust_7="13000.00000" pt_clust_8="13000.00000" pt_clust_9="31.52516"></scales>
<clustering>
<clus scale="   31.525">  2  9  1 -1</clus>
<clus scale="   80.883">  5  6 -1 -1</clus>
<clus scale="   81.256">  1  5  2 -1</clus>
<clus scale="   96.969">  7  8 -1 -1</clus>
<clus scale="   31.525">  2  5  1 -1</clus>
</clustering>
</event>
<event>
 9    2  0.9254368E-005  0.1097160E+03  0.7546771E-02  0.1271644E+00
         21   -1    0    0  501  502  0.00000000000E+00  0.00000000000E+00  0.66213872569E+02  0.66213872569E+02  0.00000000000E+00 0.  1.
         -3   -1    0    0    0  501 -0.00000000000E+00 -0.00000000000E+00 -0.63130015036E+03  0.63130015036E+03  0.00000000000E+00 0.  1.
         23    2    1    2    0    0 -0.31486997450E+02  0.50519963820E+02 -0.49109526904E+03  0.50332490612E+03  0.92831568414E+02 0.  0.
         24    2    1    2    0    0  0.51626374574E+02 -0.24202467421E+02  0.23280265316E+02  0.91427714102E+02  0.67572288490E+02 0.  0.
        -13    1    4    4    0    0  0.40465820762E+02 -0.46658468645E+02  0.24202129508E+02  0.66334292934E+02  0.00000000000E+00 0.  1.
         14    1    4    4    0    0  0.11160553812E+02  0.22456001224E+02 -0.92186419232E+00  0.25093421169E+02  0.00000000000E+00 0. -1.
        -13    1    3    3    0    0  0.52128839820E+01 -0.24893601219E+02 -0.88256988948E+02  0.91848579952E+02  0.00000000000E+00 0. -1.
         13    1    3    3    0    0 -0.36699881433E+02  0.75413565039E+02 -0.40283828009E+03  0.41147632617E+03  0.00000000000E+00 0.  1.
         -4    1    1    2    0  502 -0.20139377124E+02 -0.26317496399E+02 -0.97271274072E+02  0.10276140271E+03  0.00000000000E+00 0.  1.
<scales pt_clust_5="13000.00000" pt_clust_6="13000.00000" pt_clust_7="13000.00000" pt_clust_8="13000.00000" pt_clust_9="33.13919"></scales>
<clustering>
<clus scale="   33.139">  1  9  2 -1</clus>
<clus scale="   67.572">  5  6 -1 -1</clus>
<clus scale="   89.364">  1  5  2 -1</clus>
<clus scale="   92.832">  7  8 -1 -1</clus>
<clus scale="   33.139">  1  5  2 -1</clus>
</clustering>
</event>
<event>
 9    2  0.9254368E-005  0.1257282E+03  0.7546771E-02  0.1237295E+00
         21   -1    0    0  501  502  0.00000000000E+00  0.00000000000E+00  0.65531681778E+02  0.65531681778E+02  0.00000000000E+00 0. -1.
          2   -1    0    0  502    0 -0.00000000000E+00 -0.00000000000E+00 -0.39583697899E+03  0.39583697899E+03  0.00000000000E+00 0. -1.
         24    2    1    2    0    0  0.23805411573E+02  0.90935990895E+02 -0.20390001416E+03  0.23786736283E+03  0.78546893411E+02 0.  0.
         23    2    1    2    0    0 -0.59697689445E+02 -0.59677362519E+02 -0.12493994245E+03  0.17588297498E+03  0.90551808066E+02 0.  0.
        -13    1    3    3    0    0  0.29543050693E+02  0.41085926145E+00 -0.71619013064E+02  0.77474148474E+02  0.00000000000E+00 0.  1.
         14    1    3    3    0    0 -0.57376391205E+01  0.90525131634E+02 -0.13228100110E+03  0.16039321436E+03  0.00000000000E+00 0. -1.
        -13    1    4    4    0    0  0.12756812889E+02 -0.45166331027E+02 -0.67869610763E+02  0.82516772832E+02  0.00000000000E+00 0.  1.
         13    1    4    4    0    0 -0.72454502335E+02 -0.14511031492E+02 -0.57070331688E+02  0.93366202143E+02  0.00000000000E+00 0. -1.
          1    1    1    2  501    0  0.35892277873E+02 -0.31258628376E+02 -0.14653406010E+01  0.47618322964E+02  0.00000000000E+00 0. -1.
<scales pt_clust_5="13000.00000" pt_clust_6="13000.00000" pt_clust_7="13000.00000" pt_clust_8="13000.00000" pt_clust_9="47.59577"></scales>
<clustering>
<clus scale="   47.596">  1  9  2 -1</clus>
<clus scale="   78.547">  5  6 -1 -1</clus>
<clus scale="   90.552">  7  8 -1 -1</clus>
<clus scale="  117.378">  2  5  1 -1</clus>
<clus scale="   47.596">  1  5  2 -1</clus>
</clustering>
</event>
<event>
 9    2  0.9254368E-005  0.1248130E+03  0.7546771E-02  0.1239602E+00
         21   -1    0    0  501  502  0.00000000000E+00  0.00000000000E+00  0.54609824784E+03  0.54609824784E+03  0.00000000000E+00 0. -1.
          2   -1    0    0  502    0 -0.00000000000E+00 -0.00000000000E+00 -0.59901777242E+02  0.59901777242E+02  0.00000000000E+00 0. -1.
         24    2    1    2    0    0  0.43241829870E+02  0.57057754213E+02  0.74300995341E+02  0.13021022940E+03  0.79426839077E+02 0.  0.
         23    2    1    2    0    0 -0.12115107342E+03 -0.39204755764E+02  0.26635071481E+03  0.30974204027E+03  0.93716768839E+02 0.  0.
        -11    1    3    3    0    0  0.16225771848E+02  0.65875735147E+02  0.75830407949E+02  0.10175037554E+03  0.00000000000E+00 0.  1.
         12    1    3    3    0    0  0.27016058021E+02 -0.88179809339E+01 -0.15294126081E+01  0.28459853859E+02  0.00000000000E+00 0. -1.
        -11    1    4    4    0    0 -0.90917495618E+01  0.26558794378E+02  0.51699728044E+02  0.58829340883E+02  0.00000000000E+00 0.  1.
         11    1    4    4    0    0 -0.11205932386E+03 -0.65763550142E+02  0.21465098677E+03  0.25091269938E+03  0.00000000000E+00 0. -1.
          1    1    1    2  501    0  0.77909243555E+02 -0.17852998449E+02  0.14554476044E+03  0.16604775541E+03  0.00000000000E+00 0. -1.
<scales pt_clust_5="13000.00000" pt_clust_6="13000.00000" pt_clust_7="13000.00000" pt_clust_8="13000.00000" pt_clust_9="79.92859"></scales>
<clustering>
<clus scale="   79.427">  5  6 -1 -1</clus>
<clus scale="   79.929">  1  9  2 -1</clus>
<clus scale="   93.717">  7  8 -1 -1</clus>
<clus scale="  114.473">  2  5  1 -1</clus>
<clus scale="   79.929">  1  5  2 -1</clus>
</clustering>
</event>
<event>
 9    2  0.9254368E-005  0.1015764E+03  0.7546771E-02  0.1280321E+00
         21   -1    0    0  501  502  0.00000000000E+00  0.00000000000E+00  0.89471464388E+02  0.89471464388E+02  0.00000000000E+00 0.  1.
          2   -1    0    0  502    0 -0.00000000000E+00 -0.00000000000E+00 -0.50199852025E+03  0.50199852025E+03  0.00000000000E+00 0. -1.
         23    2    1    2    0    0  0.38010051335E+02 -0.38944383146E+02 -0.40817895833E+03  0.42098332986E+03  0.87495559948E+02 0.  0.
         24    2    1    2    0    0 -0.13155959985E+02  0.42765119024E+02 -0.59802738272E+02  0.10959707390E+03  0.80207333923E+02 0.  0.
        -11    1    4    4    0    0 -0.15178128474E+02  0.48363789113E+02 -0.12113052923E+01  0.50704032797E+02  0.00000000000E+00 0.  1.
         12    1    4    4    0    0  0.20221684890E+01 -0.55986700889E+01 -0.58591432979E+02  0.58893041106E+02  0.00000000000E+00 0. -1.
        -11    1    3    3    0    0  0.17029690273E+02  0.28041425523E+02 -0.12485575599E+03  0.12909411954E+03  0.00000000000E+00 0.  1.
         11    1    3    3    0    0  0.20980361062E+02 -0.66985808669E+02 -0.28332320234E+03  0.29188921032E+03  0.00000000000E+00 0. -1.
          1    1    1    2  501    0 -0.24854091350E+02 -0.38207358782E+01  0.55454640742E+02  0.60889580877E+02  0.00000000000E+00 0. -1.
<scales pt_clust_5="13000.00000" pt_clust_6="13000.00000" pt_clust_7="13000.00000" pt_clust_8="13000.00000" pt_clust_9="25.14605"></scales>
<clustering>
<clus scale="   25.146">  1  9  2 -1</clus>
<clus scale="   80.207">  5  6 -1 -1</clus>
<clus scale="   87.496">  7  8 -1 -1</clus>
<clus scale="   95.370">  1  5  2 -1</clus>
<clus scale="   25.146">  1  5  2 -1</clus>
</clustering>
</event>
<event>
 9    2  0.9254368E-005  0.1925666E+03  0.7546771E-02  0.1157128E+00
         21   -1    0    0  501  502  0.00000000000E+00  0.00000000000E+00  0.18181080372E+03  0.18181080372E+03  0.00000000000E+00 0.  1.
         -3   -1    0    0    0  501 -0.00000000000E+00 -0.00000000000E+00 -0.36540924997E+03  0.36540924997E+03  0.00000000000E+00 0.  1.
         24    2    1    2    0    0 -0.98623484523E+02 -0.17238515708E+03 -0.17580905810E+03  0.27741035782E+03  0.81267752741E+02 0.  0.
         23    2    1    2    0    0 -0.28597050894E+00  0.13388214868E+03  0.10585279090E+02  0.16209158994E+03  0.90758602233E+02 0.  0.
        -11    1    3    3    0    0 -0.96010140711E+02 -0.10801207905E+03 -0.14917413511E+03  0.20769564012E+03  0.00000000000E+00 0.  1.
         12    1    3    3    0    0 -0.26133438123E+01 -0.64373078035E+02 -0.26634922990E+02  0.69714717702E+02  0.00000000000E+00 0. -1.
        -11    1    4    4    0    0 -0.20747264630E+02  0.73676198101E+02 -0.34686281325E+02  0.84034333866E+02  0.00000000000E+00 0. -1.
         11    1    4    4    0    0  0.20461294121E+02  0.60205950583E+02  0.45271560415E+02  0.78057256070E+02  0.00000000000E+00 0.  1.
         -4    1    1    2    0  502  0.98909455032E+02  0.38503008399E+02 -0.18374667243E+02  0.10771810594E+03  0.00000000000E+00 0.  1.
<scales pt_clust_5="13000.00000" pt_clust_6="13000.00000" pt_clust_7="13000.00000" pt_clust_8="13000.00000" pt_clust_9="106.13935"></scales>
<clustering>
<clus scale="   81.268">  5  6 -1 -1</clus>
<clus scale="   90.759">  7  8 -1 -1</clus>
<clus scale="  106.139">  1  9  2 -1</clus>
<clus scale="  188.280">  2  5  1 -1</clus>
<clus scale="  106.139">  1  5  2 -1</clus>
</clustering>
</event>
<event>
 9    2  0.9254368E-005  0.1256591E+03  0.7546771E-02  0.1237261E+00
          2   -1    0    0  502    0 -0.00000000000E+00  0.00000000000E+00  0.36976786158E+02  0.36976786158E+02  0.00000000000E+00 0. -1.
         21   -1    0    0  501  502  0.00000000000E+00 -0.00000000000E+00 -0.76610459084E+03  0.76610459084E+03  0.00000000000E+00 0. -1.
         23    2    1    2    0    0 -0.98163055065E+00  0.91051201352E+02 -0.12061852682E+03  0.17664068747E+03  0.91442979995E+02 0.  0.
         24    2    1    2    0    0 -0.14372279615E+02 -0.67448450955E+02 -0.56368005098E+03  0.57350212168E+03  0.80085128057E+02 0.  0.
        -13    1    4    4    0    0  0.28014959831E+02 -0.19799274037E+02 -0.10632748532E+03  0.11172458710E+03  0.00000000000E+00 0.  1.
         14    1    4    4    0    0 -0.42387239446E+02 -0.47649176918E+02 -0.45735256566E+03  0.46177753458E+03  0.00000000000E+00 0. -1.
        -11    1    3    3    0    0  0.44368915442E+02  0.54347198787E+02 -0.57727614196E+02  0.90855358204E+02  0.00000000000E+00 0.  1.
         11    1    3    3    0    0 -0.45350545993E+02  0.36704002565E+02 -0.62890912623E+02  0.85785329263E+02  0.00000000000E+00 0. -1.
          1    1    1    2  501    0  0.15353910165E+02 -0.23602750398E+02 -0.44829226882E+02  0.52938567855E+02  0.00000000000E+00 0. -1.
<scales pt_clust_5="13000.00000" pt_clust_6="13000.00000" pt_clust_7="13000.00000" pt_clust_8="13000.00000" pt_clust_9="28.15729"></scales>
<clustering>
<clus scale="   28.157">  2  9  1 -1</clus>
<clus scale="   80.085">  5  6 -1 -1</clus>
<clus scale="   91.443">  7  8 -1 -1</clus>
<clus scale="  117.652">  2  5  1 -1</clus>
<clus scale="   28.157">  2  5  1 -1</clus>
</clustering>
</event>
<event>
 9    2  0.9254368E-005  0.2269232E+03  0.7546771E-02  0.1156829E+00
         21   -1    0    0  501  502  0.00000000000E+00  0.00000000000E+00  0.24792926240E+03  0.24792926240E+03  0.00000000000E+00 0. -1.
          2   -1    0    0  502    0 -0.00000000000E+00 -0.00000000000E+00 -0.41617425518E+03  0.41617425518E+03  0.00000000000E+00 0. -1.
         24    2    1    2    0    0  0.32242894597E+02  0.76573845012E+02 -0.18440268704E+03  0.21778190205E+03  0.80755482051E+02 0.  0.
         23    2    1    2    0    0 -0.14864174302E+03  0.11605137982E+03 -0.40707179361E+02  0.21418634676E+03  0.93039917033E+02 0.  0.
        -13    1    3    3    0    0  0.15365886676E+02  0.36110964769E+02 -0.13743269397E+02  0.41581121962E+02  0.00000000000E+00 0.  1.
         14    1    3    3    0    0  0.16877007921E+02  0.40462880244E+02 -0.17065941764E+03  0.17620078009E+03  0.00000000000E+00 0. -1.
        -11    1    4    4    0    0 -0.55689513032E+02 -0.37368159815E+01 -0.26835356421E+02  0.61930784023E+02  0.00000000000E+00 0.  1.
         11    1    4    4    0    0 -0.92952229985E+02  0.11978819580E+03 -0.13871822940E+02  0.15225556274E+03  0.00000000000E+00 0. -1.
          1    1    1    2  501    0  0.11639884842E+03 -0.19262522483E+03  0.56864873621E+02  0.23213526877E+03  0.00000000000E+00 0. -1.
<scales pt_clust_5="13000.00000" pt_clust_6="13000.00000" pt_clust_7="13000.00000" pt_clust_8="13000.00000" pt_clust_9="206.97277"></scales>
<clustering>
<clus scale="   80.755">  5  6 -1 -1</clus>
<clus scale="   93.040">  7  8 -1 -1</clus>
<clus scale="  115.865">  2  5  1 -1</clus>
<clus scale="  206.973">  1  9  2 -1</clus>
<clus scale="  206.973">  1  5  2 -1</clus>
</clustering>
</event>
<event>
 9    2  0.9254368E-005  0.1085662E+03  0.7546771E-02  0.1266116E+00
         21   -1    0    0  501  502  0.00000000000E+00  0.00000000000E+00  0.20003154723E+03  0.20003154723E+03  0.00000000000E+00 0. -1.
          2   -1    0    0  502    0 -0.00000000000E+00 -0.00000000000E+00 -0.22821378324E+03  0.22821378324E+03  0.00000000000E+00 0. -1.
         24    2    1    2    0    0 -0.13258263499E+02  0.71675467070E+02 -0.14897494790E+03  0.18507145403E+03  0.82126450454E+02 0.  0.
         23    2    1    2    0    0  0.80088427888E+02 -0.42486173868E+02  0.20074080094E+02  0.11882546069E+03  0.74143712915E+02 0.  0.
        -11    1    3    3    0    0 -0.30712535589E+02  0.34295613365E+02 -0.20980309455E+02  0.50592710179E+02  0.00000000000E+00 0.  1.
         12    1    3    3    0    0  0.17454272091E+02  0.37379853705E+02 -0.12799463844E+03  0.13447874385E+03  0.00000000000E+00 0. -1.
        -13    1    4    4    0    0  0.28533626411E+02  0.19036944036E+02  0.17520126790E+02  0.38516592751E+02  0.00000000000E+00 0. -1.
         13    1    4    4    0    0  0.51554801477E+02 -0.61523117904E+02  0.25539533039E+01  0.80308867938E+02  0.00000000000E+00 0.  1.
          1    1    1    2  501    0 -0.66830164389E+02 -0.29189293201E+02  0.10071863179E+03  0.12434841575E+03  0.00000000000E+00 0. -1.
<scales pt_clust_5="13000.00000" pt_clust_6="13000.00000" pt_clust_7="13000.00000" pt_clust_8="13000.00000" pt_clust_9="72.92658"></scales>
<clustering>
<clus scale="   72.927">  1  9  2 -1</clus>
<clus scale="   74.144">  7  8 -1 -1</clus>
<clus scale="   82.126">  5  6 -1 -1</clus>
<clus scale="  102.660">  1  7  2 -1</clus>
<clus scale="   72.927">  1  5  2 -1</clus>
</clustering>
</event>
<event>
 9    2  0.9254368E-005  0.1092816E+03  0.7546771E-02  0.1266772E+00
         21   -1    0    0  501  502  0.00000000000E+00  0.00000000000E+00  0.26875897750E+03  0.26875897750E+03  0.00000000000E+00 0. -1.
         -1   -1    0    0    0  501 -0.00000000000E+00 -0.00000000000E+00 -0.10364200653E+03  0.10364200653E+03  0.00000000000E+00 0.  1.
         23    2    1    2    0    0 -0.16847071510E+02 -0.52556559474E+02 -0.49326236904E+02  0.11818306622E+03  0.92131122499E+02 0.  0.
         24    2    1    2    0    0  0.25852934573E+02  0.71857047238E+02  0.15054183490E+03  0.18686066234E+03  0.80138964362E+02 0.  0.
        -11    1    4    4    0    0  0.22023669882E+02  0.62440877467E+01  0.32419676063E+00  0.22894011671E+02  0.00000000000E+00 0.  1.
         12    1    4    4    0    0  0.38292646911E+01  0.65612959492E+02  0.15021763814E+03  0.16396665067E+03  0.00000000000E+00 0. -1.
        -11    1    3    3    0    0 -0.33366604940E+02  0.15907033300E+02 -0.16467494290E+02  0.40466559056E+02  0.00000000000E+00 0.  1.
         11    1    3    3    0    0  0.16519533431E+02 -0.68463592774E+02 -0.32858742613E+02  0.77716507168E+02  0.00000000000E+00 0. -1.
         -2    1    1    2    0  502 -0.90058630629E+01 -0.19300487764E+02  0.63901372962E+02  0.67357255466E+02  0.00000000000E+00 0.  1.
<scales pt_clust_5="13000.00000" pt_clust_6="13000.00000" pt_clust_7="13000.00000" pt_clust_8="13000.00000" pt_clust_9="21.29823"></scales>
<clustering>
<clus scale="   21.298">  1  9  2 -1</clus>
<clus scale="   80.139">  5  6 -1 -1</clus>
<clus scale="   92.131">  7  8 -1 -1</clus>
<clus scale="   99.381">  1  5  2 -1</clus>
<clus scale="   21.298">  1  5  2 -1</clus>
</clustering>
</event>
<event>
 9    2  0.9254368E-005  0.1186975E+03  0.7546771E-02  0.1249198E+00
         21   -1    0    0  501  502  0.00000000000E+00  0.00000000000E+00  0.34509167440E+03  0.34509167440E+03  0.00000000000E+00 0.  1.
         -1   -1    0    0    0  501 -0.00000000000E+00 -0.00000000000E+00 -0.83078078193E+02  0.83078078193E+02  0.00000000000E+00 0.  1.
         24    2    1    2    0    0  0.68115704618E+02  0.30132538195E+01  0.20044556012E+02  0.10651381028E+03  0.79338380625E+02 0.  0.
         23    2    1    2    0    0 -0.10611376053E+03  0.24674471059E+02  0.23421408240E+03  0.27400511092E+03  0.91398056413E+02 0.  0.
        -13    1    3    3    0    0  0.74851780239E+02  0.75070861496E+01  0.39840434406E+02  0.85125821941E+02  0.00000000000E+00 0.  1.
         14    1    3    3    0    0 -0.67360756211E+01 -0.44938323301E+01 -0.19795878394E+02  0.21387988338E+02  0.00000000000E+00 0. -1.
        -11    1    4    4    0    0 -0.45061336428E+02 -0.21028985290E+02  0.16016246436E+03  0.16770437458E+03  0.00000000000E+00 0.  1.
         11    1    4    4    0    0 -0.61052424104E+02  0.45703456349E+02  0.74051618046E+02  0.10630073634E+03  0.00000000000E+00 0. -1.
         -2    1    1    2    0  502  0.37998055915E+02 -0.27687724879E+02  0.77549577887E+01  0.47650831394E+02  0.00000000000E+00 0.  1.
<scales pt_clust_5="13000.00000" pt_clust_6="13000.00000" pt_clust_7="13000.00000" pt_clust_8="13000.00000" pt_clust_9="47.01558"></scales>
<clustering>
<clus scale="   47.016">  1  9  2 -1</clus>
<clus scale="   79.338">  5  6 -1 -1</clus>
<clus scale="   91.398">  7  8 -1 -1</clus>
<clus scale="  109.682">  2  5  1 -1</clus>
<clus scale="   47.016">  1  5  2 -1</clus>
</clustering>
</event>
<event>
 9    2  0.9254368E-005  0.2163293E+03  0.7546771E-02  0.1160189E+00
          2   -1    0    0  502    0 -0.00000000000E+00  0.00000000000E+00  0.26610790019E+03  0.26610790019E+03  0.00000000000E+00 0. -1.
         21   -1    0    0  501  502  0.00000000000E+00 -0.00000000000E+00 -0.45981639137E+03  0.45981639137E+03  0.00000000000E+00 0. -1.
         24    2    1    2    0    0  0.68765995307E+02 -0.63734692823E+02  0.22939389138E+02  0.12575500873E+03  0.80605418345E+02 0.  0.
         23    2    1    2    0    0 -0.19367219850E+03 -0.89060450764E+02  0.79359572856E+02  0.24440485539E+03  0.89415363175E+02 0.  0.
        -11    1    3    3    0    0  0.75318426783E+02 -0.77467993908E+02  0.16793319103E+02  0.10934427767E+03  0.00000000000E+00 0.  1.
         12    1    3    3    0    0 -0.65524314766E+01  0.13733301084E+02  0.61460700348E+01  0.16410731056E+02  0.00000000000E+00 0. -1.
        -13    1    4    4    0    0 -0.26731040502E+02 -0.32812574375E+02  0.50507327015E+02  0.65895399275E+02  0.00000000000E+00 0.  1.
         13    1    4    4    0    0 -0.16694115800E+03 -0.56247876389E+02  0.28852245841E+02  0.17850945611E+03  0.00000000000E+00 0. -1.
          1    1    1    2  501    0  0.12490620319E+03  0.15279514359E+03 -0.29600745317E+03  0.35576442744E+03  0.00000000000E+00 0. -1.
<scales pt_clust_5="13000.00000" pt_clust_6="13000.00000" pt_clust_7="13000.00000" pt_clust_8="13000.00000" pt_clust_9="196.98544"></scales>
<clustering>
<clus scale="   80.605">  5  6 -1 -1</clus>
<clus scale="   89.415">  7  8 -1 -1</clus>
<clus scale="  123.645">  1  5  2 -1</clus>
<clus scale="  196.985">  2  9  1 -1</clus>
<clus scale="  196.985">  2  5  1 -1</clus>
</clustering>
</event>
<event>
 9    2  0.9254368E-005  0.1103496E+03  0.7546771E-02  0.1265839E+00
         21   -1    0    0  501  502  0.00000000000E+00  0.00000000000E+00  0.82600977441E+03  0.82600977441E+03  0.00000000000E+00 0. -1.
          2   -1    0    0  502    0 -0.00000000000E+00 -0.00000000000E+00 -0.30348086142E+02  0.30348086142E+02  0.00000000000E+00 0. -1.
         24    2    1    2    0    0 -0.39202509157E+02 -0.77269563689E+02  0.17809508842E+03  0.21300906703E+03  0.78406504314E+02 0.  0.
         23    2    1    2    0    0  0.21308854842E+02  0.20306293589E+02  0.21182219356E+03  0.23323476031E+03  0.93077381138E+02 0.  0.
        -13    1    3    3    0    0  0.63970580890E+01 -0.40911594475E+02  0.13297360337E+03  0.13927189274E+03  0.00000000000E+00 0.  1.
         14    1    3    3    0    0 -0.45599567246E+02 -0.36357969214E+02  0.45121485055E+02  0.73737174288E+02  0.00000000000E+00 0. -1.
        -13    1    4    4    0    0 -0.57684575087E+01  0.53561175907E+02  0.13312091356E+03  0.14360798130E+03  0.00000000000E+00 0.  1.
         13    1    4    4    0    0  0.27077312350E+02 -0.33254882319E+02  0.78701280003E+02  0.89626779013E+02  0.00000000000E+00 0. -1.
          1    1    1    2  501    0  0.17893654315E+02  0.56963270100E+02  0.40574440628E+03  0.41011403321E+03  0.00000000000E+00 0. -1.
<scales pt_clust_5="13000.00000" pt_clust_6="13000.00000" pt_clust_7="13000.00000" pt_clust_8="13000.00000" pt_clust_9="59.70760"></scales>
<clustering>
<clus scale="   59.708">  1  9  2 -1</clus>
<clus scale="   78.407">  5  6 -1 -1</clus>
<clus scale="   93.077">  7  8 -1 -1</clus>
<clus scale="   98.291">  2  5  1 -1</clus>
<clus scale="   59.708">  1  5  2 -1</clus>
</clustering>
</event>
<event>
 9    2  0.9254368E-005  0.2064696E+03  0.7546771E-02  0.1182085E+00
         -1   -1    0    0    0  501 -0.00000000000E+00  0.00000000000E+00  0.42206078613E+03  0.42206078613E+03  0.00000000000E+00 0.  1.
         21   -1    0    0  501  502  0.00000000000E+00 -0.00000000000E+00 -0.34869457468E+03  0.34869457468E+03  0.00000000000E+00 0.  1.
         24    2    1    2    0    0 -0.10854016752E+02 -0.29123833081E+02  0.52892780226E+02  0.10119374999E+03  0.80476838303E+02 0.  0.
         23    2    1    2    0    0 -0.17404846411E+03  0.50754540070E+02  0.28278300456E+03  0.34790476389E+03  0.90568238741E+02 0.  0.
        -13    1    3    3    0    0 -0.77875228795E+01 -0.54478175121E+02  0.51885485805E+02  0.75634785081E+02  0.00000000000E+00 0.  1.
         14    1    3    3    0    0 -0.30664938720E+01  0.25354342040E+02  0.10072944209E+01  0.25558964905E+02  0.00000000000E+00 0. -1.
        -11    1    4    4    0    0 -0.16529404923E+03  0.16446714411E+02  0.24616838109E+03  0.29697051870E+03  0.00000000000E+00 0.  1.
         11    1    4    4    0    0 -0.87544148873E+01  0.34307825659E+02  0.36614623469E+02  0.50934245192E+02  0.00000000000E+00 0. -1.
         -2    1    1    2    0  502  0.18490248086E+03 -0.21630706989E+02 -0.26230957334E+03  0.32165684694E+03  0.00000000000E+00 0.  1.
<scales pt_clust_5="13000.00000" pt_clust_6="13000.00000" pt_clust_7="13000.00000" pt_clust_8="13000.00000" pt_clust_9="185.54543"></scales>
<clustering>
<clus scale="   80.477">  5  6 -1 -1</clus>
<clus scale="   86.270">  1  5  2 -1</clus>
<clus scale="   90.568">  7  8 -1 -1</clus>
<clus scale="  185.545">  2  9  1 -1</clus>
<clus scale="  185.545">  2  5  1 -1</clus>
</clustering>
</event>
<event>
 9    2  0.9254368E-005  0.1008658E+03  0.7546771E-02  0.1283605E+00
         21   -1    0    0  501  502  0.00000000000E+00  0.00000000000E+00  0.49113152449E+03  0.49113152449E+03  0.00000000000E+00 0.  1.
          2   -1    0    0  502    0 -0.00000000000E+00 -0.00000000000E+00 -0.53489216738E+02  0.53489216738E+02  0.00000000000E+00 0. -1.
         23    2    1    2    0    0 -0.11698705026E+02 -0.23324625480E+02  0.46059416417E+02  0.10539944981E+03  0.91140969524E+02 0.  0.
         24    2    1    2    0    0  0.60541485384E+02  0.74122182329E+02  0.21041727551E+03  0.24483253317E+03  0.80673230393E+02 0.  0.
        -13    1    4    4    0    0  0.64411496043E+02  0.19932694477E+02  0.14417065466E+03  0.15915819425E+03  0.00000000000E+00 0.  1.
         14    1    4    4    0    0 -0.38700106587E+01  0.54189487852E+02  0.66246620844E+02  0.85674338920E+02  0.00000000000E+00 0. -1.
        -11    1    3    3    0    0  0.29073258111E+02  0.17428664730E+02  0.41970954862E+01  0.34155940947E+02  0.00000000000E+00 0.  1.
         11    1    3    3    0    0 -0.40771963137E+02 -0.40753290209E+02  0.41862320931E+02  0.71243508860E+02  0.00000000000E+00 0. -1.
          1    1    1    2  501    0 -0.48842780358E+02 -0.50797556849E+02  0.18116561582E+03  0.19438875825E+03  0.00000000000E+00 0. -1.
<scales pt_clust_5="13000.00000" pt_clust_6="13000.00000" pt_clust_7="13000.00000" pt_clust_8="13000.00000" pt_clust_9="70.46992"></scales>
<clustering>
<clus scale="   70.470">  1  9  2 -1</clus>
<clus scale="   80.673">  5  6 -1 -1</clus>
<clus scale="   91.141">  7  8 -1 -1</clus>
<clus scale="   91.517">  1  5  2 -1</clus>
<clus scale="   70.470">  1  5  2 -1</clus>
</clustering>
</event>
<event>
 9    2  0.9254368E-005  0.1926686E+03  0.7546771E-02  0.1174278E+00
         -1   -1    0    0    0  501 -0.00000000000E+00  0.00000000000E+00  0.73767126551E+03  0.73767126551E+03  0.00000000000E+00 0.  1.
         21   -1    0    0  501  502  0.00000000000E+00 -0.00000000000E+00 -0.18620861544E+03  0.18620861544E+03  0.00000000000E+00 0.  1.
         23    2    1    2    0    0  0.21542804803E+02  0.82832871231E+02 -0.34092105384E+02  0.13111628004E+03  0.93294320555E+02 0.  0.
         24    2    1    2    0    0  0.13234698438E+03 -0.16005537983E+03  0.57903946876E+03  0.62046202805E+03  0.80950435342E+02 0.  0.
        -13    1    4    4    0    0  0.50247207475E+02 -0.56986788737E+02  0.33084744669E+03  0.33945884718E+03  0.00000000000E+00 0.  1.
         14    1    4    4    0    0  0.82099776906E+02 -0.10306859109E+03  0.24819202207E+03  0.28100318087E+03  0.00000000000E+00 0. -1.
        -13    1    3    3    0    0  0.29217468980E+02  0.33797202422E+02 -0.60254741981E+02  0.75010301401E+02  0.00000000000E+00 0.  1.
         13    1    3    3    0    0 -0.76746641765E+01  0.49035668809E+02  0.26162636597E+02  0.56105978642E+02  0.00000000000E+00 0. -1.
         -2    1    1    2    0  502 -0.15388978918E+03  0.77222508597E+02  0.65152866964E+01  0.17230157286E+03  0.00000000000E+00 0.  1.
<scales pt_clust_5="13000.00000" pt_clust_6="13000.00000" pt_clust_7="13000.00000" pt_clust_8="13000.00000" pt_clust_9="174.83763"></scales>
<clustering>
<clus scale="   80.950">  5  6 -1 -1</clus>
<clus scale="   93.294">  7  8 -1 -1</clus>
<clus scale="  126.607">  1  7  2 -1</clus>
<clus scale="  174.838">  2  9  1 -1</clus>
<clus scale="  174.838">  2  5  1 -1</clus>
</clustering>
</event>
<event>
 9    2  0.1136372E-004  0.1591689E+03  0.7546771E-02  0.1199262E+00
         21   -1    0    0  501  502  0.00000000000E+00  0.00000000000E+00  0.18767423588E+03  0.18767423588E+03  0.00000000000E+00 0.  1.
         -3   -1    0    0    0  501 -0.00000000000E+00 -0.00000000000E+00 -0.53514719335E+03  0.53514719335E+03  0.00000000000E+00 0.  1.
         24    2    1    2    0    0 -0.87870015913E+02  0.49122796454E+02 -0.14306820220E+03  0.19256375051E+03  0.80486636797E+02 0.  0.
         23    2    1    2    0    0 -0.42946521297E+02 -0.12459726480E+03  0.10095357338E+03  0.18959204990E+03  0.91567676185E+02 0.  0.
        -13    1    3    3    0    0 -0.91532491395E+02  0.13824030284E+02 -0.11279142098E+03  0.14591506242E+03  0.00000000000E+00 0.  1.
         14    1    3    3    0    0  0.36624754824E+01  0.35298766170E+02 -0.30276781221E+02  0.46648688094E+02  0.00000000000E+00 0. -1.
        -13    1    4    4    0    0 -0.53897455707E+01 -0.66434181691E+02 -0.63357051395E+00  0.66655466886E+02  0.00000000000E+00 0. -1.
         13    1    4    4    0    0 -0.37556775726E+02 -0.58163083106E+02  0.10158714389E+03  0.12293658302E+03  0.00000000000E+00 0.  1.
         -4    1    1    2    0  502  0.13081653721E+03  0.75474468343E+02 -0.30535832865E+03  0.34066562881E+03  0.00000000000E+00 0.  1.
<scales pt_clust_5="13000.00000" pt_clust_6="13000.00000" pt_clust_7="13000.00000" pt_clust_8="13000.00000" pt_clust_9="130.19261"></scales>
<clustering>
<clus scale="   80.487">  5  6 -1 -1</clus>
<clus scale="   91.568">  7  8 -1 -1</clus>
<clus scale="  128.889">  2  5  1 -1</clus>
<clus scale="  130.193">  1  9  2 -1</clus>
<clus scale="  130.193">  1  5  2 -1</clus>
</clustering>
</event>
<event>
 9    2  0.9254368E-005  0.1215435E+03  0.7546771E-02  0.1246571E+00
          2   -1    0    0  502    0 -0.00000000000E+00  0.00000000000E+00  0.42486316475E+03  0.42486316475E+03  0.00000000000E+00 0. -1.
         21   -1    0    0  501  502  0.00000000000E+00 -0.00000000000E+00 -0.83603313826E+02  0.83603313826E+02  0.00000000000E+00 0. -1.
         24    2    1    2    0    0  0.49996961878E+02  0.36207424034E+02  0.24553124215E+03  0.26595259370E+03  0.81452547372E+02 0.  0.
         23    2    1    2    0    0 -0.74765448320E+02 -0.58883413876E+02  0.13379176168E+03  0.19175482613E+03  0.99058311894E+02 0.  0.
        -13    1    3    3    0    0  0.50361964724E+02 -0.45541825524E+01  0.73885200925E+02  0.89532625256E+02  0.00000000000E+00 0.  1.
         14    1    3    3    0    0 -0.36500284589E+00  0.40761606586E+02  0.17164604122E+03  0.17641996844E+03  0.00000000000E+00 0. -1.
        -13    1    4    4    0    0 -0.78358915691E+02 -0.25916059620E+01  0.95589577807E+02  0.12362929861E+03  0.00000000000E+00 0. -1.
         13    1    4    4    0    0  0.35934673713E+01 -0.56291807914E+02  0.38202183877E+02  0.68125527514E+02  0.00000000000E+00 0.  1.
          1    1    1    2  501    0  0.24768486442E+02  0.22675989842E+02 -0.38063152908E+02  0.50759058751E+02  0.00000000000E+00 0. -1.
<scales pt_clust_5="13000.00000" pt_clust_6="13000.00000" pt_clust_7="13000.00000" pt_clust_8="13000.00000" pt_clust_9="33.58092"></scales>
<clustering>
<clus scale="   33.581">  2  9  1 -1</clus>
<clus scale="   81.453">  5  6 -1 -1</clus>
<clus scale="   99.058">  7  8 -1 -1</clus>
<clus scale="  107.679">  1  5  2 -1</clus>
<clus scale="   33.581">  2  5  1 -1</clus>
</clustering>
</event>
<event>
 9    2  0.9254368E-005  0.1263419E+03  0.7546771E-02  0.1236031E+00
         21   -1    0    0  501  502  0.00000000000E+00  0.00000000000E+00  0.60700183846E+03  0.60700183846E+03  0.00000000000E+00 0. -1.
          2   -1    0    0  502    0 -0.00000000000E+00 -0.00000000000E+00 -0.15724229429E+03  0.15724229429E+03  0.00000000000E+00 0. -1.
         23    2    1    2    0    0 -0.10669348367E+03 -0.12283081720E+02 -0.98404372046E+02  0.17258995129E+03  0.92571579297E+02 0.  0.
         24    2    1    2    0    0  0.25309535221E+02 -0.16997265080E+02  0.90024839380E+02  0.12542237269E+03  0.81834102139E+02 0.  0.
        -11    1    4    4    0    0 -0.10657694292E+02  0.21210838319E+02  0.61000473980E+02  0.65456427764E+02  0.00000000000E+00 0.  1.
         12    1    4    4    0    0  0.35967229513E+02 -0.38208103399E+02  0.29024365399E+02  0.59965944927E+02  0.00000000000E+00 0. -1.
        -11    1    3    3    0    0 -0.82163620014E+02  0.33029332208E+02 -0.49005163862E+02  0.10120920573E+03  0.00000000000E+00 0.  1.
         11    1    3    3    0    0 -0.24529863660E+02 -0.45312413928E+02 -0.49399208184E+02  0.71380745557E+02  0.00000000000E+00 0. -1.
          1    1    1    2  501    0  0.81383948453E+02  0.29280346800E+02  0.45813907684E+03  0.46623180876E+03  0.00000000000E+00 0. -1.
<scales pt_clust_5="13000.00000" pt_clust_6="13000.00000" pt_clust_7="13000.00000" pt_clust_8="13000.00000" pt_clust_9="86.49096"></scales>
<clustering>
<clus scale="   81.834">  5  6 -1 -1</clus>
<clus scale="   86.491">  1  9  2 -1</clus>
<clus scale="   92.572">  7  8 -1 -1</clus>
<clus scale="  118.700">  1  5  2 -1</clus>
<clus scale="   86.491">  1  5  2 -1</clus>
</clustering>
</event>
<event>
 9    2  0.9254368E-005  0.1079243E+03  0.7546771E-02  0.1270248E+00
          2   -1    0    0  502    0 -0.00000000000E+00  0.00000000000E+00  0.23037173461E+03  0.23037173461E+03  0.00000000000E+00 0. -1.
         21   -1    0    0  501  502  0.00000000000E+00 -0.00000000000E+00 -0.10119952156E+03  0.10119952156E+03  0.00000000000E+00 0.  1.
         23    2    1    2    0    0 -0.33625542836E+02 -0.31476801929E+02  0.82484770811E+02  0.13284412745E+03  0.93393568251E+02 0.  0.
         24    2    1    2    0    0  0.39097995320E+02  0.68775276603E+02 -0.27307666424E+02  0.11568256204E+03  0.79862723495E+02 0.  0.
        -11    1    4    4    0    0  0.40839590207E+02  0.22737153425E+02 -0.46354069191E+02  0.65829704577E+02  0.00000000000E+00 0.  1.
         12    1    4    4    0    0 -0.17415948875E+01  0.46038123178E+02  0.19046402767E+02  0.49852857459E+02  0.00000000000E+00 0. -1.
        -13    1    3    3    0    0 -0.56963914597E+02 -0.20723801366E+02  0.87713689054E+02  0.10662108026E+03  0.00000000000E+00 0.  1.
         13    1    3    3    0    0  0.23338371761E+02 -0.10753000563E+02 -0.52289182425E+01  0.26223047183E+02  0.00000000000E+00 0. -1.
          1    1    1    2  501    0 -0.54724524834E+01 -0.37298474674E+02  0.73995108668E+02  0.83044566685E+02  0.00000000000E+00 0. -1.
<scales pt_clust_5="13000.00000" pt_clust_6="13000.00000" pt_clust_7="13000.00000" pt_clust_8="13000.00000" pt_clust_9="37.69782"></scales>
<clustering>
<clus scale="   37.698">  2  9  1 -1</clus>
<clus scale="   79.863">  5  6 -1 -1</clus>
<clus scale="   93.394">  7  8 -1 -1</clus>
<clus scale="   96.454">  2  5  1 -1</clus>
<clus scale="   37.698">  2  5  1 -1</clus>
</clustering>
</event>
<event>
 9    2  0.9254368E-005  0.1095543E+03  0.7546771E-02  0.1266213E+00
         -1   -1    0    0    0  501 -0.00000000000E+00  0.00000000000E+00  0.53594848080E+03  0.53594848080E+03  0.00000000000E+00 0.  1.
         21   -1    0    0  501  502  0.00000000000E+00 -0.00000000000E+00 -0.29973912366E+02  0.29973912366E+02  0.00000000000E+00 0. -1.
         23    2    1    2    0    0 -0.19461408324E+02 -0.63840072585E+02  0.34395596526E+03  0.36217236726E+03  0.91699598109E+02 0.  0.
         24    2    1    2    0    0  0.17317390550E+02  0.42306403964E+02  0.90228008642E+02  0.12876879385E+03  0.79690557116E+02 0.  0.
        -11    1    4    4    0    0 -0.13098990845E+02  0.41077653339E+02  0.11891404086E+02  0.44725413985E+02  0.00000000000E+00 0.  1.
         12    1    4    4    0    0  0.30416381395E+02  0.12287506253E+01  0.78336604556E+02  0.84043379862E+02  0.00000000000E+00 0. -1.
        -11    1    3    3    0    0  0.25647603907E+02 -0.35062030143E+02  0.65327226059E+02  0.78452482488E+02  0.00000000000E+00 0.  1.
         11    1    3    3    0    0 -0.45109012231E+02 -0.28778042442E+02  0.27862873920E+03  0.28371988478E+03  0.00000000000E+00 0. -1.
         -2    1    1    2    0  502  0.21440177739E+01  0.21533668621E+02  0.71790594537E+02  0.74981232055E+02  0.00000000000E+00 0.  1.
<scales pt_clust_5="13000.00000" pt_clust_6="13000.00000" pt_clust_7="13000.00000" pt_clust_8="13000.00000" pt_clust_9="21.64015"></scales>
<clustering>
<clus scale="   21.640">  2  9  1 -1</clus>
<clus scale="   79.691">  5  6 -1 -1</clus>
<clus scale="   91.700">  7  8 -1 -1</clus>
<clus scale="   99.719">  2  5  1 -1</clus>
<clus scale="   21.640">  2  5  1 -1</clus>
</clustering>
</event>
<event>
 9    2  0.9254368E-005  0.1107542E+03  0.7546771E-02  0.1263010E+00
         21   -1    0    0  501  502  0.00000000000E+00  0.00000000000E+00  0.39220652357E+02  0.39220652357E+02  0.00000000000E+00 0.  1.
          2   -1    0    0  502    0 -0.00000000000E+00 -0.00000000000E+00 -0.96005440867E+03  0.96005440867E+03  0.00000000000E+00 0. -1.
         24    2    1    2    0    0 -0.58723611406E+02 -0.19192824229E+02 -0.42795839517E+03  0.43958877728E+03  0.79202765541E+02 0.  0.
         23    2    1    2    0    0  0.51857844055E+02  0.91719343597E+02 -0.13044475722E+03  0.19000645278E+03  0.89358510676E+02 0.  0.
        -13    1    3    3    0    0 -0.65730472755E+02  0.38513276868E+01 -0.38267590683E+03  0.38829908246E+03  0.00000000000E+00 0.  1.
         14    1    3    3    0    0  0.70068613483E+01 -0.23044151916E+02 -0.45282488345E+02  0.51289694815E+02  0.00000000000E+00 0. -1.
        -11    1    4    4    0    0  0.53143897035E+01  0.26201137870E+02 -0.10089780609E+03  0.10437964187E+03  0.00000000000E+00 0. -1.
         11    1    4    4    0    0  0.46543454352E+02  0.65518205727E+02 -0.29546951133E+02  0.85626810906E+02  0.00000000000E+00 0.  1.
          1    1    1    2  501    0  0.68657673510E+01 -0.72526519368E+02 -0.36243060391E+03  0.36967983097E+03  0.00000000000E+00 0. -1.
<scales pt_clust_5="13000.00000" pt_clust_6="13000.00000" pt_clust_7="13000.00000" pt_clust_8="13000.00000" pt_clust_9="72.85081"></scales>
<clustering>
<clus scale="   72.851">  1  9  2 -1</clus>
<clus scale="   79.203">  5  6 -1 -1</clus>
<clus scale="   89.359">  7  8 -1 -1</clus>
<clus scale="  102.736">  2  5  1 -1</clus>
<clus scale="   72.851">  1  5  2 -1</clus>
</clustering>
</event>
<event>
 9    2  0.9254368E-005  0.9748609E+02  0.7546771E-02  0.1289706E+00
         21   -1    0    0  501  502  0.00000000000E+00  0.00000000000E+00  0.11736911380E+03  0.11736911380E+03  0.00000000000E+00 0. -1.
          2   -1    0    0  502    0 -0.00000000000E+00 -0.00000000000E+00 -0.19761908575E+03  0.19761908575E+03  0.00000000000E+00 0. -1.
         23    2    1    2    0    0  0.16350795427E+02  0.17684859355E+02 -0.76032940163E+02  0.12121277308E+03  0.91276643266E+02 0.  0.
         24    2    1    2    0    0 -0.37322323105E+02 -0.63027146039E+02  0.48370392521E+02  0.12124153694E+03  0.83632759528E+02 0.  0.
        -13    1    4    4    0    0 -0.31983843111E+02  0.30116413761E+01 -0.92563884289E+01  0.33432273788E+02  0.00000000000E+00 0.  1.
         14    1    4    4    0    0 -0.53384799939E+01 -0.66038787415E+02  0.57626780950E+02  0.87809263148E+02  0.00000000000E+00 0. -1.
        -13    1    3    3    0    0 -0.15599013146E+02 -0.21007222538E+02  0.42798373480E+01  0.26513197046E+02  0.00000000000E+00 0. -1.
         13    1    3    3    0    0  0.31949808573E+02  0.38692081893E+02 -0.80312777511E+02  0.94699576031E+02  0.00000000000E+00 0.  1.
          1    1    1    2  501    0  0.20971527678E+02  0.45342286684E+02 -0.52587424318E+02  0.72533889536E+02  0.00000000000E+00 0. -1.
<scales pt_clust_5="13000.00000" pt_clust_6="13000.00000" pt_clust_7="13000.00000" pt_clust_8="13000.00000" pt_clust_9="49.95729"></scales>
<clustering>
<clus scale="   49.957">  1  9  2 -1</clus>
<clus scale="   83.633">  5  6 -1 -1</clus>
<clus scale="   90.369">  1  5  2 -1</clus>
<clus scale="   91.277">  7  8 -1 -1</clus>
<clus scale="   49.957">  1  5  2 -1</clus>
</clustering>
</event>
<event>
 9    2  0.9254368E-005  0.9813429E+02  0.7546771E-02  0.1290413E+00
          2   -1    0    0  502    0 -0.00000000000E+00  0.00000000000E+00  0.41549489618E+03  0.41549489618E+03  0.00000000000E+00 0. -1.
         21   -1    0    0  501  502  0.00000000000E+00 -0.00000000000E+00 -0.52737115712E+02  0.52737115712E+02  0.00000000000E+00 0.  1.
         24    2    1    2    0    0  0.32630513441E+02 -0.21092365399E+01  0.31527296537E+03  0.32699785071E+03  0.80382537838E+02 0.  0.
         23    2    1    2    0    0 -0.41007052746E+02  0.27630588682E+02  0.46746256955E+02  0.11436314903E+03  0.91916753156E+02 0.  0.
        -11    1    3    3    0    0 -0.29563643311E+01  0.30617272778E+02  0.62693942731E+02  0.69833286745E+02  0.00000000000E+00 0.  1.
         12    1    3    3    0    0  0.35586877772E+02 -0.32726509318E+02  0.25257902264E+03  0.25716456397E+03  0.00000000000E+00 0. -1.
        -11    1    4    4    0    0 -0.58185089246E+02  0.42491038989E+02  0.54524544287E+02  0.90354407389E+02  0.00000000000E+00 0.  1.
         11    1    4    4    0    0  0.17178036500E+02 -0.14860450307E+02 -0.77782873319E+01  0.24008741640E+02  0.00000000000E+00 0. -1.
          1    1    1    2  501    0  0.83765393050E+01 -0.25521352142E+02  0.73855814133E+00  0.26871012151E+02  0.00000000000E+00 0. -1.
<scales pt_clust_5="13000.00000" pt_clust_6="13000.00000" pt_clust_7="13000.00000" pt_clust_8="13000.00000" pt_clust_9="26.86086"></scales>
<clustering>
<clus scale="   26.861">  2  9  1 -1</clus>
<clus scale="   80.383">  5  6 -1 -1</clus>
<clus scale="   87.424">  1  5  2 -1</clus>
<clus scale="   91.917">  7  8 -1 -1</clus>
<clus scale="   26.861">  2  5  1 -1</clus>
</clustering>
</event>
<event>
 9    2  0.9254368E-005  0.1025976E+03  0.7546771E-02  0.1286344E+00
         21   -1    0    0  501  502  0.00000000000E+00  0.00000000000E+00  0.51510187023E+02  0.51510187023E+02  0.00000000000E+00 0. -1.
          2   -1    0    0  502    0 -0.00000000000E+00 -0.00000000000E+00 -0.29872411978E+03  0.29872411978E+03  0.00000000000E+00 0. -1.
         24    2    1    2    0    0 -0.20450222921E+02 -0.68629032427E+01 -0.19196101256E+03  0.20935241314E+03  0.80709921870E+02 0.  0.
         23    2    1    2    0    0  0.64409746232E+01 -0.11665724102E+02 -0.58286444213E+02  0.11745602469E+03  0.10109912405E+03 0.  0.
        -13    1    3    3    0    0  0.19717932332E+02  0.22519691357E+02 -0.43754750570E+02  0.53013314853E+02  0.00000000000E+00 0.  1.
         14    1    3    3    0    0 -0.40168155253E+02 -0.29382594600E+02 -0.14820626199E+03  0.15633909829E+03  0.00000000000E+00 0. -1.
        -11    1    4    4    0    0 -0.39731125346E+01 -0.52686653425E+02 -0.52943962322E+02  0.74797942610E+02  0.00000000000E+00 0. -1.
         11    1    4    4    0    0  0.10414087158E+02  0.41020929322E+02 -0.53424818905E+01  0.42658082077E+02  0.00000000000E+00 0.  1.
          1    1    1    2  501    0  0.14009248297E+02  0.18528627345E+02  0.30335240138E+01  0.23425868972E+02  0.00000000000E+00 0. -1.
<scales pt_clust_5="13000.00000" pt_clust_6="13000.00000" pt_clust_7="13000.00000" pt_clust_8="13000.00000" pt_clust_9="23.22863"></scales>
<clustering>
<clus scale="   23.229">  1  9  2 -1</clus>
<clus scale="   80.710">  5  6 -1 -1</clus>
<clus scale="   82.579">  2  5  1 -1</clus>
<clus scale="  101.099">  7  8 -1 -1</clus>
<clus scale="   23.229">  1  5  2 -1</clus>
</clustering>
</event>
<event>
 9    2  0.9254368E-005  0.1033357E+03  0.7546771E-02  0.1278096E+00
         -3   -1    0    0    0  501 -0.00000000000E+00  0.00000000000E+00  0.39719773607E+02  0.39719773607E+02  0.00000000000E+00 0.  1.
         21   -1    0    0  501  502  0.00000000000E+00 -0.00000000000E+00 -0.82607443681E+03  0.82607443681E+03  0.00000000000E+00 0.  1.
         23    2    1    2    0    0  0.43705906795E+02 -0.18999969535E+02 -0.51613950524E+02  0.11475879326E+03  0.90743460429E+02 0.  0.
         24    2    1    2    0    0 -0.68661643421E+02  0.78015010237E+00 -0.67989962332E+03  0.68808864843E+03  0.80544772655E+02 0.  0.
        -13    1    4    4    0    0 -0.62932848924E+02 -0.32233280249E+02 -0.40132557251E+03  0.40750673979E+03  0.00000000000E+00 0.  1.
         14    1    4    4    0    0 -0.57287944967E+01  0.33013430351E+02 -0.27857405081E+03  0.28058190864E+03  0.00000000000E+00 0. -1.
        -13    1    3    3    0    0 -0.22759782426E+02  0.10139708445E+02 -0.30078582432E+02  0.39058193821E+02  0.00000000000E+00 0. -1.
         13    1    3    3    0    0  0.66465689222E+02 -0.29139677980E+02 -0.21535368092E+02  0.75700599438E+02  0.00000000000E+00 0.  1.
         -4    1    1    2    0  502  0.24955736626E+02  0.18219819432E+02 -0.54841089364E+02  0.62946768728E+02  0.00000000000E+00 0.  1.
<scales pt_clust_5="13000.00000" pt_clust_6="13000.00000" pt_clust_7="13000.00000" pt_clust_8="13000.00000" pt_clust_9="30.89905"></scales>
<clustering>
<clus scale="   30.899">  2  9  1 -1</clus>
<clus scale="   80.545">  5  6 -1 -1</clus>
<clus scale="   90.743">  7  8 -1 -1</clus>
<clus scale="   94.506">  2  5  1 -1</clus>
<clus scale="   30.899">  2  5  1 -1</clus>
</clustering>
</event>
<event>
 9    2  0.9254368E-005  0.2067727E+03  0.7546771E-02  0.1144995E+00
          2   -1    0    0  502    0 -0.00000000000E+00  0.00000000000E+00  0.55225948600E+03  0.55225948600E+03  0.00000000000E+00 0. -1.
         21   -1    0    0  501  502  0.00000000000E+00 -0.00000000000E+00 -0.12612386969E+03  0.12612386969E+03  0.00000000000E+00 0. -1.
         23    2    1    2    0    0 -0.22881354147E+02  0.21540264761E+03  0.26825159031E+03  0.35674669935E+03  0.91582939616E+02 0.  0.
         24    2    1    2    0    0 -0.40852171594E+02 -0.14233847753E+03  0.49598333585E+02  0.17628836279E+03  0.81782944749E+02 0.  0.
        -13    1    4    4    0    0 -0.50511421862E+02 -0.43620962809E+02  0.36979609283E+02  0.76299958306E+02  0.00000000000E+00 0.  1.
         14    1    4    4    0    0  0.96592502672E+01 -0.98717514723E+02  0.12618724302E+02  0.99988404486E+02  0.00000000000E+00 0. -1.
        -11    1    3    3    0    0  0.29611071267E+02  0.12885589751E+03  0.13018106117E+03  0.18554720842E+03  0.00000000000E+00 0.  1.
         11    1    3    3    0    0 -0.52492425414E+02  0.86546750107E+02  0.13807052914E+03  0.17119949094E+03  0.00000000000E+00 0. -1.
          1    1    1    2  501    0  0.63733525742E+02 -0.73064170082E+02  0.10828569242E+03  0.14534829354E+03  0.00000000000E+00 0. -1.
<scales pt_clust_5="13000.00000" pt_clust_6="13000.00000" pt_clust_7="13000.00000" pt_clust_8="13000.00000" pt_clust_9="96.95537"></scales>
<clustering>
<clus scale="   81.783">  5  6 -1 -1</clus>
<clus scale="   91.583">  7  8 -1 -1</clus>
<clus scale="   96.955">  2  9  1 -1</clus>
<clus scale="  202.623">  2  5  1 -1</clus>
<clus scale="   96.955">  2  5  1 -1</clus>
</clustering>
</event>
<event>
 9    2  0.9254368E-005  0.1100811E+03  0.7546771E-02  0.1260477E+00
          2   -1    0    0  502    0 -0.00000000000E+00  0.00000000000E+00  0.24259261188E+03  0.24259261188E+03  0.00000000000E+00 0. -1.
         21   -1    0    0  501  502  0.00000000000E+00 -0.00000000000E+00 -0.11399566150E+03  0.11399566150E+03  0.00000000000E+00 0. -1.
         23    2    1    2    0    0  0.49543086213E+02  0.32910400694E+02  0.16435376153E+03  0.19793640982E+03  0.92892688283E+02 0.  0.
         24    2    1    2    0    0 -0.63088139537E+02 -0.38859723309E+01 -0.25390123873E+01  0.11250743741E+03  0.93039038887E+02 0.  0.
        -13    1    4    4    0    0 -0.27560695326E+02 -0.46795041384E+02  0.10451934871E+02  0.55304708366E+02  0.00000000000E+00 0.  1.
         14    1    4    4    0    0 -0.35527444211E+02  0.42909069053E+02 -0.12990947259E+02  0.57202729042E+02  0.00000000000E+00 0. -1.
        -11    1    3    3    0    0 -0.11259331116E+02 -0.21971587930E+02  0.19232211818E+02  0.31295385998E+02  0.00000000000E+00 0.  1.
         11    1    3    3    0    0  0.60802417329E+02  0.54881988624E+02  0.14512154971E+03  0.16664102382E+03  0.00000000000E+00 0. -1.
          1    1    1    2  501    0  0.13545053324E+02 -0.29024428363E+02 -0.33217798753E+02  0.46144426157E+02  0.00000000000E+00 0. -1.
<scales pt_clust_5="13000.00000" pt_clust_6="13000.00000" pt_clust_7="13000.00000" pt_clust_8="13000.00000" pt_clust_9="32.02945"></scales>
<clustering>
<clus scale="   32.029">  2  9  1 -1</clus>
<clus scale="   92.893">  7  8 -1 -1</clus>
<clus scale="   93.039">  5  6 -1 -1</clus>
<clus scale="  109.957">  1  7  2 -1</clus>
<clus scale="   32.029">  2  5  1 -1</clus>
</clustering>
</event>
<event>
 9    2  0.9254368E-005  0.9748936E+02  0.7546771E-02  0.1288558E+00
          2   -1    0    0  502    0 -0.00000000000E+00  0.00000000000E+00  0.13786618163E+04  0.13786618163E+04  0.00000000000E+00 0. -1.
         21   -1    0    0  501  502  0.00000000000E+00 -0.00000000000E+00 -0.12195216463E+02  0.12195216463E+02  0.00000000000E+00 0. -1.
         24    2    1    2    0    0 -0.15133765671E+02  0.57767110819E+02  0.71448663530E+03  0.72153092486E+03  0.80929929880E+02 0.  0.
         23    2    1    2    0    0 -0.28537172880E+02 -0.22086747954E+02  0.36879785120E+03  0.38058340499E+03  0.86773719740E+02 0.  0.
        -13    1    3    3    0    0  0.17499219909E+02  0.52012326455E+02  0.25434944742E+03  0.26020212567E+03  0.00000000000E+00 0.  1.
         14    1    3    3    0    0 -0.32632985580E+02  0.57547843640E+01  0.46013718788E+03  0.46132879919E+03  0.00000000000E+00 0. -1.
        -11    1    4    4    0    0 -0.52248345939E+02 -0.23869928735E+02  0.33086201514E+03  0.33581145933E+03  0.00000000000E+00 0. -1.
         11    1    4    4    0    0  0.23711173060E+02  0.17831807812E+01  0.37935836054E+02  0.44771945666E+02  0.00000000000E+00 0.  1.
          1    1    1    2  501    0  0.43670938551E+02 -0.35680362865E+02  0.28318211330E+03  0.28874270288E+03  0.00000000000E+00 0. -1.
<scales pt_clust_5="13000.00000" pt_clust_6="13000.00000" pt_clust_7="13000.00000" pt_clust_8="13000.00000" pt_clust_9="56.39361"></scales>
<clustering>
<clus scale="   56.394">  2  9  1 -1</clus>
<clus scale="   80.930">  5  6 -1 -1</clus>
<clus scale="   86.774">  7  8 -1 -1</clus>
<clus scale="   92.326">  1  5  2 -1</clus>
<clus scale="   56.394">  2  5  1 -1</clus>
</clustering>
</event>
<event>
 9    2  0.9254368E-005  0.1268558E+03  0.7546771E-02  0.1234611E+00
         21   -1    0    0  501  502  0.00000000000E+00  0.00000000000E+00  0.49749623366E+02  0.49749623366E+02  0.00000000000E+00 0. -1.
          2   -1    0    0  502    0 -0.00000000000E+00 -0.00000000000E+00 -0.61519524601E+03  0.61519524601E+03  0.00000000000E+00 0. -1.
         24    2    1    2    0    0 -0.12347080407E+01 -0.67154594039E+02 -0.23763988503E+03  0.26007175121E+03  0.81567988912E+02 0.  0.
         23    2    1    2    0    0 -0.87946509528E+01  0.12458028928E+03 -0.30597816396E+03  0.34262569663E+03  0.90399871727E+02 0.  0.
        -11    1    3    3    0    0  0.38726509670E+02 -0.23433290946E+02 -0.12238307951E+03  0.13048555409E+03  0.00000000000E+00 0.  1.
         12    1    3    3    0    0 -0.39961217710E+02 -0.43721303092E+02 -0.11525680552E+03  0.12958619711E+03  0.00000000000E+00 0. -1.
        -13    1    4    4    0    0 -0.38341857999E+02  0.11182449237E+03 -0.26753956829E+03  0.29249313799E+03  0.00000000000E+00 0. -1.
         13    1    4    4    0    0  0.29547207047E+02  0.12755796915E+02 -0.38438595670E+02  0.50132558645E+02  0.00000000000E+00 0.  1.
          1    1    1    2  501    0  0.10029358994E+02 -0.57425695245E+02 -0.21827573655E+02  0.62247421536E+02  0.00000000000E+00 0. -1.
<scales pt_clust_5="13000.00000" pt_clust_6="13000.00000" pt_clust_7="13000.00000" pt_clust_8="13000.00000" pt_clust_9="58.29493"></scales>
<clustering>
<clus scale="   58.295">  1  9  2 -1</clus>
<clus scale="   81.568">  5  6 -1 -1</clus>
<clus scale="   90.400">  7  8 -1 -1</clus>
<clus scale="  120.721">  2  5  1 -1</clus>
<clus scale="   58.295">  1  5  2 -1</clus>
</clustering>
</event>
<event>
 9    2  0.9254368E-005  0.2250443E+03  0.7546771E-02  0.1152329E+00
         21   -1    0    0  501  502  0.00000000000E+00  0.00000000000E+00  0.40058836707E+02  0.40058836707E+02  0.00000000000E+00 0. -1.
          2   -1    0    0  502    0 -0.00000000000E+00 -0.00000000000E+00 -0.21118650166E+04  0.21118650166E+04  0.00000000000E+00 0. -1.
         23    2    1    2    0    0 -0.90741399054E+02 -0.30796383975E+02 -0.42069478193E+03  0.44092962032E+03  0.90842785984E+02 0.  0.
         24    2    1    2    0    0  0.17433099031E+03  0.18893380643E+03 -0.94504862082E+03  0.98262666822E+03  0.79693136340E+02 0.  0.
        -11    1    4    4    0    0  0.10920260669E+03  0.63590652795E+02 -0.39445151385E+03  0.41419919991E+03  0.00000000000E+00 0.  1.
         12    1    4    4    0    0  0.65128383622E+02  0.12534315363E+03 -0.55059710698E+03  0.56842746831E+03  0.00000000000E+00 0. -1.
        -11    1    3    3    0    0 -0.34856325283E+02  0.28350042664E+02 -0.21660944568E+03  0.22122011728E+03  0.00000000000E+00 0. -1.
         11    1    3    3    0    0 -0.55885073771E+02 -0.59146426640E+02 -0.20408533625E+03  0.21970950304E+03  0.00000000000E+00 0.  1.
          1    1    1    2  501    0 -0.83589591256E+02 -0.15813742245E+03 -0.70606277718E+03  0.72836756481E+03  0.00000000000E+00 0. -1.
<scales pt_clust_5="13000.00000" pt_clust_6="13000.00000" pt_clust_7="13000.00000" pt_clust_8="13000.00000" pt_clust_9="210.46130"></scales>
<clustering>
<clus scale="   79.693">  5  6 -1 -1</clus>
<clus scale="   90.843">  7  8 -1 -1</clus>
<clus scale="  132.041">  2  7  1 -1</clus>
<clus scale="  210.461">  1  9  2 -1</clus>
<clus scale="  210.461">  1  5  2 -1</clus>
</clustering>
</event>
<event>
 9    2  0.9254368E-005  0.2162294E+03  0.7546771E-02  0.1140572E+00
          2   -1    0    0  502    0 -0.00000000000E+00  0.00000000000E+00  0.29879055677E+03  0.29879055677E+03  0.00000000000E+00 0. -1.
         21   -1    0    0  501  502  0.00000000000E+00 -0.00000000000E+00 -0.46084890168E+03  0.46084890168E+03  0.00000000000E+00 0. -1.
         23    2    1    2    0    0  0.10146802319E+03 -0.14170920460E+03 -0.18260790585E+03  0.26863666116E+03  0.91884438513E+02 0.  0.
         24    2    1    2    0    0  0.12629699902E+03  0.13378614594E+03  0.12992382780E+03  0.23821353634E+03  0.77561737083E+02 0.  0.
        -11    1    4    4    0    0  0.25427862256E+02  0.88685661555E+01 -0.62947828681E+01  0.27655956609E+02  0.00000000000E+00 0.  1.
         12    1    4    4    0    0  0.10086913676E+03  0.12491757978E+03  0.13621861067E+03  0.21055757973E+03  0.00000000000E+00 0. -1.
        -11    1    3    3    0    0 -0.17433279544E+02 -0.13772653194E+02 -0.17362968280E+02  0.28197125370E+02  0.00000000000E+00 0.  1.
         11    1    3    3    0    0  0.11890130273E+03 -0.12793655141E+03 -0.16524493757E+03  0.24043953579E+03  0.00000000000E+00 0. -1.
          1    1    1    2  501    0 -0.22776502221E+03  0.79230586640E+01 -0.10937426686E+03  0.25278926095E+03  0.00000000000E+00 0. -1.
<scales pt_clust_5="13000.00000" pt_clust_6="13000.00000" pt_clust_7="13000.00000" pt_clust_8="13000.00000" pt_clust_9="201.83988"></scales>
<clustering>
<clus scale="   77.562">  5  6 -1 -1</clus>
<clus scale="   91.884">  7  8 -1 -1</clus>
<clus scale="  197.028">  1  7  2 -1</clus>
<clus scale="  201.840">  2  9  1 -1</clus>
<clus scale="  201.840">  2  5  1 -1</clus>
</clustering>
</event>
<event>
 9    2  0.9254368E-005  0.1528264E+03  0.7546771E-02  0.1199201E+00
         21   -1    0    0  501  502  0.00000000000E+00  0.00000000000E+00  0.15309243276E+03  0.15309243276E+03  0.00000000000E+00 0. -1.
          2   -1    0    0  502    0 -0.00000000000E+00 -0.00000000000E+00 -0.11037920141E+04  0.11037920141E+04  0.00000000000E+00 0. -1.
         24    2    1    2    0    0 -0.10322944745E+03  0.72825619855E+02 -0.10323058873E+04  0.10431564118E+04  0.80993608938E+02 0.  0.
         23    2    1    2    0    0  0.38120706482E+02 -0.68509168613E+01  0.63976001440E+02  0.11937424757E+03  0.93043854706E+02 0.  0.
        -11    1    3    3    0    0 -0.40139667098E+02  0.30045738186E+02 -0.16355385696E+03  0.17106666357E+03  0.00000000000E+00 0.  1.
         12    1    3    3    0    0 -0.63089780352E+02  0.42779881669E+02 -0.86875203037E+03  0.87208974821E+03  0.00000000000E+00 0. -1.
        -13    1    4    4    0    0 -0.12739825699E+02 -0.38642255444E+02  0.28684079595E+02  0.49782562076E+02  0.00000000000E+00 0.  1.
         13    1    4    4    0    0  0.50860532181E+02  0.31791338583E+02  0.35291921845E+02  0.69591685496E+02  0.00000000000E+00 0. -1.
          1    1    1    2  501    0  0.65108740968E+02 -0.65974702994E+02  0.17630304527E+02  0.94353787541E+02  0.00000000000E+00 0. -1.
<scales pt_clust_5="13000.00000" pt_clust_6="13000.00000" pt_clust_7="13000.00000" pt_clust_8="13000.00000" pt_clust_9="92.69201"></scales>
<clustering>
<clus scale="   80.994">  5  6 -1 -1</clus>
<clus scale="   92.692">  1  9  2 -1</clus>
<clus scale="   93.044">  7  8 -1 -1</clus>
<clus scale="  145.804">  2  5  1 -1</clus>
<clus scale="   92.692">  1  5  2 -1</clus>
</clustering>
</event>
<event>
 9    2  0.9254368E-005  0.9591558E+02  0.7546771E-02  0.1293689E+00
         21   -1    0    0  501  502  0.00000000000E+00  0.00000000000E+00  0.38294196313E+02  0.38294196313E+02  0.00000000000E+00 0. -1.
          2   -1    0    0  502    0 -0.00000000000E+00 -0.00000000000E+00 -0.55781009153E+03  0.55781009153E+03  0.00000000000E+00 0. -1.
         24    2    1    2    0    0 -0.12892789276E+02 -0.27432406354E+02 -0.36145298421E+03  0.37161182690E+03  0.80798076486E+02 0.  0.
         23    2    1    2    0    0  0.53071438150E+02  0.26892126287E+02 -0.14847848805E+03  0.18318293551E+03  0.89276886388E+02 0.  0.
        -11    1    3    3    0    0 -0.28819551840E+02 -0.82232690050E+01 -0.44339067139E+02  0.53517675549E+02  0.00000000000E+00 0.  1.
         12    1    3    3    0    0  0.15926762564E+02 -0.19209137349E+02 -0.31711391708E+03  0.31809415136E+03  0.00000000000E+00 0. -1.
        -11    1    4    4    0    0  0.47490760729E+02 -0.13976816542E+01 -0.20069555910E+02  0.51576282757E+02  0.00000000000E+00 0. -1.
         11    1    4    4    0    0  0.55806774204E+01  0.28289807941E+02 -0.12840893215E+03  0.13160665275E+03  0.00000000000E+00 0.  1.
          1    1    1    2  501    0 -0.40178648873E+02  0.54028006709E+00 -0.95844229454E+01  0.41309525427E+02  0.00000000000E+00 0. -1.
<scales pt_clust_5="13000.00000" pt_clust_6="13000.00000" pt_clust_7="13000.00000" pt_clust_8="13000.00000" pt_clust_9="40.18228"></scales>
<clustering>
<clus scale="   40.182">  1  9  2 -1</clus>
<clus scale="   80.798">  5  6 -1 -1</clus>
<clus scale="   88.078">  2  5  1 -1</clus>
<clus scale="   89.277">  7  8 -1 -1</clus>
<clus scale="   40.182">  1  5  2 -1</clus>
</clustering>
</event>
<event>
 9    2  0.9254368E-005  0.8158435E+02  0.7546771E-02  0.1325054E+00
         21   -1    0    0  501  502  0.00000000000E+00  0.00000000000E+00  0.28398388180E+02  0.28398388180E+02  0.00000000000E+00 0. -1.
          2   -1    0    0  502    0 -0.00000000000E+00 -0.00000000000E+00 -0.91872008300E+03  0.91872008300E+03  0.00000000000E+00 0. -1.
         24    2    1    2    0    0  0.30867731337E+01 -0.31873962913E+01 -0.63757166385E+03  0.64259380703E+03  0.80059269426E+02 0.  0.
         23    2    1    2    0    0 -0.64290278806E+02 -0.17097266280E+02 -0.17040588302E+03  0.19994027075E+03  0.80699383119E+02 0.  0.
        -11    1    3    3    0    0 -0.11783717648E+02 -0.26646894889E+02 -0.96328670669E+02  0.10063859002E+03  0.00000000000E+00 0.  1.
         12    1    3    3    0    0  0.14870490782E+02  0.23459498598E+02 -0.54124299318E+03  0.54195521700E+03  0.00000000000E+00 0. -1.
        -13    1    4    4    0    0 -0.31333987417E+02  0.27789255019E+02 -0.11039824556E+03  0.11807554397E+03  0.00000000000E+00 0. -1.
         13    1    4    4    0    0 -0.32956291390E+02 -0.44886521299E+02 -0.60007637462E+02  0.81864726777E+02  0.00000000000E+00 0.  1.
          1    1    1    2  501    0  0.61203505673E+02  0.20284662571E+02 -0.82344147952E+02  0.10458439341E+03  0.00000000000E+00 0. -1.
<scales pt_clust_5="13000.00000" pt_clust_6="13000.00000" pt_clust_7="13000.00000" pt_clust_8="13000.00000" pt_clust_9="64.47741"></scales>
<clustering>
<clus scale="   64.477">  1  9  2 -1</clus>
<clus scale="   80.059">  5  6 -1 -1</clus>
<clus scale="   80.699">  7  8 -1 -1</clus>
<clus scale="   80.951">  2  5  1 -1</clus>
<clus scale="   64.477">  1  5  2 -1</clus>
</clustering>
</event>
<event>
 9    2  0.9254368E-005  0.9177139E+02  0.7546771E-02  0.1304504E+00
         21   -1    0    0  501  502  0.00000000000E+00  0.00000000000E+00  0.25278369479E+03  0.25278369479E+03  0.00000000000E+00 0.  1.
         -1   -1    0    0    0  501 -0.00000000000E+00 -0.00000000000E+00 -0.11326117854E+03  0.11326117854E+03  0.00000000000E+00 0.  1.
         24    2    1    2    0    0  0.97702548342E+01 -0.94667534505E+01 -0.26720093235E+02  0.87120146926E+02  0.81797795310E+02 0.  0.
         23    2    1    2    0    0  0.14056086832E+02  0.96684300826E+01 -0.16782221390E+02  0.94355433331E+02  0.91270218182E+02 0.  0.
        -13    1    3    3    0    0  0.30099879311E+02 -0.29401800829E+02  0.73551460023E+01  0.42714948194E+02  0.00000000000E+00 0.  1.
         14    1    3    3    0    0 -0.20329624477E+02  0.19935047379E+02 -0.34075239237E+02  0.44405198732E+02  0.00000000000E+00 0. -1.
        -13    1    4    4    0    0 -0.13993704258E+02  0.36248397392E+02  0.17576783007E+02  0.42646375851E+02  0.00000000000E+00 0. -1.
         13    1    4    4    0    0  0.28049791090E+02 -0.26579967309E+02 -0.34359004397E+02  0.51709057480E+02  0.00000000000E+00 0.  1.
         -2    1    1    2    0  502 -0.23826341667E+02 -0.20167663211E+00  0.18302483087E+03  0.18456929308E+03  0.00000000000E+00 0.  1.
<scales pt_clust_5="13000.00000" pt_clust_6="13000.00000" pt_clust_7="13000.00000" pt_clust_8="13000.00000" pt_clust_9="23.82720"></scales>
<clustering>
<clus scale="   23.827">  1  9  2 -1</clus>
<clus scale="   81.798">  5  6 -1 -1</clus>
<clus scale="   82.357">  2  5  1 -1</clus>
<clus scale="   91.270">  7  8 -1 -1</clus>
<clus scale="   23.827">  1  5  2 -1</clus>
</clustering>
</event>
<event>
 9    2  0.9254368E-005  0.1011121E+03  0.7546771E-02  0.1282740E+00
         21   -1    0    0  501  502  0.00000000000E+00  0.00000000000E+00  0.64651366053E+02  0.64651366053E+02  0.00000000000E+00 0.  1.
          2   -1    0    0  502    0 -0.00000000000E+00 -0.00000000000E+00 -0.30425378906E+03  0.30425378906E+03  0.00000000000E+00 0. -1.
         24    2    1    2    0    0  0.48853709259E+02 -0.14085378005E+02 -0.14685627020E+03  0.17489031508E+03  0.80217051993E+02 0.  0.
         23    2    1    2    0    0 -0.23583604465E+02  0.18226622714E+02  0.28919457292E+01  0.95007900902E+02  0.90165080317E+02 0.  0.
        -11    1    3    3    0    0  0.26349389040E+02  0.30416973566E+02 -0.38890686201E+02  0.55963988929E+02  0.00000000000E+00 0.  1.
         12    1    3    3    0    0  0.22504320218E+02 -0.44502351571E+02 -0.10796558400E+03  0.11892632615E+03  0.00000000000E+00 0. -1.
        -13    1    4    4    0    0  0.19964868219E+02 -0.25013314864E+02  0.92403637062E+01  0.33311352493E+02  0.00000000000E+00 0. -1.
         13    1    4    4    0    0 -0.43548472684E+02  0.43239937577E+02 -0.63484179771E+01  0.61696548409E+02  0.00000000000E+00 0.  1.
          1    1    1    2  501    0 -0.25270104794E+02 -0.41412447088E+01 -0.95638098541E+02  0.99006939134E+02  0.00000000000E+00 0. -1.
<scales pt_clust_5="13000.00000" pt_clust_6="13000.00000" pt_clust_7="13000.00000" pt_clust_8="13000.00000" pt_clust_9="25.60720"></scales>
<clustering>
<clus scale="   25.607">  1  9  2 -1</clus>
<clus scale="   80.217">  5  6 -1 -1</clus>
<clus scale="   90.165">  7  8 -1 -1</clus>
<clus scale="   92.351">  2  5  1 -1</clus>
<clus scale="   25.607">  1  5  2 -1</clus>
</clustering>
</event>
<event>
 9    2  0.9254368E-005  0.1950181E+03  0.7546771E-02  0.1166252E+00
         21   -1    0    0  501  502  0.00000000000E+00  0.00000000000E+00  0.39975632080E+03  0.39975632080E+03  0.00000000000E+00 0. -1.
          2   -1    0    0  502    0 -0.00000000000E+00 -0.00000000000E+00 -0.31263173461E+03  0.31263173461E+03  0.00000000000E+00 0. -1.
         23    2    1    2    0    0  0.22081168348E+02  0.11987116416E+03 -0.17065062388E+03  0.22502107256E+03  0.81585376592E+02 0.  0.
         24    2    1    2    0    0  0.12913483615E+03  0.70886374253E+02  0.13187188607E+03  0.21331157700E+03  0.80068411913E+02 0.  0.
        -13    1    4    4    0    0  0.74811814408E+02  0.24328915750E+02  0.21107945329E+02  0.81450899765E+02  0.00000000000E+00 0.  1.
         14    1    4    4    0    0  0.54323021742E+02  0.46557458504E+02  0.11076394074E+03  0.13186067724E+03  0.00000000000E+00 0. -1.
        -13    1    3    3    0    0  0.36031915955E+02  0.79279095036E+02 -0.15776963166E+03  0.18020746531E+03  0.00000000000E+00 0. -1.
         13    1    3    3    0    0 -0.13950747606E+02  0.40592069124E+02 -0.12880992212E+02  0.44813607252E+02  0.00000000000E+00 0.  1.
          1    1    1    2  501    0 -0.15121600450E+03 -0.19075753841E+03  0.12590332400E+03  0.27405540584E+03  0.00000000000E+00 0. -1.
<scales pt_clust_5="13000.00000" pt_clust_6="13000.00000" pt_clust_7="13000.00000" pt_clust_8="13000.00000" pt_clust_9="177.82329"></scales>
<clustering>
<clus scale="   80.068">  5  6 -1 -1</clus>
<clus scale="   81.585">  7  8 -1 -1</clus>
<clus scale="  146.673">  2  7  1 -1</clus>
<clus scale="  177.823">  1  9  2 -1</clus>
<clus scale="  177.823">  1  5  2 -1</clus>
</clustering>
</event>
<event>
 9    2  0.9254368E-005  0.9799523E+02  0.7546771E-02  0.1288841E+00
         21   -1    0    0  501  502  0.00000000000E+00  0.00000000000E+00  0.17735536208E+03  0.17735536208E+03  0.00000000000E+00 0.  1.
          4   -1    0    0  502    0 -0.00000000000E+00 -0.00000000000E+00 -0.13175613968E+03  0.13175613968E+03  0.00000000000E+00 0. -1.
         23    2    1    2    0    0 -0.21937888096E+02 -0.38954252528E+02  0.88929853707E+01  0.10183490235E+03  0.91063480183E+02 0.  0.
         24    2    1    2    0    0  0.49652907730E+02 -0.22141630150E+02  0.80059406164E+02  0.12739965363E+03  0.82858313991E+02 0.  0.
        -11    1    4    4    0    0  0.45428238611E+02 -0.28181516161E+01  0.93153367566E+02  0.10367842944E+03  0.00000000000E+00 0.  1.
         12    1    4    4    0    0  0.42246691187E+01 -0.19323478534E+02 -0.13093961403E+02  0.23721224190E+02  0.00000000000E+00 0. -1.
        -11    1    3    3    0    0 -0.37527617541E+02  0.69290356202E+01  0.30426221999E+02  0.48806645019E+02  0.00000000000E+00 0. -1.
         11    1    3    3    0    0  0.15589729445E+02 -0.45883288148E+02 -0.21533236628E+02  0.53028257327E+02  0.00000000000E+00 0.  1.
          3    1    1    2  501    0 -0.27715019633E+02  0.61095882679E+02 -0.43353169134E+02  0.79876945782E+02  0.00000000000E+00 0. -1.
<scales pt_clust_5="13000.00000" pt_clust_6="13000.00000" pt_clust_7="13000.00000" pt_clust_8="13000.00000" pt_clust_9="67.08825"></scales>
<clustering>
<clus scale="   67.088">  1  9  2 -1</clus>
<clus scale="   82.858">  5  6 -1 -1</clus>
<clus scale="   90.421">  1  5  2 -1</clus>
<clus scale="   91.063">  7  8 -1 -1</clus>
<clus scale="   67.088">  1  5  2 -1</clus>
</clustering>
</event>
<event>
 9    2  0.9254368E-005  0.9016723E+02  0.7546771E-02  0.1308157E+00
         -3   -1    0    0    0  501 -0.00000000000E+00  0.00000000000E+00  0.15371767594E+03  0.15371767594E+03  0.00000000000E+00 0.  1.
         21   -1    0    0  501  502  0.00000000000E+00 -0.00000000000E+00 -0.11598773892E+03  0.11598773892E+03  0.00000000000E+00 0.  1.
         24    2    1    2    0    0  0.11513687988E+01  0.24215694519E+02  0.61380773113E+02  0.10390760824E+03  0.80258745507E+02 0.  0.
         23    2    1    2    0    0  0.15872903174E+02  0.29940453205E+02 -0.44440967483E+02  0.10534167595E+03  0.89294396848E+02 0.  0.
        -11    1    3    3    0    0 -0.10443511588E+02 -0.28178057757E+02  0.19309922975E+02  0.35720344323E+02  0.00000000000E+00 0.  1.
         12    1    3    3    0    0  0.11594880387E+02  0.52393752276E+02  0.42070850138E+02  0.68187263914E+02  0.00000000000E+00 0. -1.
        -13    1    4    4    0    0  0.36244650788E+02  0.53180580595E+02 -0.33524703038E+02  0.72565519201E+02  0.00000000000E+00 0.  1.
         13    1    4    4    0    0 -0.20371747615E+02 -0.23240127390E+02 -0.10916264445E+02  0.32776156751E+02  0.00000000000E+00 0. -1.
         -4    1    1    2    0  502 -0.17024271973E+02 -0.54156147724E+02  0.20790131390E+02  0.60456130671E+02  0.00000000000E+00 0.  1.
<scales pt_clust_5="13000.00000" pt_clust_6="13000.00000" pt_clust_7="13000.00000" pt_clust_8="13000.00000" pt_clust_9="56.76898"></scales>
<clustering>
<clus scale="   56.769">  2  9  1 -1</clus>
<clus scale="   80.259">  5  6 -1 -1</clus>
<clus scale="   81.229">  1  5  2 -1</clus>
<clus scale="   89.294">  7  8 -1 -1</clus>
<clus scale="   56.769">  2  5  1 -1</clus>
</clustering>
</event>
<event>
 9    2  0.9254368E-005  0.1034837E+03  0.7546771E-02  0.1278067E+00
          2   -1    0    0  502    0 -0.00000000000E+00  0.00000000000E+00  0.11056147776E+03  0.11056147776E+03  0.00000000000E+00 0. -1.
         21   -1    0    0  501  502  0.00000000000E+00 -0.00000000000E+00 -0.19346034147E+03  0.19346034147E+03  0.00000000000E+00 0. -1.
         23    2    1    2    0    0 -0.43082665362E+02 -0.25740493084E+02  0.17333007275E+02  0.10579982513E+03  0.91512189453E+02 0.  0.
         24    2    1    2    0    0  0.26518828863E+02  0.41239988765E+02  0.95200687346E+00  0.94526419538E+02  0.80810597795E+02 0.  0.
        -11    1    4    4    0    0  0.27116248117E+02  0.78566039911E+01 -0.35326791083E+02  0.45221668550E+02  0.00000000000E+00 0.  1.
         12    1    4    4    0    0 -0.59741925471E+00  0.33383384774E+02  0.36278797957E+02  0.49304750987E+02  0.00000000000E+00 0. -1.
        -11    1    3    3    0    0 -0.62304353655E+02 -0.10794831656E+02  0.38077783895E+02  0.73812454919E+02  0.00000000000E+00 0. -1.
         11    1    3    3    0    0  0.19221688293E+02 -0.14945661427E+02 -0.20744776619E+02  0.31987370216E+02  0.00000000000E+00 0.  1.
          1    1    1    2  501    0  0.16563836500E+02 -0.15499495682E+02 -0.10118387785E+03  0.10369557456E+03  0.00000000000E+00 0. -1.
<scales pt_clust_5="13000.00000" pt_clust_6="13000.00000" pt_clust_7="13000.00000" pt_clust_8="13000.00000" pt_clust_9="22.68469"></scales>
<clustering>
<clus scale="   22.685">  2  9  1 -1</clus>
<clus scale="   80.811">  5  6 -1 -1</clus>
<clus scale="   91.512">  7  8 -1 -1</clus>
<clus scale="   94.153">  2  5  1 -1</clus>
<clus scale="   22.685">  2  5  1 -1</clus>
</clustering>
</event>
<event>
 9    2  0.9254368E-005  0.1727486E+03  0.7546771E-02  0.1176856E+00
          2   -1    0    0  502    0 -0.00000000000E+00  0.00000000000E+00  0.14901794252E+04  0.14901794252E+04  0.00000000000E+00 0. -1.
         21   -1    0    0  501  502  0.00000000000E+00 -0.00000000000E+00 -0.56950748715E+02  0.56950748715E+02  0.00000000000E+00 0. -1.
         24    2    1    2    0    0  0.96727430854E+02 -0.51537585911E+02  0.24447361986E+03  0.27883490810E+03  0.77260834373E+02 0.  0.
         23    2    1    2    0    0 -0.17751417397E+03  0.13753197245E+03  0.37853085864E+03  0.44952497851E+03  0.91437245979E+02 0.  0.
        -11    1    3    3    0    0  0.76165247056E+02 -0.31824306391E+01  0.10470954230E+03  0.12951973198E+03  0.00000000000E+00 0.  1.
         12    1    3    3    0    0  0.20562183798E+02 -0.48355155272E+02  0.13976407756E+03  0.14931517612E+03  0.00000000000E+00 0. -1.
        -11    1    4    4    0    0 -0.82931100166E+02  0.13381154761E+02  0.16356592139E+03  0.18387613581E+03  0.00000000000E+00 0.  1.
         11    1    4    4    0    0 -0.94583073801E+02  0.12415081769E+03  0.21496493725E+03  0.26564884270E+03  0.00000000000E+00 0. -1.
          1    1    1    2  501    0  0.80786743114E+02 -0.85994386538E+02  0.81022419797E+03  0.81877028729E+03  0.00000000000E+00 0. -1.
<scales pt_clust_5="13000.00000" pt_clust_6="13000.00000" pt_clust_7="13000.00000" pt_clust_8="13000.00000" pt_clust_9="117.98960"></scales>
<clustering>
<clus scale="   77.261">  5  6 -1 -1</clus>
<clus scale="   91.437">  7  8 -1 -1</clus>
<clus scale="  117.990">  2  9  1 -1</clus>
<clus scale="  165.682">  1  5  2 -1</clus>
<clus scale="  117.990">  2  5  1 -1</clus>
</clustering>
</event>
<event>
 9    2  0.9254368E-005  0.3498819E+03  0.7546771E-02  0.1101407E+00
         21   -1    0    0  501  502  0.00000000000E+00  0.00000000000E+00  0.67517616133E+03  0.67517616133E+03  0.00000000000E+00 0. -1.
          2   -1    0    0  502    0 -0.00000000000E+00 -0.00000000000E+00 -0.28567030016E+03  0.28567030016E+03  0.00000000000E+00 0. -1.
         23    2    1    2    0    0  0.56114133754E+01  0.80138156300E+02  0.14134330969E+03  0.18780801332E+03  0.94022904755E+02 0.  0.
         24    2    1    2    0    0 -0.98567639265E+02 -0.38008148760E+03  0.55983554718E+02  0.40488137745E+03  0.81346509942E+02 0.  0.
        -13    1    4    4    0    0 -0.25747247756E+02 -0.32938034484E+02  0.25279809539E+02  0.48855947980E+02  0.00000000000E+00 0.  1.
         14    1    4    4    0    0 -0.72820391508E+02 -0.34714345312E+03  0.30703745179E+02  0.35602542947E+03  0.00000000000E+00 0. -1.
        -11    1    3    3    0    0  0.30149168665E+02  0.24511072740E+02  0.58428657924E+01  0.39292545587E+02  0.00000000000E+00 0.  1.
         11    1    3    3    0    0 -0.24537755290E+02  0.55627083560E+02  0.13550044389E+03  0.14851546773E+03  0.00000000000E+00 0. -1.
          1    1    1    2  501    0  0.92956225889E+02  0.29994333130E+03  0.19217899676E+03  0.36815707072E+03  0.00000000000E+00 0. -1.
<scales pt_clust_5="13000.00000" pt_clust_6="13000.00000" pt_clust_7="13000.00000" pt_clust_8="13000.00000" pt_clust_9="340.29407"></scales>
<clustering>
<clus scale="   81.347">  5  6 -1 -1</clus>
<clus scale="   94.023">  7  8 -1 -1</clus>
<clus scale="  123.669">  2  7  1 -1</clus>
<clus scale="  340.294">  1  9  2 -1</clus>
<clus scale="  340.294">  1  5  2 -1</clus>
</clustering>
</event>
<event>
 9    2  0.9254368E-005  0.1016375E+03  0.7546771E-02  0.1279915E+00
          2   -1    0    0  502    0 -0.00000000000E+00  0.00000000000E+00  0.68341543908E+02  0.68341543908E+02  0.00000000000E+00 0. -1.
         21   -1    0    0  501  502  0.00000000000E+00 -0.00000000000E+00 -0.77346427502E+03  0.77346427502E+03  0.00000000000E+00 0.  1.
         24    2    1    2    0    0  0.27331753175E+02 -0.45695834469E+02  0.21844005702E+02  0.98552257011E+02  0.80001579718E+02 0.  0.
         23    2    1    2    0    0 -0.59238243940E+02  0.21024191142E+02 -0.41143616124E+03  0.42515568664E+03  0.86755155140E+02 0.  0.
        -13    1    3    3    0    0  0.12008974824E+02 -0.42940540977E+02 -0.23647224230E+02  0.50470751426E+02  0.00000000000E+00 0.  1.
         14    1    3    3    0    0  0.15322778351E+02 -0.27552934919E+01  0.45491229931E+02  0.48081505585E+02  0.00000000000E+00 0. -1.
        -11    1    4    4    0    0 -0.73164278024E+02  0.15652881717E+01 -0.37117478039E+03  0.37832020737E+03  0.00000000000E+00 0.  1.
         11    1    4    4    0    0  0.13926034084E+02  0.19458902970E+02 -0.40261380849E+02  0.46835479265E+02  0.00000000000E+00 0. -1.
          1    1    1    2  501    0  0.31906490765E+02  0.24671643327E+02 -0.31553057557E+03  0.31809787528E+03  0.00000000000E+00 0. -1.
<scales pt_clust_5="13000.00000" pt_clust_6="13000.00000" pt_clust_7="13000.00000" pt_clust_8="13000.00000" pt_clust_9="40.33254"></scales>
<clustering>
<clus scale="   40.333">  2  9  1 -1</clus>
<clus scale="   80.002">  5  6 -1 -1</clus>
<clus scale="   86.755">  7  8 -1 -1</clus>
<clus scale="   95.937">  1  5  2 -1</clus>
<clus scale="   40.333">  2  5  1 -1</clus>
</clustering>
</event>
<event>
 9    2  0.9254368E-005  0.1017658E+03  0.7546771E-02  0.1282068E+00
         21   -1    0    0  501  502  0.00000000000E+00  0.00000000000E+00  0.19546837163E+03  0.19546837163E+03  0.00000000000E+00 0. -1.
         -3   -1    0    0    0  501 -0.00000000000E+00 -0.00000000000E+00 -0.74013343498E+02  0.74013343498E+02  0.00000000000E+00 0.  1.
         24    2    1    2    0    0  0.20655460906E+02  0.47154154765E+02 -0.38169502956E+01  0.94528921435E+02  0.79189554244E+02 0.  0.
         23    2    1    2    0    0 -0.18244228752E+02 -0.25689016747E+02  0.11818620954E+03  0.15222012312E+03  0.90610199722E+02 0.  0.
        -13    1    3    3    0    0 -0.13430896122E+02  0.56675895394E+02 -0.83776891839E+01  0.58844980800E+02  0.00000000000E+00 0.  1.
         14    1    3    3    0    0  0.34086357028E+02 -0.95217406289E+01  0.45607388883E+01  0.35683940635E+02  0.00000000000E+00 0. -1.
        -11    1    4    4    0    0 -0.50481664463E+02 -0.44792251019E+01  0.93671817790E+02  0.10650291711E+03  0.00000000000E+00 0. -1.
         11    1    4    4    0    0  0.32237435711E+02 -0.21209791645E+02  0.24514391750E+02  0.45717206013E+02  0.00000000000E+00 0.  1.
         -4    1    1    2    0  502 -0.24112321535E+01 -0.21465138018E+02  0.70857688888E+01  0.22732670573E+02  0.00000000000E+00 0.  1.
<scales pt_clust_5="13000.00000" pt_clust_6="13000.00000" pt_clust_7="13000.00000" pt_clust_8="13000.00000" pt_clust_9="21.60015"></scales>
<clustering>
<clus scale="   21.600">  1  9  2 -1</clus>
<clus scale="   79.190">  5  6 -1 -1</clus>
<clus scale="   90.610">  7  8 -1 -1</clus>
<clus scale="   91.745">  2  5  1 -1</clus>
<clus scale="   21.600">  1  5  2 -1</clus>
</clustering>
</event>
<event>
 9    2  0.9254368E-005  0.2876989E+03  0.7546771E-02  0.1092207E+00
          2   -1    0    0  502    0 -0.00000000000E+00  0.00000000000E+00  0.18759372596E+04  0.18759372596E+04  0.00000000000E+00 0. -1.
         21   -1    0    0  501  502  0.00000000000E+00 -0.00000000000E+00 -0.60818539172E+02  0.60818539172E+02  0.00000000000E+00 0.  1.
         24    2    1    2    0    0 -0.23450007894E+03 -0.11851957264E+03  0.12122906932E+04  0.12430347619E+04  0.80308893164E+02 0.  0.
         23    2    1    2    0    0  0.26793397700E+03  0.12130825025E+03  0.53455392245E+03  0.61764899441E+03  0.96114913927E+02 0.  0.
        -13    1    3    3    0    0 -0.16738260524E+03 -0.11835625618E+03  0.83321730306E+03  0.85806539030E+03  0.00000000000E+00 0.  1.
         14    1    3    3    0    0 -0.67117473696E+02 -0.16331646500E+00  0.37907339017E+03  0.38496937161E+03  0.00000000000E+00 0. -1.
        -13    1    4    4    0    0  0.97495048682E+02  0.19538583072E+02  0.10592263653E+03  0.14528126402E+03  0.00000000000E+00 0.  1.
         13    1    4    4    0    0  0.17043892832E+03  0.10176966718E+03  0.42863128592E+03  0.47236773039E+03  0.00000000000E+00 0. -1.
          1    1    1    2  501    0 -0.33433898065E+02 -0.27886776108E+01  0.68274104766E+02  0.76072042461E+02  0.00000000000E+00 0. -1.
<scales pt_clust_5="13000.00000" pt_clust_6="13000.00000" pt_clust_7="13000.00000" pt_clust_8="13000.00000" pt_clust_9="33.55000"></scales>
<clustering>
<clus scale="   33.550">  2  9  1 -1</clus>
<clus scale="   80.309">  5  6 -1 -1</clus>
<clus scale="   96.115">  7  8 -1 -1</clus>
<clus scale="  282.811">  1  5  2 -1</clus>
<clus scale="   33.550">  2  5  1 -1</clus>
</clustering>
</event>
<event>
 9    2  0.9254368E-005  0.1937717E+03  0.7546771E-02  0.1156149E+00
          2   -1    0    0  502    0 -0.00000000000E+00  0.00000000000E+00  0.12621408855E+03  0.12621408855E+03  0.00000000000E+00 0. -1.
         21   -1    0    0  501  502  0.00000000000E+00 -0.00000000000E+00 -0.68780895202E+03  0.68780895202E+03  0.00000000000E+00 0.  1.
         24    2    1    2    0    0  0.29954746224E+02 -0.15983273284E+03 -0.49178027169E-01  0.18150576818E+03  0.80626001733E+02 0.  0.
         23    2    1    2    0    0 -0.12931339781E+02  0.21135635024E+03 -0.39486844152E+03  0.45722955702E+03  0.91099151334E+02 0.  0.
        -13    1    3    3    0    0  0.35653501077E+01 -0.88963593519E+02 -0.38105905104E+02  0.96846748511E+02  0.00000000000E+00 0.  1.
         14    1    3    3    0    0  0.26389396116E+02 -0.70869139323E+02  0.38056727077E+02  0.84659019670E+02  0.00000000000E+00 0. -1.
        -11    1    4    4    0    0  0.32593716649E+02  0.11573960303E+03 -0.25371910429E+03  0.28076928243E+03  0.00000000000E+00 0.  1.
         11    1    4    4    0    0 -0.45525056430E+02  0.95616747208E+02 -0.14114933723E+03  0.17646027460E+03  0.00000000000E+00 0. -1.
          1    1    1    2  501    0 -0.17023406443E+02 -0.51523617397E+02 -0.16667724392E+03  0.17528771536E+03  0.00000000000E+00 0. -1.
<scales pt_clust_5="13000.00000" pt_clust_6="13000.00000" pt_clust_7="13000.00000" pt_clust_8="13000.00000" pt_clust_9="54.26306"></scales>
<clustering>
<clus scale="   54.263">  2  9  1 -1</clus>
<clus scale="   80.626">  5  6 -1 -1</clus>
<clus scale="   91.099">  7  8 -1 -1</clus>
<clus scale="  189.074">  1  5  2 -1</clus>
<clus scale="   54.263">  2  5  1 -1</clus>
</clustering>
</event>
<event>
 9    2  0.9254368E-005  0.1593043E+03  0.7546771E-02  0.1191522E+00
          2   -1    0    0  502    0 -0.00000000000E+00  0.00000000000E+00  0.10104395265E+04  0.10104395265E+04  0.00000000000E+00 0. -1.
         21   -1    0    0  501  502  0.00000000000E+00 -0.00000000000E+00 -0.13485008174E+03  0.13485008174E+03  0.00000000000E+00 0. -1.
         24    2    1    2    0    0  0.55374328843E+02 -0.17023075119E+03  0.11112187472E+03  0.22513890991E+03  0.79338721749E+02 0.  0.
         23    2    1    2    0    0 -0.10854830306E+02  0.66243803791E+02 -0.29872829911E+02  0.11779669791E+03  0.92073922427E+02 0.  0.
        -11    1    3    3    0    0 -0.16745517968E+02 -0.46974289660E+02  0.47254429508E+02  0.68702091447E+02  0.00000000000E+00 0.  1.
         12    1    3    3    0    0  0.72119846811E+02 -0.12325646153E+03  0.63867445210E+02  0.15643681846E+03  0.00000000000E+00 0. -1.
        -13    1    4    4    0    0  0.25603198135E+02 -0.99716402812E+01 -0.17065664521E+02  0.32344926498E+02  0.00000000000E+00 0.  1.
         13    1    4    4    0    0 -0.36458028441E+02  0.76215444072E+02 -0.12807165390E+02  0.85451771417E+02  0.00000000000E+00 0. -1.
          1    1    1    2  501    0 -0.44519498537E+02  0.10398694739E+03  0.79434039995E+03  0.80235400041E+03  0.00000000000E+00 0. -1.
<scales pt_clust_5="13000.00000" pt_clust_6="13000.00000" pt_clust_7="13000.00000" pt_clust_8="13000.00000" pt_clust_9="113.11624"></scales>
<clustering>
<clus scale="   79.339">  5  6 -1 -1</clus>
<clus scale="   92.074">  7  8 -1 -1</clus>
<clus scale="  113.116">  2  9  1 -1</clus>
<clus scale="  152.299">  1  5  2 -1</clus>
<clus scale="  113.116">  2  5  1 -1</clus>
</clustering>
</event>
<event>
 9    2  0.9254368E-005  0.1333902E+03  0.7546771E-02  0.1240210E+00
         21   -1    0    0  501  502  0.00000000000E+00  0.00000000000E+00  0.11066236202E+03  0.11066236202E+03  0.00000000000E+00 0. -1.
          4   -1    0    0  502    0 -0.00000000000E+00 -0.00000000000E+00 -0.34708578717E+03  0.34708578717E+03  0.00000000000E+00 0. -1.
         24    2    1    2    0    0 -0.32615523086E+02  0.32817758188E+02 -0.13963718506E+03  0.16756703162E+03  0.80245803859E+02 0.  0.
         23    2    1    2    0    0 -0.61258314051E+02 -0.81621918519E+02  0.16456786847E+02  0.13520329169E+03  0.87145772286E+02 0.  0.
        -11    1    3    3    0    0 -0.27186722036E+02 -0.11064791699E+02 -0.10671596664E+02  0.31231881880E+02  0.00000000000E+00 0.  1.
         12    1    3    3    0    0 -0.54288010500E+01  0.43882549887E+02 -0.12896558839E+03  0.13633514974E+03  0.00000000000E+00 0. -1.
        -11    1    4    4    0    0 -0.77101929120E+02 -0.35434610726E+02  0.47339825944E+01  0.84986644259E+02  0.00000000000E+00 0.  1.
         11    1    4    4    0    0  0.15843615068E+02 -0.46187307794E+02  0.11722804253E+02  0.50216647431E+02  0.00000000000E+00 0. -1.
          3    1    1    2  501    0  0.93873837137E+02  0.48804160332E+02 -0.11324302694E+03  0.15497782588E+03  0.00000000000E+00 0. -1.
<scales pt_clust_5="13000.00000" pt_clust_6="13000.00000" pt_clust_7="13000.00000" pt_clust_8="13000.00000" pt_clust_9="100.98795"></scales>
<clustering>
<clus scale="   80.246">  5  6 -1 -1</clus>
<clus scale="   87.146">  7  8 -1 -1</clus>
<clus scale="   92.629">  2  5  1 -1</clus>
<clus scale="  100.988">  1  9  2 -1</clus>
<clus scale="  100.988">  1  5  2 -1</clus>
</clustering>
</event>
<event>
 9    2  0.9254368E-005  0.1329904E+03  0.7546771E-02  0.1225729E+00
         21   -1    0    0  501  502  0.00000000000E+00  0.00000000000E+00  0.49173062303E+03  0.49173062303E+03  0.00000000000E+00 0. -1.
          4   -1    0    0  502    0 -0.00000000000E+00 -0.00000000000E+00 -0.57027247020E+02  0.57027247020E+02  0.00000000000E+00 0. -1.
         24    2    1    2    0    0  0.98402794553E+02  0.52530311854E+02  0.11834724811E+03  0.18065590318E+03  0.78663464069E+02 0.  0.
         23    2    1    2    0    0 -0.48283168346E+02 -0.58908311601E+02  0.28579743774E+03  0.30905546523E+03  0.89630640116E+02 0.  0.
        -11    1    3    3    0    0  0.22097931138E+02 -0.68983703311E+00  0.74684066393E+02  0.77887766746E+02  0.00000000000E+00 0.  1.
         12    1    3    3    0    0  0.76304863415E+02  0.53220148887E+02  0.43663181715E+02  0.10276813643E+03  0.00000000000E+00 0. -1.
        -11    1    4    4    0    0 -0.18732321541E+02 -0.76387612082E+02  0.23441729643E+03  0.24725985524E+03  0.00000000000E+00 0. -1.
         11    1    4    4    0    0 -0.29550846805E+02  0.17479300482E+02  0.51380141308E+02  0.61795609983E+02  0.00000000000E+00 0.  1.
          3    1    1    2  501    0 -0.50119626207E+02  0.63779997464E+01  0.30558690165E+02  0.59046501644E+02  0.00000000000E+00 0. -1.
<scales pt_clust_5="13000.00000" pt_clust_6="13000.00000" pt_clust_7="13000.00000" pt_clust_8="13000.00000" pt_clust_9="50.52384"></scales>
<clustering>
<clus scale="   50.524">  1  9  2 -1</clus>
<clus scale="   78.663">  5  6 -1 -1</clus>
<clus scale="   89.631">  7  8 -1 -1</clus>
<clus scale="  125.860">  2  5  1 -1</clus>
<clus scale="   50.524">  1  5  2 -1</clus>
</clustering>
</event>
<event>
 9    2  0.9254368E-005  0.1703034E+03  0.7546771E-02  0.1177768E+00
          2   -1    0    0  502    0 -0.00000000000E+00  0.00000000000E+00  0.75527003723E+03  0.75527003723E+03  0.00000000000E+00 0. -1.
         21   -1    0    0  501  502  0.00000000000E+00 -0.00000000000E+00 -0.11866409554E+03  0.11866409554E+03  0.00000000000E+00 0.  1.
         24    2    1    2    0    0  0.50050763343E+02 -0.13098661173E+03  0.61819301770E+03  0.64030361240E+03  0.90352296924E+02 0.  0.
         23    2    1    2    0    0 -0.71172446847E+02  0.15557956628E+03 -0.38393778546E+01  0.19430999310E+03  0.92038654719E+02 0.  0.
        -13    1    3    3    0    0  0.52777947125E+02 -0.94259929195E+02  0.28009944018E+03  0.30021016362E+03  0.00000000000E+00 0.  1.
         14    1    3    3    0    0 -0.27271837827E+01 -0.36726682538E+02  0.33809357752E+03  0.34009344878E+03  0.00000000000E+00 0. -1.
        -13    1    4    4    0    0 -0.16374285150E+02  0.12932088685E+03 -0.18874494586E+02  0.13171277666E+03  0.00000000000E+00 0.  1.
         13    1    4    4    0    0 -0.54798161697E+02  0.26258679427E+02  0.15035116731E+02  0.62597216438E+02  0.00000000000E+00 0. -1.
          1    1    1    2  501    0  0.21121683505E+02 -0.24592954545E+02  0.22252301845E+02  0.39320527269E+02  0.00000000000E+00 0. -1.
<scales pt_clust_5="13000.00000" pt_clust_6="13000.00000" pt_clust_7="13000.00000" pt_clust_8="13000.00000" pt_clust_9="32.41819"></scales>
<clustering>
<clus scale="   32.418">  2  9  1 -1</clus>
<clus scale="   90.352">  5  6 -1 -1</clus>
<clus scale="   92.039">  7  8 -1 -1</clus>
<clus scale="  169.398">  1  5  2 -1</clus>
<clus scale="   32.418">  2  5  1 -1</clus>
</clustering>
</event>
<event>
 9    2  0.9254368E-005  0.9871002E+02  0.7546771E-02  0.1286524E+00
         21   -1    0    0  501  502  0.00000000000E+00  0.00000000000E+00  0.88098733070E+02  0.88098733070E+02  0.00000000000E+00 0.  1.
          4   -1    0    0  502    0 -0.00000000000E+00 -0.00000000000E+00 -0.22771584015E+03  0.22771584015E+03  0.00000000000E+00 0. -1.
         24    2    1    2    0    0  0.26891430653E+02 -0.20792075727E+02 -0.14826161959E+03  0.17401239902E+03  0.84518327680E+02 0.  0.
         23    2    1    2    0    0 -0.53280560127E+02  0.97245233426E+01 -0.11464142179E+02  0.10682739953E+03  0.91363462575E+02 0.  0.
        -11    1    3    3    0    0  0.48829291170E+02 -0.27678002886E+02 -0.13771897776E+03  0.14871747831E+03  0.00000000000E+00 0.  1.
         12    1    3    3    0    0 -0.21937860518E+02  0.68859271597E+01 -0.10542641830E+02  0.25294920709E+02  0.00000000000E+00 0. -1.
        -11    1    4    4    0    0 -0.26678613434E+02 -0.28005200914E+02 -0.37461171122E+02  0.53845882246E+02  0.00000000000E+00 0. -1.
         11    1    4    4    0    0 -0.26601946692E+02  0.37729724257E+02  0.25997028942E+02  0.52981517288E+02  0.00000000000E+00 0.  1.
          3    1    1    2  501    0  0.26389129474E+02  0.11067552384E+02  0.20108654683E+02  0.34974774672E+02  0.00000000000E+00 0. -1.
<scales pt_clust_5="13000.00000" pt_clust_6="13000.00000" pt_clust_7="13000.00000" pt_clust_8="13000.00000" pt_clust_9="28.61602"></scales>
<clustering>
<clus scale="   28.616">  1  9  2 -1</clus>
<clus scale="   84.518">  5  6 -1 -1</clus>
<clus scale="   91.363">  7  8 -1 -1</clus>
<clus scale="   92.411">  2  5  1 -1</clus>
<clus scale="   28.616">  1  5  2 -1</clus>
</clustering>
</event>
<event>
 9    2  0.9254368E-005  0.1161389E+03  0.7546771E-02  0.1258186E+00
          2   -1    0    0  502    0 -0.00000000000E+00  0.00000000000E+00  0.15417031256E+03  0.15417031256E+03  0.00000000000E+00 0. -1.
         21   -1    0    0  501  502  0.00000000000E+00 -0.00000000000E+00 -0.10395142867E+03  0.10395142867E+03  0.00000000000E+00 0. -1.
         24    2    1    2    0    0  0.63587015956E+00  0.41750884310E+02  0.24046537728E+02  0.12081702508E+03  0.11079249479E+03 0.  0.
         23    2    1    2    0    0 -0.24952350998E+02 -0.23051533541E+02  0.10479365399E+01  0.97653828155E+02  0.91548779147E+02 0.  0.
        -13    1    3    3    0    0 -0.33602714863E+02 -0.42127765386E+01 -0.27582899649E+02  0.43677297139E+02  0.00000000000E+00 0.  1.
         14    1    3    3    0    0  0.34238585023E+02  0.45963660849E+02  0.51629437377E+02  0.77139727941E+02  0.00000000000E+00 0. -1.
        -11    1    4    4    0    0 -0.43543280347E+02 -0.46498309987E+02  0.13710591681E+02  0.65162032037E+02  0.00000000000E+00 0. -1.
         11    1    4    4    0    0  0.18590929349E+02  0.23446776446E+02 -0.12662655141E+02  0.32491796118E+02  0.00000000000E+00 0.  1.
          1    1    1    2  501    0  0.24316480838E+02 -0.18699350769E+02  0.25124409628E+02  0.39650887993E+02  0.00000000000E+00 0. -1.
<scales pt_clust_5="13000.00000" pt_clust_6="13000.00000" pt_clust_7="13000.00000" pt_clust_8="13000.00000" pt_clust_9="30.67504"></scales>
<clustering>
<clus scale="   30.675">  2  9  1 -1</clus>
<clus scale="   91.549">  7  8 -1 -1</clus>
<clus scale="   97.951">  2  7  1 -1</clus>
<clus scale="  110.792">  5  6 -1 -1</clus>
<clus scale="   30.675">  2  5  1 -1</clus>
</clustering>
</event>
<event>
 9    2  0.9254368E-005  0.1519639E+03  0.7546771E-02  0.1200274E+00
          2   -1    0    0  502    0 -0.00000000000E+00  0.00000000000E+00  0.21740418184E+03  0.21740418184E+03  0.00000000000E+00 0. -1.
         21   -1    0    0  501  502  0.00000000000E+00 -0.00000000000E+00 -0.24738351490E+03  0.24738351490E+03  0.00000000000E+00 0.  1.
         23    2    1    2    0    0 -0.66769044336E+02 -0.93370657578E+02  0.11560439547E+03  0.18759558929E+03  0.93013675827E+02 0.  0.
         24    2    1    2    0    0  0.10928861790E+03  0.87242344384E+02 -0.44847367848E+02  0.16767825114E+03  0.80928862872E+02 0.  0.
        -11    1    4    4    0    0  0.79152154911E+02  0.99042468059E+02 -0.47062686584E+02  0.13523819939E+03  0.00000000000E+00 0.  1.
         12    1    4    4    0    0  0.30136462989E+02 -0.11800123674E+02  0.22153187358E+01  0.32440051746E+02  0.00000000000E+00 0. -1.
        -11    1    3    3    0    0 -0.19304341795E+02 -0.41777578241E+02 -0.68149498683E+01  0.46523834725E+02  0.00000000000E+00 0.  1.
         11    1    3    3    0    0 -0.47464702541E+02 -0.51593079338E+02  0.12241934534E+03  0.14107175457E+03  0.00000000000E+00 0. -1.
          1    1    1    2  501    0 -0.42519573563E+02  0.61283131940E+01 -0.10073636069E+03  0.10951385631E+03  0.00000000000E+00 0. -1.
<scales pt_clust_5="13000.00000" pt_clust_6="13000.00000" pt_clust_7="13000.00000" pt_clust_8="13000.00000" pt_clust_9="42.95894"></scales>
<clustering>
<clus scale="   42.959">  2  9  1 -1</clus>
<clus scale="   80.929">  5  6 -1 -1</clus>
<clus scale="   93.014">  7  8 -1 -1</clus>
<clus scale="  144.883">  2  5  1 -1</clus>
<clus scale="   42.959">  2  5  1 -1</clus>
</clustering>
</event>
<event>
 9    2  0.9254368E-005  0.1047293E+03  0.7546771E-02  0.1274970E+00
          2   -1    0    0  502    0 -0.00000000000E+00  0.00000000000E+00  0.19814401589E+03  0.19814401589E+03  0.00000000000E+00 0. -1.
         21   -1    0    0  501  502  0.00000000000E+00 -0.00000000000E+00 -0.72099695355E+02  0.72099695355E+02  0.00000000000E+00 0. -1.
         24    2    1    2    0    0  0.29108984013E+02  0.42262680435E+02  0.72318579010E+02  0.11985795385E+03  0.80637988096E+02 0.  0.
         23    2    1    2    0    0 -0.47215023354E+02 -0.33442440913E+02  0.17295819534E+02  0.10875926940E+03  0.90453181390E+02 0.  0.
        -13    1    3    3    0    0  0.37814566504E+02  0.99657572524E+01 -0.11610853320E+01  0.39122958435E+02  0.00000000000E+00 0.  1.
         14    1    3    3    0    0 -0.87055824911E+01  0.32296923182E+02  0.73479664342E+02  0.80734995419E+02  0.00000000000E+00 0. -1.
        -13    1    4    4    0    0 -0.44947426247E+02 -0.12700613346E+02  0.50976692182E+02  0.69138989373E+02  0.00000000000E+00 0.  1.
         13    1    4    4    0    0 -0.22675971068E+01 -0.20741827567E+02 -0.33680872648E+02  0.39620280032E+02  0.00000000000E+00 0. -1.
          1    1    1    2  501    0  0.18106039341E+02 -0.88202395211E+01  0.36429921992E+02  0.41626487987E+02  0.00000000000E+00 0. -1.
<scales pt_clust_5="13000.00000" pt_clust_6="13000.00000" pt_clust_7="13000.00000" pt_clust_8="13000.00000" pt_clust_9="20.14015"></scales>
<clustering>
<clus scale="   20.140">  2  9  1 -1</clus>
<clus scale="   80.638">  5  6 -1 -1</clus>
<clus scale="   90.453">  7  8 -1 -1</clus>
<clus scale="   96.379">  1  5  2 -1</clus>
<clus scale="   20.140">  2  5  1 -1</clus>
</clustering>
</event>
<event>
 9    2  0.9254368E-005  0.1023319E+03  0.7546771E-02  0.1282088E+00
         -1   -1    0    0    0  501 -0.00000000000E+00  0.00000000000E+00  0.78106361049E+03  0.78106361049E+03  0.00000000000E+00 0.  1.
         21   -1    0    0  501  502  0.00000000000E+00 -0.00000000000E+00 -0.36870990756E+02  0.36870990756E+02  0.00000000000E+00 0.  1.
         24    2    1    2    0    0  0.67120342228E+01 -0.61515141091E+02  0.47708394572E+03  0.48781438174E+03  0.80775093846E+02 0.  0.
         23    2    1    2    0    0  0.24656550795E+00 -0.31920077372E+02  0.12161751233E+03  0.15707039926E+03  0.94134684804E+02 0.  0.
        -13    1    3    3    0    0  0.36961728744E+02 -0.51533827739E+02  0.22639459046E+03  0.23510936898E+03  0.00000000000E+00 0.  1.
         14    1    3    3    0    0 -0.30249694522E+02 -0.99813133519E+01  0.25068935526E+03  0.25270501276E+03  0.00000000000E+00 0. -1.
        -13    1    4    4    0    0  0.23007255302E+02  0.26646830385E+02  0.31698420836E+02  0.47372747963E+02  0.00000000000E+00 0. -1.
         13    1    4    4    0    0 -0.22760689794E+02 -0.58566907757E+02  0.89919091495E+02  0.10969765129E+03  0.00000000000E+00 0.  1.
         -2    1    1    2    0  502 -0.69585997307E+01  0.93435218463E+02  0.14549116169E+03  0.17304982025E+03  0.00000000000E+00 0.  1.
<scales pt_clust_5="13000.00000" pt_clust_6="13000.00000" pt_clust_7="13000.00000" pt_clust_8="13000.00000" pt_clust_9="93.69398"></scales>
<clustering>
<clus scale="   80.775">  5  6 -1 -1</clus>
<clus scale="   93.694">  2  9  1 -1</clus>
<clus scale="   90.195">  1  5  2 -1</clus>
<clus scale="   94.135">  7  8 -1 -1</clus>
<clus scale="   93.694">  2  5  1 -1</clus>
</clustering>
</event>
<event>
 9    2  0.9254368E-005  0.8730693E+02  0.7546771E-02  0.1311864E+00
          2   -1    0    0  502    0 -0.00000000000E+00  0.00000000000E+00  0.53973317048E+03  0.53973317048E+03  0.00000000000E+00 0. -1.
         21   -1    0    0  501  502  0.00000000000E+00 -0.00000000000E+00 -0.73793665782E+02  0.73793665782E+02  0.00000000000E+00 0. -1.
         24    2    1    2    0    0  0.34381977584E+02  0.22977345092E+02  0.34395044343E+03  0.35558049064E+03  0.80159210418E+02 0.  0.
         23    2    1    2    0    0  0.32009096213E+01  0.51485924347E+01  0.17068103987E+03  0.19031166109E+03  0.83962831958E+02 0.  0.
        -11    1    3    3    0    0 -0.20778289224E+02  0.19722875473E+02  0.62442284852E+02  0.68700568102E+02  0.00000000000E+00 0.  1.
         12    1    3    3    0    0  0.55160266808E+02  0.32544696189E+01  0.28150815858E+03  0.28687992253E+03  0.00000000000E+00 0. -1.
        -13    1    4    4    0    0  0.19437145844E+02  0.37684257732E+02  0.57570467300E+02  0.71500102269E+02  0.00000000000E+00 0. -1.
         13    1    4    4    0    0 -0.16236236223E+02 -0.32535665298E+02  0.11311057257E+03  0.11881155882E+03  0.00000000000E+00 0.  1.
          1    1    1    2  501    0 -0.37582887206E+02 -0.28125937526E+02 -0.48691978599E+02  0.67634684536E+02  0.00000000000E+00 0. -1.
<scales pt_clust_5="13000.00000" pt_clust_6="13000.00000" pt_clust_7="13000.00000" pt_clust_8="13000.00000" pt_clust_9="46.94190"></scales>
<clustering>
<clus scale="   46.942">  2  9  1 -1</clus>
<clus scale="   80.159">  5  6 -1 -1</clus>
<clus scale="   83.655">  1  5  2 -1</clus>
<clus scale="   83.963">  7  8 -1 -1</clus>
<clus scale="   46.942">  2  5  1 -1</clus>
</clustering>
</event>
<event>
 9    2  0.9254368E-005  0.1088336E+03  0.7546771E-02  0.1262965E+00
         -1   -1    0    0    0  501 -0.00000000000E+00  0.00000000000E+00  0.46721575603E+02  0.46721575603E+02  0.00000000000E+00 0.  1.
         21   -1    0    0  501  502  0.00000000000E+00 -0.00000000000E+00 -0.65493885177E+03  0.65493885177E+03  0.00000000000E+00 0. -1.
         23    2    1    2    0    0  0.46626655526E+02  0.48118760502E+02 -0.76238053192E+02  0.13172117752E+03  0.83956939764E+02 0.  0.
         24    2    1    2    0    0 -0.82703703336E+02 -0.13863182217E+02 -0.18597709856E+03  0.22037885719E+03  0.83350279780E+02 0.  0.
        -13    1    4    4    0    0 -0.65305935384E+02 -0.73298247562E+01 -0.48560122220E+02  0.81710935605E+02  0.00000000000E+00 0.  1.
         14    1    4    4    0    0 -0.17397767952E+02 -0.65333574611E+01 -0.13741697634E+03  0.13866792158E+03  0.00000000000E+00 0. -1.
        -11    1    3    3    0    0  0.36353776917E+02 -0.91006824597E+01 -0.21355664029E+01  0.37536384499E+02  0.00000000000E+00 0.  1.
         11    1    3    3    0    0  0.10272878608E+02  0.57219442962E+02 -0.74102486789E+02  0.94184793020E+02  0.00000000000E+00 0. -1.
         -2    1    1    2    0  502  0.36077047810E+02 -0.34255578285E+02 -0.34600212442E+03  0.34956039267E+03  0.00000000000E+00 0.  1.
<scales pt_clust_5="13000.00000" pt_clust_6="13000.00000" pt_clust_7="13000.00000" pt_clust_8="13000.00000" pt_clust_9="49.74935"></scales>
<clustering>
<clus scale="   49.749">  2  9  1 -1</clus>
<clus scale="   83.350">  5  6 -1 -1</clus>
<clus scale="   83.957">  7  8 -1 -1</clus>
<clus scale="  108.366">  2  5  1 -1</clus>
<clus scale="   49.749">  2  5  1 -1</clus>
</clustering>
</event>
<event>
 9    2  0.9254368E-005  0.1384646E+03  0.7546771E-02  0.1223537E+00
         21   -1    0    0  501  502  0.00000000000E+00  0.00000000000E+00  0.34044736818E+02  0.34044736818E+02  0.00000000000E+00 0. -1.
          2   -1    0    0  502    0 -0.00000000000E+00 -0.00000000000E+00 -0.10634019883E+04  0.10634019883E+04  0.00000000000E+00 0. -1.
         23    2    1    2    0    0  0.69662486958E+02  0.29845419138E+02 -0.23339947144E+03  0.26182784344E+03  0.91295647228E+02 0.  0.
         24    2    1    2    0    0 -0.13938383960E+03 -0.18471773258E+02 -0.30901944104E+03  0.34358293500E+03  0.52793533022E+02 0.  0.
        -13    1    4    4    0    0 -0.24458384052E+02  0.12979031530E+02 -0.33904298593E+02  0.43774070784E+02  0.00000000000E+00 0.  1.
         14    1    4    4    0    0 -0.11492545554E+03 -0.31450804788E+02 -0.27511514245E+03  0.29980886421E+03  0.00000000000E+00 0. -1.
        -13    1    3    3    0    0  0.13655786752E+02 -0.26263175782E+02 -0.24614067001E+02  0.38497885764E+02  0.00000000000E+00 0.  1.
         13    1    3    3    0    0  0.56006700206E+02  0.56108594920E+02 -0.20878540444E+03  0.22332995768E+03  0.00000000000E+00 0. -1.
          1    1    1    2  501    0  0.69721352639E+02 -0.11373645880E+02 -0.48693833900E+03  0.49203594668E+03  0.00000000000E+00 0. -1.
<scales pt_clust_5="13000.00000" pt_clust_6="13000.00000" pt_clust_7="13000.00000" pt_clust_8="13000.00000" pt_clust_9="70.64299"></scales>
<clustering>
<clus scale="   52.794">  5  6 -1 -1</clus>
<clus scale="   70.643">  1  9  2 -1</clus>
<clus scale="   91.296">  7  8 -1 -1</clus>
<clus scale="  116.725">  1  5  2 -1</clus>
<clus scale="   70.643">  1  5  2 -1</clus>
</clustering>
</event>
<event>
 9    2  0.9254368E-005  0.1074699E+04  0.7546771E-02  0.9735687E-01
          2   -1    0    0  502    0 -0.00000000000E+00  0.00000000000E+00  0.30581322189E+04  0.30581322189E+04  0.00000000000E+00 0. -1.
         21   -1    0    0  501  502  0.00000000000E+00 -0.00000000000E+00 -0.46521133798E+03  0.46521133798E+03  0.00000000000E+00 0.  1.
         23    2    1    2    0    0 -0.77775251200E+02  0.14064108432E+03  0.44222190567E+03  0.47816651359E+03  0.85170984335E+02 0.  0.
         24    2    1    2    0    0 -0.92495728135E+03 -0.53961339784E+03  0.99385767951E+03  0.14631109188E+04  0.78815493852E+02 0.  0.
        -11    1    4    4    0    0 -0.78925719908E+03 -0.43149832186E+03  0.85266754713E+03  0.12394190873E+04  0.00000000000E+00 0.  1.
         12    1    4    4    0    0 -0.13570008226E+03 -0.10811507598E+03  0.14119013239E+03  0.22369183146E+03  0.00000000000E+00 0. -1.
        -13    1    3    3    0    0 -0.96516576814E+02  0.11675476985E+03  0.36443088452E+03  0.39466060796E+03  0.00000000000E+00 0.  1.
         13    1    3    3    0    0  0.18741325614E+02  0.23886314474E+02  0.77791021149E+02  0.83505905638E+02  0.00000000000E+00 0. -1.
          1    1    1    2  501    0  0.10027325325E+04  0.39897231352E+03  0.11568412957E+04  0.15820661245E+04  0.00000000000E+00 0. -1.
<scales pt_clust_5="13000.00000" pt_clust_6="13000.00000" pt_clust_7="13000.00000" pt_clust_8="13000.00000" pt_clust_9="1071.80534"></scales>
<clustering>
<clus scale="   78.815">  5  6 -1 -1</clus>
<clus scale="   85.171">  7  8 -1 -1</clus>
<clus scale="  181.887">  1  7  2 -1</clus>
<clus scale=" 1071.805">  2  9  1 -1</clus>
<clus scale=" 1071.805">  2  5  1 -1</clus>
</clustering>
</event>
<event>
 9    2  0.9254368E-005  0.9227242E+02  0.7546771E-02  0.1304223E+00
          4   -1    0    0  502    0 -0.00000000000E+00  0.00000000000E+00  0.30664148134E+02  0.30664148134E+02  0.00000000000E+00 0. -1.
         21   -1    0    0  501  502  0.00000000000E+00 -0.00000000000E+00 -0.60305467995E+03  0.60305467995E+03  0.00000000000E+00 0. -1.
         24    2    1    2    0    0  0.57269370791E+01 -0.25601191308E+01 -0.58772968085E+02  0.99732699137E+02  0.80330551358E+02 0.  0.
         23    2    1    2    0    0 -0.21330125665E+02  0.39941018978E+02 -0.30814362542E+03  0.32455754806E+03  0.91295393407E+02 0.  0.
        -11    1    3    3    0    0 -0.21794331208E+02 -0.25531977262E+02 -0.53977806327E+02  0.63564756835E+02  0.00000000000E+00 0.  1.
         12    1    3    3    0    0  0.27521268287E+02  0.22971858131E+02 -0.47951617586E+01  0.36167942302E+02  0.00000000000E+00 0. -1.
        -13    1    4    4    0    0 -0.31132427672E+02 -0.22621597275E+02 -0.12345558273E+03  0.12931452209E+03  0.00000000000E+00 0.  1.
         13    1    4    4    0    0  0.98023020070E+01  0.62562616253E+02 -0.18468804269E+03  0.19524302597E+03  0.00000000000E+00 0. -1.
          3    1    1    2  501    0  0.15603188586E+02 -0.37380899847E+02 -0.20547393831E+03  0.20942858088E+03  0.00000000000E+00 0. -1.
<scales pt_clust_5="13000.00000" pt_clust_6="13000.00000" pt_clust_7="13000.00000" pt_clust_8="13000.00000" pt_clust_9="40.50668"></scales>
<clustering>
<clus scale="   40.507">  2  9  1 -1</clus>
<clus scale="   80.331">  5  6 -1 -1</clus>
<clus scale="   81.439">  1  5  2 -1</clus>
<clus scale="   91.295">  7  8 -1 -1</clus>
<clus scale="   40.507">  2  5  1 -1</clus>
</clustering>
</event>
<event>
 9    2  0.9254368E-005  0.1304526E+03  0.7546771E-02  0.1237431E+00
          2   -1    0    0  502    0 -0.00000000000E+00  0.00000000000E+00  0.49764563438E+03  0.49764563438E+03  0.00000000000E+00 0. -1.
         21   -1    0    0  501  502  0.00000000000E+00 -0.00000000000E+00 -0.64186329416E+02  0.64186329416E+02  0.00000000000E+00 0.  1.
         24    2    1    2    0    0 -0.57196682423E+02 -0.34323991329E+02  0.58712462455E+02  0.12011745862E+03  0.80817409989E+02 0.  0.
         23    2    1    2    0    0 -0.57012963362E+02  0.20534992887E+02  0.24377924136E+03  0.26739728796E+03  0.91656026338E+02 0.  0.
        -13    1    3    3    0    0  0.27898458747E+01 -0.36219034355E+02  0.24157087996E+00  0.36327125487E+02  0.00000000000E+00 0.  1.
         14    1    3    3    0    0 -0.59986528298E+02  0.18950430268E+01  0.58470891575E+02  0.83790333135E+02  0.00000000000E+00 0. -1.
        -13    1    4    4    0    0 -0.29440015000E+02  0.56916662726E+02  0.13547579195E+03  0.14986631104E+03  0.00000000000E+00 0. -1.
         13    1    4    4    0    0 -0.27572948363E+02 -0.36381669840E+02  0.10830344941E+03  0.11753097692E+03  0.00000000000E+00 0.  1.
          1    1    1    2  501    0  0.11420964579E+03  0.13788998442E+02  0.13096760115E+03  0.17431721722E+03  0.00000000000E+00 0. -1.
<scales pt_clust_5="13000.00000" pt_clust_6="13000.00000" pt_clust_7="13000.00000" pt_clust_8="13000.00000" pt_clust_9="92.82802"></scales>
<clustering>
<clus scale="   80.817">  5  6 -1 -1</clus>
<clus scale="   91.656">  7  8 -1 -1</clus>
<clus scale="  104.791">  1  5  2 -1</clus>
<clus scale="   92.828">  2  9  1 -1</clus>
<clus scale="   92.828">  2  5  1 -1</clus>
</clustering>
</event>
<event>
 9    2  0.9254368E-005  0.9598241E+02  0.7546771E-02  0.1294735E+00
          2   -1    0    0  502    0 -0.00000000000E+00  0.00000000000E+00  0.17777314299E+04  0.17777314299E+04  0.00000000000E+00 0. -1.
         21   -1    0    0  501  502  0.00000000000E+00 -0.00000000000E+00 -0.95581319488E+01  0.95581319488E+01  0.00000000000E+00 0.  1.
         24    2    1    2    0    0  0.26099409501E+02  0.22081082074E+02  0.13163077228E+04  0.13191957719E+04  0.80266494649E+02 0.  0.
         23    2    1    2    0    0 -0.92280017887E+00 -0.25423756780E+02  0.31077634731E+03  0.32473687401E+03  0.90691125950E+02 0.  0.
        -11    1    3    3    0    0 -0.14954580335E+02  0.16871222348E+02  0.11575705122E+03  0.11793206741E+03  0.00000000000E+00 0.  1.
         12    1    3    3    0    0  0.41053989836E+02  0.52098597258E+01  0.12005506716E+04  0.12012637045E+04  0.00000000000E+00 0. -1.
        -11    1    4    4    0    0  0.38024679690E+02  0.32625697363E+01  0.76175059802E+02  0.85200706351E+02  0.00000000000E+00 0. -1.
         11    1    4    4    0    0 -0.38947479868E+02 -0.28686326517E+02  0.23460128751E+03  0.23953616766E+03  0.00000000000E+00 0.  1.
          1    1    1    2  501    0 -0.25176609322E+02  0.33426747064E+01  0.14108922782E+03  0.14335691590E+03  0.00000000000E+00 0. -1.
<scales pt_clust_5="13000.00000" pt_clust_6="13000.00000" pt_clust_7="13000.00000" pt_clust_8="13000.00000" pt_clust_9="25.39754"></scales>
<clustering>
<clus scale="   25.398">  2  9  1 -1</clus>
<clus scale="   80.266">  5  6 -1 -1</clus>
<clus scale="   86.200">  1  5  2 -1</clus>
<clus scale="   90.691">  7  8 -1 -1</clus>
<clus scale="   25.398">  2  5  1 -1</clus>
</clustering>
</event>
<event>
 9    2  0.9254368E-005  0.1018883E+03  0.7546771E-02  0.1287936E+00
         21   -1    0    0  501  502  0.00000000000E+00  0.00000000000E+00  0.43585407896E+03  0.43585407896E+03  0.00000000000E+00 0.  1.
         -3   -1    0    0    0  501 -0.00000000000E+00 -0.00000000000E+00 -0.60652576037E+02  0.60652576037E+02  0.00000000000E+00 0.  1.
         23    2    1    2    0    0 -0.15897999579E+02 -0.71013486677E+00  0.34422788024E+02  0.10802690156E+03  0.10115153208E+03 0.  0.
         24    2    1    2    0    0 -0.49698773442E+02  0.27062448572E+02  0.11337020095E+03  0.15033691125E+03  0.80907602959E+02 0.  0.
        -11    1    4    4    0    0 -0.51946050435E+02  0.52069148150E+02  0.87053678813E+02  0.11396460564E+03  0.00000000000E+00 0.  1.
         12    1    4    4    0    0  0.22472769931E+01 -0.25006699578E+02  0.26316522135E+02  0.36372305604E+02  0.00000000000E+00 0. -1.
        -11    1    3    3    0    0  0.21727786639E+01 -0.49658122042E+02  0.22195899820E+02  0.54436274860E+02  0.00000000000E+00 0. -1.
         11    1    3    3    0    0 -0.18070778243E+02  0.48947987175E+02  0.12226888204E+02  0.53590626699E+02  0.00000000000E+00 0.  1.
         -4    1    1    2    0  502  0.65596773021E+02 -0.26352313705E+02  0.22740851395E+03  0.23814284219E+03  0.00000000000E+00 0.  1.
<scales pt_clust_5="13000.00000" pt_clust_6="13000.00000" pt_clust_7="13000.00000" pt_clust_8="13000.00000" pt_clust_9="70.69216"></scales>
<clustering>
<clus scale="   70.692">  1  9  2 -1</clus>
<clus scale="   80.908">  5  6 -1 -1</clus>
<clus scale="   81.827">  1  5  2 -1</clus>
<clus scale="  101.152">  7  8 -1 -1</clus>
<clus scale="   70.692">  1  5  2 -1</clus>
</clustering>
</event>
<event>
 9    2  0.9254368E-005  0.1041150E+03  0.7546771E-02  0.1288278E+00
          4   -1    0    0  502    0 -0.00000000000E+00  0.00000000000E+00  0.26784695246E+03  0.26784695246E+03  0.00000000000E+00 0. -1.
         21   -1    0    0  501  502  0.00000000000E+00 -0.00000000000E+00 -0.58376968742E+02  0.58376968742E+02  0.00000000000E+00 0.  1.
         24    2    1    2    0    0 -0.36633914999E+02  0.45381166956E+02  0.14047048756E+03  0.16043308291E+03  0.51042356681E+02 0.  0.
         23    2    1    2    0    0  0.56258002262E+02 -0.15250110965E+02  0.23244244582E+02  0.10759695216E+03  0.87402977665E+02 0.  0.
        -11    1    3    3    0    0 -0.25418386964E+01  0.31862436737E+02  0.10364001783E+03  0.10845703811E+03  0.00000000000E+00 0.  1.
         12    1    3    3    0    0 -0.34092076303E+02  0.13518730219E+02  0.36830469727E+02  0.51976044806E+02  0.00000000000E+00 0. -1.
        -11    1    4    4    0    0  0.69397635470E+02  0.12997048935E+02  0.28245313568E+02  0.76044413525E+02  0.00000000000E+00 0.  1.
         11    1    4    4    0    0 -0.13139633207E+02 -0.28247159900E+02 -0.50010689856E+01  0.31552538634E+02  0.00000000000E+00 0. -1.
          3    1    1    2  501    0 -0.19624087263E+02 -0.30131055991E+02  0.45755251574E+02  0.58193886128E+02  0.00000000000E+00 0. -1.
<scales pt_clust_5="13000.00000" pt_clust_6="13000.00000" pt_clust_7="13000.00000" pt_clust_8="13000.00000" pt_clust_9="35.95812"></scales>
<clustering>
<clus scale="   35.958">  2  9  1 -1</clus>
<clus scale="   51.042">  5  6 -1 -1</clus>
<clus scale="   76.197">  1  5  2 -1</clus>
<clus scale="   87.403">  7  8 -1 -1</clus>
<clus scale="   35.958">  2  5  1 -1</clus>
</clustering>
</event>
<event>
 9    2  0.9254368E-005  0.9936312E+02  0.7546771E-02  0.1288601E+00
          2   -1    0    0  502    0 -0.00000000000E+00  0.00000000000E+00  0.86147809576E+03  0.86147809576E+03  0.00000000000E+00 0. -1.
         21   -1    0    0  501  502  0.00000000000E+00 -0.00000000000E+00 -0.16749542949E+02  0.16749542949E+02  0.00000000000E+00 0.  1.
         23    2    1    2    0    0  0.37852031955E+02  0.22034373665E+01  0.49801993222E+03  0.50776619231E+03  0.91460492639E+02 0.  0.
         24    2    1    2    0    0 -0.37569499030E+02  0.23469923251E+02  0.32399145643E+03  0.33617922334E+03  0.77998088476E+02 0.  0.
        -13    1    4    4    0    0 -0.33593319830E+02  0.18619268330E+02  0.54826871596E+02  0.66941572579E+02  0.00000000000E+00 0.  1.
         14    1    4    4    0    0 -0.39761791995E+01  0.48506549209E+01  0.26916458484E+03  0.26923765076E+03  0.00000000000E+00 0. -1.
        -13    1    3    3    0    0 -0.70139039341E+01 -0.36875783936E+02  0.14570690256E+03  0.15046434708E+03  0.00000000000E+00 0. -1.
         13    1    3    3    0    0  0.44865935889E+02  0.39079221303E+02  0.35231302966E+03  0.35730184523E+03  0.00000000000E+00 0.  1.
          1    1    1    2  501    0 -0.28253292492E+00 -0.25673360617E+02  0.22717164160E+02  0.34282223057E+02  0.00000000000E+00 0. -1.
<scales pt_clust_5="13000.00000" pt_clust_6="13000.00000" pt_clust_7="13000.00000" pt_clust_8="13000.00000" pt_clust_9="25.67492"></scales>
<clustering>
<clus scale="   25.675">  2  9  1 -1</clus>
<clus scale="   77.998">  5  6 -1 -1</clus>
<clus scale="   87.130">  2  5  1 -1</clus>
<clus scale="   91.460">  7  8 -1 -1</clus>
<clus scale="   25.675">  2  5  1 -1</clus>
</clustering>
</event>
<event>
 9    2  0.9254368E-005  0.1182300E+03  0.7546771E-02  0.1247853E+00
         21   -1    0    0  501  502  0.00000000000E+00  0.00000000000E+00  0.36265230074E+03  0.36265230074E+03  0.00000000000E+00 0.  1.
         -1   -1    0    0    0  501 -0.00000000000E+00 -0.00000000000E+00 -0.74036575521E+02  0.74036575521E+02  0.00000000000E+00 0.  1.
         24    2    1    2    0    0 -0.89142251897E+02  0.25513506279E+02  0.42959546257E+02  0.13068782832E+03  0.81464751762E+02 0.  0.
         23    2    1    2    0    0  0.33626697753E+02 -0.64374559689E+02  0.13680380337E+03  0.17777859322E+03  0.87264591061E+02 0.  0.
        -11    1    3    3    0    0 -0.38203372472E+02 -0.90192244548E+01  0.55405048579E+02  0.67901130227E+02  0.00000000000E+00 0.  1.
         12    1    3    3    0    0 -0.50938879425E+02  0.34532730734E+02 -0.12445502322E+02  0.62786698090E+02  0.00000000000E+00 0. -1.
        -11    1    4    4    0    0  0.15269759915E+02  0.19894580198E+02  0.17565686773E+02  0.30618838007E+02  0.00000000000E+00 0. -1.
         11    1    4    4    0    0  0.18356937838E+02 -0.84269139886E+02  0.11923811659E+03  0.14715975521E+03  0.00000000000E+00 0.  1.
         -2    1    1    2    0  502  0.55515554144E+02  0.38861053410E+02  0.10885237560E+03  0.12822245473E+03  0.00000000000E+00 0.  1.
<scales pt_clust_5="13000.00000" pt_clust_6="13000.00000" pt_clust_7="13000.00000" pt_clust_8="13000.00000" pt_clust_9="67.76546"></scales>
<clustering>
<clus scale="   67.765">  1  9  2 -1</clus>
<clus scale="   81.465">  5  6 -1 -1</clus>
<clus scale="   87.265">  7  8 -1 -1</clus>
<clus scale="  114.016">  2  5  1 -1</clus>
<clus scale="   67.765">  1  5  2 -1</clus>
</clustering>
</event>
<event>
 9    2  0.9254368E-005  0.9212103E+02  0.7546771E-02  0.1307045E+00
         -1   -1    0    0    0  501 -0.00000000000E+00  0.00000000000E+00  0.45494474036E+03  0.45494474036E+03  0.00000000000E+00 0.  1.
         21   -1    0    0  501  502  0.00000000000E+00 -0.00000000000E+00 -0.40411868486E+02  0.40411868486E+02  0.00000000000E+00 0. -1.
         23    2    1    2    0    0  0.11254143465E+02 -0.71527000713E+01  0.31506673712E+03  0.32792481349E+03  0.89943413347E+02 0.  0.
         24    2    1    2    0    0 -0.43855423344E+02 -0.15337308041E+02  0.91206101558E+02  0.12697351977E+03  0.75134483336E+02 0.  0.
        -13    1    4    4    0    0 -0.10117338674E+02  0.20379740478E+02  0.69738127931E+02  0.73355987152E+02  0.00000000000E+00 0.  1.
         14    1    4    4    0    0 -0.33738084670E+02 -0.35717048519E+02  0.21467973627E+02  0.53617532616E+02  0.00000000000E+00 0. -1.
        -13    1    3    3    0    0  0.43909158726E+02  0.15831118392E+02  0.11887124847E+03  0.12770674313E+03  0.00000000000E+00 0.  1.
         13    1    3    3    0    0 -0.32655015260E+02 -0.22983818463E+02  0.19619548865E+03  0.20021807036E+03  0.00000000000E+00 0. -1.
         -2    1    1    2    0  502  0.32601279879E+02  0.22490008113E+02  0.82600331969E+01  0.40458275582E+02  0.00000000000E+00 0.  1.
<scales pt_clust_5="13000.00000" pt_clust_6="13000.00000" pt_clust_7="13000.00000" pt_clust_8="13000.00000" pt_clust_9="39.60611"></scales>
<clustering>
<clus scale="   39.606">  2  9  1 -1</clus>
<clus scale="   75.134">  5  6 -1 -1</clus>
<clus scale="   77.728">  2  5  1 -1</clus>
<clus scale="   89.943">  7  8 -1 -1</clus>
<clus scale="   39.606">  2  5  1 -1</clus>
</clustering>
</event>
<event>
 9    2  0.9254368E-005  0.1287329E+03  0.7546771E-02  0.1250947E+00
          2   -1    0    0  502    0 -0.00000000000E+00  0.00000000000E+00  0.12885293671E+03  0.12885293671E+03  0.00000000000E+00 0. -1.
         21   -1    0    0  501  502  0.00000000000E+00 -0.00000000000E+00 -0.38536621304E+03  0.38536621304E+03  0.00000000000E+00 0. -1.
         24    2    1    2    0    0  0.16424141655E+02  0.90216055417E+00  0.72088448722E+02  0.10995499600E+03  0.81380528277E+02 0.  0.
         23    2    1    2    0    0 -0.77131208170E+02  0.57042775061E+02 -0.27364948294E+03  0.30395108181E+03  0.91099501448E+02 0.  0.
        -13    1    3    3    0    0 -0.84609287626E+01 -0.35843616259E+02  0.21442666506E+02  0.42616195149E+02  0.00000000000E+00 0.  1.
         14    1    3    3    0    0  0.24885070418E+02  0.36745776813E+02  0.50645782216E+02  0.67338800848E+02  0.00000000000E+00 0. -1.
        -13    1    4    4    0    0 -0.41918490664E+02  0.39030354550E+02 -0.25286432490E+03  0.25926992738E+03  0.00000000000E+00 0. -1.
         13    1    4    4    0    0 -0.35212717506E+02  0.18012420512E+02 -0.20785158031E+02  0.44681154430E+02  0.00000000000E+00 0.  1.
          1    1    1    2  501    0  0.60707066515E+02 -0.57944935615E+02 -0.54952242113E+02  0.10031307194E+03  0.00000000000E+00 0. -1.
<scales pt_clust_5="13000.00000" pt_clust_6="13000.00000" pt_clust_7="13000.00000" pt_clust_8="13000.00000" pt_clust_9="90.95629"></scales>
<clustering>
<clus scale="   81.381">  5  6 -1 -1</clus>
<clus scale="   83.026">  1  5  2 -1</clus>
<clus scale="   90.956">  2  9  1 -1</clus>
<clus scale="   91.100">  7  8 -1 -1</clus>
<clus scale="   90.956">  2  5  1 -1</clus>
</clustering>
</event>
<event>
 9    2  0.9254368E-005  0.1675056E+03  0.7546771E-02  0.1182416E+00
          2   -1    0    0  502    0 -0.00000000000E+00  0.00000000000E+00  0.29672442048E+03  0.29672442048E+03  0.00000000000E+00 0. -1.
         21   -1    0    0  501  502  0.00000000000E+00 -0.00000000000E+00 -0.23333077092E+03  0.23333077092E+03  0.00000000000E+00 0.  1.
         23    2    1    2    0    0  0.30729412327E+02 -0.14026818899E+03  0.22611872057E+03  0.28322416101E+03  0.92015150721E+02 0.  0.
         24    2    1    2    0    0 -0.44630238444E+01  0.11805777988E+03 -0.15777259603E+03  0.21207829748E+03  0.78278057165E+02 0.  0.
        -11    1    4    4    0    0 -0.29459569039E+02  0.10157946345E+03 -0.14512790719E+03  0.17957829226E+03  0.00000000000E+00 0.  1.
         12    1    4    4    0    0  0.24996545194E+02  0.16478316421E+02 -0.12644688834E+02  0.32500005222E+02  0.00000000000E+00 0. -1.
        -11    1    3    3    0    0  0.57022348231E+02 -0.68873627862E+02  0.15573521614E+03  0.17957890288E+03  0.00000000000E+00 0. -1.
         11    1    3    3    0    0 -0.26292935904E+02 -0.71394561127E+02  0.70383504430E+02  0.10364525813E+03  0.00000000000E+00 0.  1.
          1    1    1    2  501    0 -0.26266388483E+02  0.22210409113E+02 -0.49524749862E+01  0.34752732919E+02  0.00000000000E+00 0. -1.
<scales pt_clust_5="13000.00000" pt_clust_6="13000.00000" pt_clust_7="13000.00000" pt_clust_8="13000.00000" pt_clust_9="34.39804"></scales>
<clustering>
<clus scale="   34.398">  2  9  1 -1</clus>
<clus scale="   78.278">  5  6 -1 -1</clus>
<clus scale="   92.015">  7  8 -1 -1</clus>
<clus scale="  160.371">  2  5  1 -1</clus>
<clus scale="   34.398">  2  5  1 -1</clus>
</clustering>
</event>
<event>
 9    2  0.9254368E-005  0.1399434E+03  0.7546771E-02  0.1213839E+00
         21   -1    0    0  501  502  0.00000000000E+00  0.00000000000E+00  0.56269599023E+02  0.56269599023E+02  0.00000000000E+00 0.  1.
          2   -1    0    0  502    0 -0.00000000000E+00 -0.00000000000E+00 -0.55811242938E+03  0.55811242938E+03  0.00000000000E+00 0. -1.
         24    2    1    2    0    0 -0.10518355268E+03  0.12440133578E+02 -0.33572256723E+03  0.36140107570E+03  0.81748141808E+02 0.  0.
         23    2    1    2    0    0  0.13089043458E+03 -0.10739167445E+02 -0.10859372007E+03  0.18994889563E+03  0.83906801457E+02 0.  0.
        -11    1    3    3    0    0 -0.96314215964E+02 -0.13358843036E+02 -0.30590184161E+03  0.32098414849E+03  0.00000000000E+00 0.  1.
         12    1    3    3    0    0 -0.88693367158E+01  0.25798976614E+02 -0.29820725628E+02  0.40416927210E+02  0.00000000000E+00 0. -1.
        -13    1    4    4    0    0  0.72646797040E+02  0.18685372989E+01 -0.81084007030E+01  0.73121780024E+02  0.00000000000E+00 0.  1.
         13    1    4    4    0    0  0.58243637542E+02 -0.12607704744E+02 -0.10048531937E+03  0.11682711561E+03  0.00000000000E+00 0. -1.
          1    1    1    2  501    0 -0.25706881903E+02 -0.17009661333E+01 -0.57526543053E+02  0.63032057071E+02  0.00000000000E+00 0. -1.
<scales pt_clust_5="13000.00000" pt_clust_6="13000.00000" pt_clust_7="13000.00000" pt_clust_8="13000.00000" pt_clust_9="25.76311"></scales>
<clustering>
<clus scale="   25.763">  1  9  2 -1</clus>
<clus scale="   81.748">  5  6 -1 -1</clus>
<clus scale="   83.907">  7  8 -1 -1</clus>
<clus scale="  138.660">  2  5  1 -1</clus>
<clus scale="   25.763">  1  5  2 -1</clus>
</clustering>
</event>
<event>
 9    2  0.9254368E-005  0.1078591E+03  0.7546771E-02  0.1268860E+00
         21   -1    0    0  501  502  0.00000000000E+00  0.00000000000E+00  0.51551117885E+03  0.51551117885E+03  0.00000000000E+00 0.  1.
         -1   -1    0    0    0  501 -0.00000000000E+00 -0.00000000000E+00 -0.78259382647E+02  0.78259382647E+02  0.00000000000E+00 0.  1.
         24    2    1    2    0    0 -0.46221387719E+02 -0.33171847066E+02 -0.27542907702E+02  0.10328826851E+03  0.81688839671E+02 0.  0.
         23    2    1    2    0    0  0.19306381689E+02  0.58610435082E+02  0.40736291607E+03  0.42214526375E+03  0.91946499932E+02 0.  0.
        -11    1    3    3    0    0 -0.34014901161E+02 -0.56710745716E+02 -0.15358976824E+01  0.66147419922E+02  0.00000000000E+00 0.  1.
         12    1    3    3    0    0 -0.12206486558E+02  0.23538898649E+02 -0.26007010020E+02  0.37140848588E+02  0.00000000000E+00 0. -1.
        -13    1    4    4    0    0  0.23881805388E+02 -0.11398348344E+02  0.38804190375E+02  0.46968374085E+02  0.00000000000E+00 0. -1.
         13    1    4    4    0    0 -0.45754236990E+01  0.70008783425E+02  0.36855872569E+03  0.37517688967E+03  0.00000000000E+00 0.  1.
         -2    1    1    2    0  502  0.26915006030E+02 -0.25438588015E+02  0.57431787838E+02  0.68337029231E+02  0.00000000000E+00 0.  1.
<scales pt_clust_5="13000.00000" pt_clust_6="13000.00000" pt_clust_7="13000.00000" pt_clust_8="13000.00000" pt_clust_9="37.03430"></scales>
<clustering>
<clus scale="   37.034">  1  9  2 -1</clus>
<clus scale="   81.689">  5  6 -1 -1</clus>
<clus scale="   91.946">  7  8 -1 -1</clus>
<clus scale="   99.260">  2  5  1 -1</clus>
<clus scale="   37.034">  1  5  2 -1</clus>
</clustering>
</event>
<event>
 9    2  0.9254368E-005  0.9833746E+02  0.7546771E-02  0.1287845E+00
         21   -1    0    0  501  502  0.00000000000E+00  0.00000000000E+00  0.22314581178E+03  0.22314581178E+03  0.00000000000E+00 0. -1.
          2   -1    0    0  502    0 -0.00000000000E+00 -0.00000000000E+00 -0.36833097031E+03  0.36833097031E+03  0.00000000000E+00 0. -1.
         23    2    1    2    0    0 -0.19268015100E+02 -0.34176532774E+02 -0.33079350463E+03  0.34493468998E+03  0.89533825167E+02 0.  0.
         24    2    1    2    0    0  0.45497460308E+02  0.41689679760E+02  0.61276197637E+02  0.11925142349E+03  0.81597066823E+02 0.  0.
        -11    1    4    4    0    0  0.94033116271E+01  0.45249568139E+02  0.68143624200E+02  0.82337714357E+02  0.00000000000E+00 0.  1.
         12    1    4    4    0    0  0.36094148681E+02 -0.35598883784E+01 -0.68674265634E+01  0.36913709132E+02  0.00000000000E+00 0. -1.
        -13    1    3    3    0    0 -0.45663247140E+02 -0.49281954325E+02 -0.23653394249E+03  0.24589052262E+03  0.00000000000E+00 0. -1.
         13    1    3    3    0    0  0.26395232041E+02  0.15105421552E+02 -0.94259562139E+02  0.99044167367E+02  0.00000000000E+00 0.  1.
          1    1    1    2  501    0 -0.26229445209E+02 -0.75131469866E+01  0.12433214847E+03  0.12729066861E+03  0.00000000000E+00 0. -1.
<scales pt_clust_5="13000.00000" pt_clust_6="13000.00000" pt_clust_7="13000.00000" pt_clust_8="13000.00000" pt_clust_9="27.28427"></scales>
<clustering>
<clus scale="   27.284">  1  9  2 -1</clus>
<clus scale="   81.597">  5  6 -1 -1</clus>
<clus scale="   89.534">  7  8 -1 -1</clus>
<clus scale="   91.170">  1  5  2 -1</clus>
<clus scale="   27.284">  1  5  2 -1</clus>
</clustering>
</event>
<event>
 9    2  0.9254368E-005  0.4063040E+03  0.7546771E-02  0.1064528E+00
         21   -1    0    0  501  502  0.00000000000E+00  0.00000000000E+00  0.16264133297E+03  0.16264133297E+03  0.00000000000E+00 0. -1.
          2   -1    0    0  502    0 -0.00000000000E+00 -0.00000000000E+00 -0.16769903249E+04  0.16769903249E+04  0.00000000000E+00 0. -1.
         23    2    1    2    0    0 -0.12859119699E+03 -0.14199637632E+03 -0.33944914630E+03  0.40028752349E+03  0.91135677425E+02 0.  0.
         24    2    1    2    0    0  0.32147534196E+03  0.36398087902E+03 -0.49168513087E+03  0.69552711436E+03  0.78582587768E+02 0.  0.
        -13    1    4    4    0    0  0.98204662490E+02  0.16865460396E+03 -0.18748755295E+03  0.27062910724E+03  0.00000000000E+00 0.  1.
         14    1    4    4    0    0  0.22327067948E+03  0.19532627506E+03 -0.30419757792E+03  0.42489800712E+03  0.00000000000E+00 0. -1.
        -13    1    3    3    0    0 -0.12344406343E+03 -0.80343239061E+02 -0.26774032373E+03  0.30557871950E+03  0.00000000000E+00 0.  1.
         13    1    3    3    0    0 -0.51471335644E+01 -0.61653137260E+02 -0.71708822571E+02  0.94708803986E+02  0.00000000000E+00 0. -1.
          1    1    1    2  501    0 -0.19288414497E+03 -0.22198450270E+03 -0.68321471474E+03  0.74381702001E+03  0.00000000000E+00 0. -1.
<scales pt_clust_5="13000.00000" pt_clust_6="13000.00000" pt_clust_7="13000.00000" pt_clust_8="13000.00000" pt_clust_9="398.63250"></scales>
<clustering>
<clus scale="   78.583">  5  6 -1 -1</clus>
<clus scale="   91.136">  7  8 -1 -1</clus>
<clus scale="  212.142">  2  7  1 -1</clus>
<clus scale="  398.633">  1  9  2 -1</clus>
<clus scale="  398.633">  1  5  2 -1</clus>
</clustering>
</event>
<event>
 9    2  0.9254368E-005  0.2313068E+03  0.7546771E-02  0.1126218E+00
          2   -1    0    0  502    0 -0.00000000000E+00  0.00000000000E+00  0.56022605044E+03  0.56022605044E+03  0.00000000000E+00 0. -1.
         21   -1    0    0  501  502  0.00000000000E+00 -0.00000000000E+00 -0.21349261529E+03  0.21349261529E+03  0.00000000000E+00 0. -1.
         24    2    1    2    0    0 -0.36215821217E+02 -0.20674023824E+03  0.34038873000E+03  0.40765483750E+03  0.79150914115E+02 0.  0.
         23    2    1    2    0    0  0.94772893145E+02  0.22262298676E+03 -0.71979468585E+02  0.26698876294E+03  0.86942855533E+02 0.  0.
        -13    1    3    3    0    0 -0.54497180336E+02 -0.16728239388E+03  0.23431881843E+03  0.29301646820E+03  0.00000000000E+00 0.  1.
         14    1    3    3    0    0  0.18281359119E+02 -0.39457844358E+02  0.10606991158E+03  0.11463836929E+03  0.00000000000E+00 0. -1.
        -11    1    4    4    0    0  0.58793889109E+01  0.33076328581E+02  0.19137993574E+02  0.38663594302E+02  0.00000000000E+00 0.  1.
         11    1    4    4    0    0  0.88893504234E+02  0.18954665818E+03 -0.91117462159E+02  0.22832516864E+03  0.00000000000E+00 0. -1.
          1    1    1    2  501    0 -0.58557071928E+02 -0.15882748518E+02  0.78324173730E+02  0.99075065298E+02  0.00000000000E+00 0. -1.
<scales pt_clust_5="13000.00000" pt_clust_6="13000.00000" pt_clust_7="13000.00000" pt_clust_8="13000.00000" pt_clust_9="60.67286"></scales>
<clustering>
<clus scale="   60.673">  2  9  1 -1</clus>
<clus scale="   79.151">  5  6 -1 -1</clus>
<clus scale="   86.943">  7  8 -1 -1</clus>
<clus scale="  228.492">  1  5  2 -1</clus>
<clus scale="   60.673">  2  5  1 -1</clus>
</clustering>
</event>
<event>
 9    2  0.9254368E-005  0.1920700E+03  0.7546771E-02  0.1157685E+00
         -3   -1    0    0    0  501 -0.00000000000E+00  0.00000000000E+00  0.95283263349E+03  0.95283263349E+03  0.00000000000E+00 0.  1.
         21   -1    0    0  501  502  0.00000000000E+00 -0.00000000000E+00 -0.77916464747E+02  0.77916464747E+02  0.00000000000E+00 0.  1.
         23    2    1    2    0    0 -0.16470752294E+03  0.98078043025E+02  0.71776558283E+03  0.74845284929E+03  0.90809498858E+02 0.  0.
         24    2    1    2    0    0  0.10820765861E+03 -0.24103614011E+02  0.65629688568E+02  0.15175688527E+03  0.80206075925E+02 0.  0.
        -11    1    4    4    0    0  0.10314965339E+03  0.81253388901E+01  0.42975545151E+02  0.11203914319E+03  0.00000000000E+00 0.  1.
         12    1    4    4    0    0  0.50580052222E+01 -0.32228952901E+02  0.22654143417E+02  0.39717742079E+02  0.00000000000E+00 0. -1.
        -13    1    3    3    0    0 -0.50403747439E+02  0.48744474265E+02  0.41836250656E+03  0.42419777041E+03  0.00000000000E+00 0.  1.
         13    1    3    3    0    0 -0.11430377550E+03  0.49333568760E+02  0.29940307627E+03  0.32425507888E+03  0.00000000000E+00 0. -1.
         -4    1    1    2    0  502  0.56499864330E+02 -0.73974429015E+02  0.91520897344E+02  0.13053936367E+03  0.00000000000E+00 0.  1.
<scales pt_clust_5="13000.00000" pt_clust_6="13000.00000" pt_clust_7="13000.00000" pt_clust_8="13000.00000" pt_clust_9="93.08303"></scales>
<clustering>
<clus scale="   80.206">  5  6 -1 -1</clus>
<clus scale="   90.809">  7  8 -1 -1</clus>
<clus scale="   93.083">  2  9  1 -1</clus>
<clus scale="  187.290">  2  5  1 -1</clus>
<clus scale="   93.083">  2  5  1 -1</clus>
</clustering>
</event>
<event>
 9    2  0.9254368E-005  0.9992775E+02  0.7546771E-02  0.1284881E+00
         -1   -1    0    0    0  501 -0.00000000000E+00  0.00000000000E+00  0.27558507353E+03  0.27558507353E+03  0.00000000000E+00 0.  1.
         21   -1    0    0  501  502  0.00000000000E+00 -0.00000000000E+00 -0.64562808169E+02  0.64562808169E+02  0.00000000000E+00 0. -1.
         23    2    1    2    0    0  0.20379362190E+02  0.29487102868E+02  0.16541269589E+03  0.19173178445E+03  0.90082792862E+02 0.  0.
         24    2    1    2    0    0 -0.22571662499E+02 -0.55664773660E+02  0.61072550159E+02  0.11793363671E+03  0.81058246398E+02 0.  0.
        -13    1    4    4    0    0  0.25852916326E+01 -0.66160176448E+02  0.61932762340E+02  0.90661567003E+02  0.00000000000E+00 0.  1.
         14    1    4    4    0    0 -0.25156954132E+02  0.10495402787E+02 -0.86021218133E+00  0.27272069702E+02  0.00000000000E+00 0. -1.
        -11    1    3    3    0    0 -0.12088617654E+01  0.58337650994E+02  0.79907743777E+02  0.98944380263E+02  0.00000000000E+00 0.  1.
         11    1    3    3    0    0  0.21588223956E+02 -0.28850548126E+02  0.85504952113E+02  0.92787404191E+02  0.00000000000E+00 0. -1.
         -2    1    1    2    0  502  0.21923003090E+01  0.26177670793E+02 -0.15462980687E+02  0.30482460539E+02  0.00000000000E+00 0.  1.
<scales pt_clust_5="13000.00000" pt_clust_6="13000.00000" pt_clust_7="13000.00000" pt_clust_8="13000.00000" pt_clust_9="26.26931"></scales>
<clustering>
<clus scale="   26.269">  2  9  1 -1</clus>
<clus scale="   81.058">  5  6 -1 -1</clus>
<clus scale="   90.083">  7  8 -1 -1</clus>
<clus scale="   91.875">  2  5  1 -1</clus>
<clus scale="   26.269">  2  5  1 -1</clus>
</clustering>
</event>
<event>
 9    2  0.9254368E-005  0.1172328E+03  0.7546771E-02  0.1250393E+00
         -3   -1    0    0    0  501 -0.00000000000E+00  0.00000000000E+00  0.24694494573E+03  0.24694494573E+03  0.00000000000E+00 0.  1.
         21   -1    0    0  501  502  0.00000000000E+00 -0.00000000000E+00 -0.10807876671E+03  0.10807876671E+03  0.00000000000E+00 0.  1.
         23    2    1    2    0    0 -0.65540405325E+02 -0.27639378382E+02  0.16698432539E+03  0.20245246612E+03  0.89686989827E+02 0.  0.
         24    2    1    2    0    0  0.88568336700E+02  0.26607305998E+02 -0.10908343708E+02  0.12380445810E+03  0.81585862046E+02 0.  0.
        -11    1    4    4    0    0  0.85878757473E+02 -0.10129773192E+02 -0.68128181443E+01  0.86742076186E+02  0.00000000000E+00 0.  1.
         12    1    4    4    0    0  0.26895792273E+01  0.36737079190E+02 -0.40955255633E+01  0.37062381918E+02  0.00000000000E+00 0. -1.
        -13    1    3    3    0    0 -0.76268461180E+02 -0.46868353897E+02  0.14984878498E+03  0.17455136530E+03  0.00000000000E+00 0.  1.
         13    1    3    3    0    0  0.10728055855E+02  0.19228975515E+02  0.17135540408E+02  0.27901100818E+02  0.00000000000E+00 0. -1.
         -4    1    1    2    0  502 -0.23027931375E+02  0.10320723839E+01 -0.17209802659E+02  0.28766788218E+02  0.00000000000E+00 0.  1.
<scales pt_clust_5="13000.00000" pt_clust_6="13000.00000" pt_clust_7="13000.00000" pt_clust_8="13000.00000" pt_clust_9="23.05105"></scales>
<clustering>
<clus scale="   23.051">  2  9  1 -1</clus>
<clus scale="   81.586">  5  6 -1 -1</clus>
<clus scale="   89.687">  7  8 -1 -1</clus>
<clus scale="  111.158">  2  5  1 -1</clus>
<clus scale="   23.051">  2  5  1 -1</clus>
</clustering>
</event>
<event>
 9    2  0.9254368E-005  0.2784088E+03  0.7546771E-02  0.1120360E+00
         21   -1    0    0  501  502  0.00000000000E+00  0.00000000000E+00  0.97692024491E+02  0.97692024491E+02  0.00000000000E+00 0. -1.
          2   -1    0    0  502    0 -0.00000000000E+00 -0.00000000000E+00 -0.13409978716E+04  0.13409978716E+04  0.00000000000E+00 0. -1.
         24    2    1    2    0    0  0.33843345814E+02  0.12558429422E+03 -0.20477143184E+03  0.25476986504E+03  0.77843161708E+02 0.  0.
         23    2    1    2    0    0  0.22760472618E+03 -0.15575819464E+03 -0.40981445356E+03  0.50233779180E+03  0.91273458029E+02 0.  0.
        -11    1    3    3    0    0  0.35160273801E+02  0.59744863728E+02 -0.16209863673E+03  0.17629991952E+03  0.00000000000E+00 0.  1.
         12    1    3    3    0    0 -0.13169279870E+01  0.65839430492E+02 -0.42672795118E+02  0.78469945521E+02  0.00000000000E+00 0. -1.
        -11    1    4    4    0    0  0.12493344274E+03 -0.33407162181E+02 -0.15852955299E+03  0.20458744530E+03  0.00000000000E+00 0.  1.
         11    1    4    4    0    0  0.10267128344E+03 -0.12235103246E+03 -0.25128490057E+03  0.29775034650E+03  0.00000000000E+00 0. -1.
          1    1    1    2  501    0 -0.26144807200E+03  0.30173900423E+02 -0.62871996175E+03  0.68158223929E+03  0.00000000000E+00 0. -1.
<scales pt_clust_5="13000.00000" pt_clust_6="13000.00000" pt_clust_7="13000.00000" pt_clust_8="13000.00000" pt_clust_9="263.02217"></scales>
<clustering>
<clus scale="   77.843">  5  6 -1 -1</clus>
<clus scale="   91.273">  7  8 -1 -1</clus>
<clus scale="  151.580">  2  5  1 -1</clus>
<clus scale="  263.022">  1  9  2 -1</clus>
<clus scale="  263.022">  1  5  2 -1</clus>
</clustering>
</event>
<event>
 9    2  0.9254368E-005  0.1611112E+03  0.7546771E-02  0.1188898E+00
         21   -1    0    0  501  502  0.00000000000E+00  0.00000000000E+00  0.24457872778E+03  0.24457872778E+03  0.00000000000E+00 0.  1.
         -1   -1    0    0    0  501 -0.00000000000E+00 -0.00000000000E+00 -0.20001338057E+03  0.20001338057E+03  0.00000000000E+00 0.  1.
         23    2    1    2    0    0 -0.52479628173E+02  0.12616034507E+03 -0.10854423464E+03  0.19585886921E+03  0.88928632807E+02 0.  0.
         24    2    1    2    0    0  0.10227291572E+02 -0.13058523919E+03  0.12629829914E+03  0.19849695228E+03  0.79326398582E+02 0.  0.
        -11    1    4    4    0    0  0.68561379438E+01 -0.55312011031E+02  0.10710994923E+03  0.12074339078E+03  0.00000000000E+00 0.  1.
         12    1    4    4    0    0  0.33711536280E+01 -0.75273228162E+02  0.19188349908E+02  0.77753561507E+02  0.00000000000E+00 0. -1.
        -11    1    3    3    0    0  0.17987631897E+02  0.19854619125E+02  0.22905244416E+01  0.26888795140E+02  0.00000000000E+00 0. -1.
         11    1    3    3    0    0 -0.70467260070E+02  0.10630572594E+03 -0.11083475908E+03  0.16897007407E+03  0.00000000000E+00 0.  1.
         -2    1    1    2    0  502  0.42252336602E+02  0.44248941242E+01  0.26811282709E+02  0.50236286853E+02  0.00000000000E+00 0.  1.
<scales pt_clust_5="13000.00000" pt_clust_6="13000.00000" pt_clust_7="13000.00000" pt_clust_8="13000.00000" pt_clust_9="42.48340"></scales>
<clustering>
<clus scale="   42.483">  1  9  2 -1</clus>
<clus scale="   79.326">  5  6 -1 -1</clus>
<clus scale="   88.929">  7  8 -1 -1</clus>
<clus scale="  156.017">  1  5  2 -1</clus>
<clus scale="   42.483">  1  5  2 -1</clus>
</clustering>
</event>
<event>
 9    2  0.9254368E-005  0.1675178E+03  0.7546771E-02  0.1182112E+00
         21   -1    0    0  501  502  0.00000000000E+00  0.00000000000E+00  0.86625227132E+02  0.86625227132E+02  0.00000000000E+00 0. -1.
         -1   -1    0    0    0  501 -0.00000000000E+00 -0.00000000000E+00 -0.44909136583E+03  0.44909136583E+03  0.00000000000E+00 0.  1.
         24    2    1    2    0    0  0.93297781905E+02  0.11727151033E+03 -0.21626002984E+03  0.27519372664E+03  0.80660420490E+02 0.  0.
         23    2    1    2    0    0 -0.11335086542E+03 -0.65613476758E+02 -0.10702931878E+03  0.19265903596E+03  0.92242517498E+02 0.  0.
        -13    1    3    3    0    0  0.36848546470E+02  0.10322864898E+03 -0.16233470321E+03  0.19587374815E+03  0.00000000000E+00 0.  1.
         14    1    3    3    0    0  0.56449235435E+02  0.14042861349E+02 -0.53925326624E+02  0.79319978489E+02  0.00000000000E+00 0. -1.
        -13    1    4    4    0    0 -0.38083097090E+02  0.15884932796E+01 -0.79348228883E+02  0.88028330791E+02  0.00000000000E+00 0. -1.
         13    1    4    4    0    0 -0.75267768325E+02 -0.67201970038E+02 -0.27681089896E+02  0.10463070516E+03  0.00000000000E+00 0.  1.
         -2    1    1    2    0  502  0.20053083510E+02 -0.51658033571E+02 -0.39176790077E+02  0.67863830363E+02  0.00000000000E+00 0.  1.
<scales pt_clust_5="13000.00000" pt_clust_6="13000.00000" pt_clust_7="13000.00000" pt_clust_8="13000.00000" pt_clust_9="55.41370"></scales>
<clustering>
<clus scale="   55.414">  1  9  2 -1</clus>
<clus scale="   80.660">  5  6 -1 -1</clus>
<clus scale="   92.243">  7  8 -1 -1</clus>
<clus scale="  161.430">  2  5  1 -1</clus>
<clus scale="   55.414">  1  5  2 -1</clus>
</clustering>
</event>
<event>
 9    2  0.9254368E-005  0.1274869E+03  0.7546771E-02  0.1234338E+00
          4   -1    0    0  502    0 -0.00000000000E+00  0.00000000000E+00  0.71527324523E+03  0.71527324523E+03  0.00000000000E+00 0. -1.
         21   -1    0    0  501  502  0.00000000000E+00 -0.00000000000E+00 -0.27051141680E+02  0.27051141680E+02  0.00000000000E+00 0. -1.
         24    2    1    2    0    0  0.86398755761E+02 -0.22849561284E+02  0.37563952478E+03  0.39451077000E+03  0.80912592451E+02 0.  0.
         23    2    1    2    0    0 -0.87328831811E+02  0.23034387302E+01  0.23020279791E+03  0.26290521634E+03  0.92163951293E+02 0.  0.
        -13    1    3    3    0    0  0.13982246512E+02  0.28512997588E+02  0.96082668825E+02  0.10119473058E+03  0.00000000000E+00 0.  1.
         14    1    3    3    0    0  0.72416509249E+02 -0.51362558872E+02  0.27955685596E+03  0.29331603942E+03  0.00000000000E+00 0. -1.
        -11    1    4    4    0    0  0.69417907015E+01  0.28280238296E+02  0.56915949833E+02  0.63932665216E+02  0.00000000000E+00 0.  1.
         11    1    4    4    0    0 -0.94270622512E+02 -0.25976799566E+02  0.17328684807E+03  0.19897255112E+03  0.00000000000E+00 0. -1.
          3    1    1    2  501    0  0.93007605012E+00  0.20546122554E+02  0.82379780866E+02  0.84908400579E+02  0.00000000000E+00 0. -1.
<scales pt_clust_5="13000.00000" pt_clust_6="13000.00000" pt_clust_7="13000.00000" pt_clust_8="13000.00000" pt_clust_9="20.56717"></scales>
<clustering>
<clus scale="   20.567">  2  9  1 -1</clus>
<clus scale="   80.913">  5  6 -1 -1</clus>
<clus scale="   92.164">  7  8 -1 -1</clus>
<clus scale="  119.606">  1  5  2 -1</clus>
<clus scale="   20.567">  2  5  1 -1</clus>
</clustering>
</event>
<event>
 9    2  0.9254368E-005  0.2034689E+03  0.7546771E-02  0.1147301E+00
          2   -1    0    0  502    0 -0.00000000000E+00  0.00000000000E+00  0.43624315011E+03  0.43624315011E+03  0.00000000000E+00 0. -1.
         21   -1    0    0  501  502  0.00000000000E+00 -0.00000000000E+00 -0.16237998487E+03  0.16237998487E+03  0.00000000000E+00 0. -1.
         24    2    1    2    0    0 -0.17678440855E+03 -0.62491363075E+02  0.29351987440E+03  0.35734675274E+03  0.79905490833E+02 0.  0.
         23    2    1    2    0    0  0.15179386707E+03  0.92060247450E+02 -0.34237619145E+02  0.19990671916E+03  0.85287833603E+02 0.  0.
        -13    1    3    3    0    0 -0.56938671519E+02 -0.61656368021E+02  0.11715735146E+03  0.14411580424E+03  0.00000000000E+00 0.  1.
         14    1    3    3    0    0 -0.11984573703E+03 -0.83499505315E+00  0.17636252294E+03  0.21323094850E+03  0.00000000000E+00 0. -1.
        -13    1    4    4    0    0  0.11746552371E+03  0.74844455258E+02 -0.62060394344E+02  0.15248388206E+03  0.00000000000E+00 0. -1.
         13    1    4    4    0    0  0.34328343362E+02  0.17215792191E+02  0.27822775198E+02  0.47422837098E+02  0.00000000000E+00 0.  1.
          1    1    1    2  501    0  0.24990541482E+02 -0.29568884375E+02  0.14580909988E+02  0.41369663074E+02  0.00000000000E+00 0. -1.
<scales pt_clust_5="13000.00000" pt_clust_6="13000.00000" pt_clust_7="13000.00000" pt_clust_8="13000.00000" pt_clust_9="38.71493"></scales>
<clustering>
<clus scale="   38.715">  2  9  1 -1</clus>
<clus scale="   79.905">  5  6 -1 -1</clus>
<clus scale="   85.288">  7  8 -1 -1</clus>
<clus scale="  201.272">  1  5  2 -1</clus>
<clus scale="   38.715">  2  5  1 -1</clus>
</clustering>
</event>
<event>
 9    2  0.9254368E-005  0.1078276E+03  0.7546771E-02  0.1268552E+00
          2   -1    0    0  502    0 -0.00000000000E+00  0.00000000000E+00  0.73361873365E+03  0.73361873365E+03  0.00000000000E+00 0. -1.
         21   -1    0    0  501  502  0.00000000000E+00 -0.00000000000E+00 -0.10184690685E+03  0.10184690685E+03  0.00000000000E+00 0.  1.
         24    2    1    2    0    0 -0.29560064497E+02 -0.50056385656E+02  0.65942541013E+03  0.66686209395E+03  0.80521684450E+02 0.  0.
         23    2    1    2    0    0  0.63041870228E+02  0.50205884800E+02  0.61079302624E+01  0.12105469310E+03  0.90122270489E+02 0.  0.
        -11    1    3    3    0    0 -0.12864090282E+02  0.15990068085E+02  0.56713978735E+02  0.60312871596E+02  0.00000000000E+00 0.  1.
         12    1    3    3    0    0 -0.16695974215E+02 -0.66046453742E+02  0.60271143139E+03  0.60654922236E+03  0.00000000000E+00 0. -1.
        -11    1    4    4    0    0  0.84924425495E+02  0.27258097489E+02  0.45174916420E+01  0.89306044897E+02  0.00000000000E+00 0.  1.
         11    1    4    4    0    0 -0.21882555267E+02  0.22947787311E+02  0.15904386205E+01  0.31748648199E+02  0.00000000000E+00 0. -1.
          1    1    1    2  501    0 -0.33481805731E+02 -0.14949914377E+00 -0.33761513595E+02  0.47548853459E+02  0.00000000000E+00 0. -1.
<scales pt_clust_5="13000.00000" pt_clust_6="13000.00000" pt_clust_7="13000.00000" pt_clust_8="13000.00000" pt_clust_9="33.48214"></scales>
<clustering>
<clus scale="   33.482">  2  9  1 -1</clus>
<clus scale="   80.522">  5  6 -1 -1</clus>
<clus scale="   90.122">  7  8 -1 -1</clus>
<clus scale="   99.943">  1  5  2 -1</clus>
<clus scale="   33.482">  2  5  1 -1</clus>
</clustering>
</event>
<event>
 9    2  0.9254368E-005  0.1236626E+03  0.7546771E-02  0.1241350E+00
         21   -1    0    0  501  502  0.00000000000E+00  0.00000000000E+00  0.13567959421E+03  0.13567959421E+03  0.00000000000E+00 0.  1.
          2   -1    0    0  502    0 -0.00000000000E+00 -0.00000000000E+00 -0.25902244726E+03  0.25902244726E+03  0.00000000000E+00 0. -1.
         24    2    1    2    0    0 -0.39249549982E+02 -0.74778765462E+02 -0.14731865628E+03  0.18802557263E+03  0.80736847462E+02 0.  0.
         23    2    1    2    0    0  0.79652586396E+02  0.28665387389E+02 -0.23745955075E+02  0.12898338547E+03  0.94374808031E+02 0.  0.
        -13    1    3    3    0    0 -0.20724604996E+01 -0.58473782895E+02 -0.34038687324E+02  0.67691289050E+02  0.00000000000E+00 0.  1.
         14    1    3    3    0    0 -0.37177089482E+02 -0.16304982567E+02 -0.11327996895E+03  0.12033428358E+03  0.00000000000E+00 0. -1.
        -13    1    4    4    0    0  0.98778259741E+01  0.22798262658E+02  0.31266629531E+02  0.39936629157E+02  0.00000000000E+00 0. -1.
         13    1    4    4    0    0  0.69774760422E+02  0.58671247309E+01 -0.55012584607E+02  0.89046756312E+02  0.00000000000E+00 0.  1.
          1    1    1    2  501    0 -0.40403036414E+02  0.46113378074E+02  0.47721758296E+02  0.77693083371E+02  0.00000000000E+00 0. -1.
<scales pt_clust_5="13000.00000" pt_clust_6="13000.00000" pt_clust_7="13000.00000" pt_clust_8="13000.00000" pt_clust_9="61.30945"></scales>
<clustering>
<clus scale="   61.309">  1  9  2 -1</clus>
<clus scale="   80.737">  5  6 -1 -1</clus>
<clus scale="   94.375">  7  8 -1 -1</clus>
<clus scale="  113.597">  2  5  1 -1</clus>
<clus scale="   61.309">  1  5  2 -1</clus>
</clustering>
</event>
<event>
 9    2  0.9254368E-005  0.3197008E+03  0.7546771E-02  0.1104783E+00
          2   -1    0    0  502    0 -0.00000000000E+00  0.00000000000E+00  0.30978263402E+04  0.30978263402E+04  0.00000000000E+00 0. -1.
         21   -1    0    0  501  502  0.00000000000E+00 -0.00000000000E+00 -0.73018536643E+02  0.73018536643E+02  0.00000000000E+00 0. -1.
         23    2    1    2    0    0 -0.29914238135E+00 -0.11810015621E+03  0.24995614031E+03  0.29078361760E+03  0.90162651937E+02 0.  0.
         24    2    1    2    0    0 -0.22050568644E+03  0.30923029697E+03  0.22128023367E+04  0.22466696359E+04  0.82365872272E+02 0.  0.
        -11    1    4    4    0    0 -0.39402376532E+02  0.36740547461E+02  0.18661347255E+03  0.19423440282E+03  0.00000000000E+00 0.  1.
         12    1    4    4    0    0 -0.18110330991E+03  0.27248974951E+03  0.20261888642E+04  0.20524352330E+04  0.00000000000E+00 0. -1.
        -13    1    3    3    0    0 -0.23015586490E+02 -0.11828760793E+03  0.17512661670E+03  0.21258176612E+03  0.00000000000E+00 0.  1.
         13    1    3    3    0    0  0.22716444109E+02  0.18745171849E+00  0.74829523612E+02  0.78201851481E+02  0.00000000000E+00 0. -1.
          1    1    1    2  501    0  0.22080482882E+03 -0.19113014076E+03  0.56204932652E+03  0.63339162339E+03  0.00000000000E+00 0. -1.
<scales pt_clust_5="13000.00000" pt_clust_6="13000.00000" pt_clust_7="13000.00000" pt_clust_8="13000.00000" pt_clust_9="308.90854"></scales>
<clustering>
<clus scale="   82.366">  5  6 -1 -1</clus>
<clus scale="   90.163">  7  8 -1 -1</clus>
<clus scale="  148.584">  1  7  2 -1</clus>
<clus scale="  308.909">  2  9  1 -1</clus>
<clus scale="  308.909">  2  5  1 -1</clus>
</clustering>
</event>
<event>
 9    2  0.9254368E-005  0.9544056E+02  0.7546771E-02  0.1295453E+00
          2   -1    0    0  502    0 -0.00000000000E+00  0.00000000000E+00  0.94315311810E+03  0.94315311810E+03  0.00000000000E+00 0. -1.
         21   -1    0    0  501  502  0.00000000000E+00 -0.00000000000E+00 -0.50382915259E+02  0.50382915259E+02  0.00000000000E+00 0. -1.
         24    2    1    2    0    0  0.73097351491E+01  0.28915551883E+02  0.81918921182E+03  0.82370759635E+03  0.80831294386E+02 0.  0.
         23    2    1    2    0    0  0.19242273209E+02 -0.46495783355E+02  0.87141344076E+02  0.13521692359E+03  0.90320981109E+02 0.  0.
        -13    1    3    3    0    0 -0.33059804607E+02  0.15513025786E+02  0.21998682846E+03  0.22299733035E+03  0.00000000000E+00 0.  1.
         14    1    3    3    0    0  0.40369539756E+02  0.13402526096E+02  0.59920238337E+03  0.60071026600E+03  0.00000000000E+00 0. -1.
        -13    1    4    4    0    0  0.32295028339E+02 -0.23586423595E+02  0.98650084509E+02  0.10644776845E+03  0.00000000000E+00 0. -1.
         13    1    4    4    0    0 -0.13052755130E+02 -0.22909359759E+02 -0.11508740433E+02  0.28769155139E+02  0.00000000000E+00 0.  1.
          1    1    1    2  501    0 -0.26552008358E+02  0.17580231472E+02 -0.13560353056E+02  0.34611513424E+02  0.00000000000E+00 0. -1.
<scales pt_clust_5="13000.00000" pt_clust_6="13000.00000" pt_clust_7="13000.00000" pt_clust_8="13000.00000" pt_clust_9="31.84452"></scales>
<clustering>
<clus scale="   31.845">  2  9  1 -1</clus>
<clus scale="   80.831">  5  6 -1 -1</clus>
<clus scale="   86.514">  1  5  2 -1</clus>
<clus scale="   90.321">  7  8 -1 -1</clus>
<clus scale="   31.845">  2  5  1 -1</clus>
</clustering>
</event>
<event>
 9    2  0.9254368E-005  0.1111691E+03  0.7546771E-02  0.1265160E+00
          2   -1    0    0  502    0 -0.00000000000E+00  0.00000000000E+00  0.79379185389E+03  0.79379185389E+03  0.00000000000E+00 0. -1.
         21   -1    0    0  501  502  0.00000000000E+00 -0.00000000000E+00 -0.42759641296E+02  0.42759641296E+02  0.00000000000E+00 0. -1.
         24    2    1    2    0    0  0.43094409966E+02  0.34962804078E+02  0.53332215581E+03  0.54214559961E+03  0.80061248132E+02 0.  0.
         23    2    1    2    0    0  0.23913707508E+02  0.36418790365E+02  0.90752567547E+02  0.13408239791E+03  0.88565609660E+02 0.  0.
        -11    1    3    3    0    0 -0.56320285595E+01  0.19716576810E+02  0.30585287663E+02  0.36822859316E+02  0.00000000000E+00 0.  1.
         12    1    3    3    0    0  0.48726438525E+02  0.15246227268E+02  0.50273686815E+03  0.50532274029E+03  0.00000000000E+00 0. -1.
        -11    1    4    4    0    0 -0.27900072075E+02 -0.63537262039E+01  0.13315277650E+02  0.31560742661E+02  0.00000000000E+00 0.  1.
         11    1    4    4    0    0  0.51813779583E+02  0.42772516569E+02  0.77437289897E+02  0.10252165525E+03  0.00000000000E+00 0. -1.
          1    1    1    2  501    0 -0.67008117474E+02 -0.71381594443E+02  0.12695748923E+03  0.16032349767E+03  0.00000000000E+00 0. -1.
<scales pt_clust_5="13000.00000" pt_clust_6="13000.00000" pt_clust_7="13000.00000" pt_clust_8="13000.00000" pt_clust_9="67.19150"></scales>
<clustering>
<clus scale="   80.061">  5  6 -1 -1</clus>
<clus scale="   88.566">  7  8 -1 -1</clus>
<clus scale="   97.413">  1  5  2 -1</clus>
<clus scale="   67.191">  2  9  1 -1</clus>
<clus scale="   67.191">  2  5  1 -1</clus>
</clustering>
</event>
<event>
 9    2  0.9254368E-005  0.1112561E+03  0.7546771E-02  0.1262778E+00
         21   -1    0    0  501  502  0.00000000000E+00  0.00000000000E+00  0.40594100888E+03  0.40594100888E+03  0.00000000000E+00 0. -1.
          2   -1    0    0  502    0 -0.00000000000E+00 -0.00000000000E+00 -0.21115731952E+03  0.21115731952E+03  0.00000000000E+00 0. -1.
         24    2    1    2    0    0  0.51380900884E+01 -0.66648716565E+02 -0.43644810308E+02  0.11383009988E+03  0.81141671055E+02 0.  0.
         23    2    1    2    0    0  0.67701776767E+02  0.94184038419E+01  0.34402630838E+03  0.36279811745E+03  0.92715350726E+02 0.  0.
        -13    1    3    3    0    0  0.37487671515E+02 -0.85681902037E+01 -0.19348200907E+02  0.43047558320E+02  0.00000000000E+00 0.  1.
         14    1    3    3    0    0 -0.32349581426E+02 -0.58080526361E+02 -0.24296609401E+02  0.70782541557E+02  0.00000000000E+00 0. -1.
        -11    1    4    4    0    0  0.17676758365E+02 -0.37795676489E+02  0.83512292048E+02  0.93355684726E+02  0.00000000000E+00 0.  1.
         11    1    4    4    0    0  0.50025018402E+02  0.47214080330E+02  0.26051401633E+03  0.26944243273E+03  0.00000000000E+00 0. -1.
          1    1    1    2  501    0 -0.72839866856E+02  0.57230312723E+02 -0.10559780872E+03  0.14047011107E+03  0.00000000000E+00 0. -1.
<scales pt_clust_5="13000.00000" pt_clust_6="13000.00000" pt_clust_7="13000.00000" pt_clust_8="13000.00000" pt_clust_9="92.63349"></scales>
<clustering>
<clus scale="   81.142">  5  6 -1 -1</clus>
<clus scale="   92.633">  1  9  2 -1</clus>
<clus scale="   92.715">  7  8 -1 -1</clus>
<clus scale="  101.812">  2  5  1 -1</clus>
<clus scale="   92.633">  1  5  2 -1</clus>
</clustering>
</event>
<event>
 9    2  0.9254368E-005  0.2537335E+03  0.7546771E-02  0.1134317E+00
          2   -1    0    0  502    0 -0.00000000000E+00  0.00000000000E+00  0.95178649191E+03  0.95178649191E+03  0.00000000000E+00 0. -1.
         21   -1    0    0  501  502  0.00000000000E+00 -0.00000000000E+00 -0.26486374314E+03  0.26486374314E+03  0.00000000000E+00 0. -1.
         24    2    1    2    0    0  0.81287700175E+01  0.11688918939E+03  0.69374059030E+03  0.70810316519E+03  0.80030784219E+02 0.  0.
         23    2    1    2    0    0  0.17236940480E+03 -0.21151958649E+03 -0.68565093469E+02  0.29559818800E+03  0.90693822979E+02 0.  0.
        -11    1    3    3    0    0  0.38299522614E+02  0.82300924712E+02  0.36227190622E+03  0.37347185928E+03  0.00000000000E+00 0.  1.
         12    1    3    3    0    0 -0.30170752597E+02  0.34588264676E+02  0.33146868409E+03  0.33463130591E+03  0.00000000000E+00 0. -1.
        -11    1    4    4    0    0 -0.16865549472E+01 -0.50011534105E+02 -0.98332959499E+01  0.50996977561E+02  0.00000000000E+00 0.  1.
         11    1    4    4    0    0  0.17405595974E+03 -0.16150805239E+03 -0.58731797519E+02  0.24460121044E+03  0.00000000000E+00 0. -1.
          1    1    1    2  501    0 -0.18049817481E+03  0.94630397104E+02  0.61747251940E+02  0.21294888187E+03  0.00000000000E+00 0. -1.
<scales pt_clust_5="13000.00000" pt_clust_6="13000.00000" pt_clust_7="13000.00000" pt_clust_8="13000.00000" pt_clust_9="236.97130"></scales>
<clustering>
<clus scale="   80.031">  5  6 -1 -1</clus>
<clus scale="   90.694">  7  8 -1 -1</clus>
<clus scale="  141.895">  1  5  2 -1</clus>
<clus scale="  236.971">  2  9  1 -1</clus>
<clus scale="  236.971">  2  5  1 -1</clus>
</clustering>
</event>
<event>
 9    2  0.2033150E-004  0.2834231E+03  0.7546771E-02  0.1094481E+00
         -1   -1    0    0    0  501 -0.00000000000E+00  0.00000000000E+00  0.62603907223E+03  0.62603907223E+03  0.00000000000E+00 0.  1.
         21   -1    0    0  501  502  0.00000000000E+00 -0.00000000000E+00 -0.26286880701E+03  0.26286880701E+03  0.00000000000E+00 0.  1.
         23    2    1    2    0    0 -0.27922725474E+03  0.16173346112E+03  0.10906127117E+03  0.35249096593E+03  0.90719060598E+02 0.  0.
         24    2    1    2    0    0  0.13813994775E+03 -0.17507078973E+03 -0.11459940296E+02  0.23540134657E+03  0.74498571519E+02 0.  0.
        -13    1    4    4    0    0  0.11435145233E+03 -0.17567473728E+03 -0.15372852239E+01  0.20961925297E+03  0.00000000000E+00 0.  1.
         14    1    4    4    0    0  0.23788495422E+02  0.60394755740E+00 -0.99226550720E+01  0.25782093608E+02  0.00000000000E+00 0. -1.
        -11    1    3    3    0    0 -0.18725287758E+03  0.15448525295E+03  0.73817588574E+02  0.25372893001E+03  0.00000000000E+00 0.  1.
         11    1    3    3    0    0 -0.91974377158E+02  0.72482081704E+01  0.35243682595E+02  0.98762035916E+02  0.00000000000E+00 0. -1.
         -2    1    1    2    0  502  0.14108730699E+03  0.13337328602E+02  0.26556893435E+03  0.30101556674E+03  0.00000000000E+00 0.  1.
<scales pt_clust_5="13000.00000" pt_clust_6="13000.00000" pt_clust_7="13000.00000" pt_clust_8="13000.00000" pt_clust_9="141.71638"></scales>
<clustering>
<clus scale="   74.499">  5  6 -1 -1</clus>
<clus scale="   90.719">  7  8 -1 -1</clus>
<clus scale="  141.716">  2  9  1 -1</clus>
<clus scale="  278.655">  2  5  1 -1</clus>
<clus scale="  141.716">  2  5  1 -1</clus>
</clustering>
</event>
<event>
 9    2  0.9254368E-005  0.2045764E+03  0.7546771E-02  0.1180966E+00
         21   -1    0    0  501  502  0.00000000000E+00  0.00000000000E+00  0.36615353158E+03  0.36615353158E+03  0.00000000000E+00 0.  1.
         -1   -1    0    0    0  501 -0.00000000000E+00 -0.00000000000E+00 -0.34612006128E+03  0.34612006128E+03  0.00000000000E+00 0.  1.
         23    2    1    2    0    0 -0.96021142618E-01  0.19974898662E+01 -0.22111545630E+03  0.23908639613E+03  0.90918978285E+02 0.  0.
         24    2    1    2    0    0  0.72672739656E+02  0.17183325549E+03  0.60762097965E+02  0.21237324763E+03  0.81254962775E+02 0.  0.
        -13    1    4    4    0    0  0.44480597939E+02  0.15129663441E+03  0.75091765179E+02  0.17466530387E+03  0.00000000000E+00 0.  1.
         14    1    4    4    0    0  0.28192141717E+02  0.20536621081E+02 -0.14329667214E+02  0.37707943758E+02  0.00000000000E+00 0. -1.
        -11    1    3    3    0    0  0.25869577638E+02  0.29542428982E+02 -0.17535614423E+03  0.17969910260E+03  0.00000000000E+00 0.  1.
         11    1    3    3    0    0 -0.25965598780E+02 -0.27544939116E+02 -0.45759312070E+02  0.59387293523E+02  0.00000000000E+00 0. -1.
         -2    1    1    2    0  502 -0.72576718513E+02 -0.17383074536E+03  0.18038682864E+03  0.26081394911E+03  0.00000000000E+00 0.  1.
<scales pt_clust_5="13000.00000" pt_clust_6="13000.00000" pt_clust_7="13000.00000" pt_clust_8="13000.00000" pt_clust_9="187.74748"></scales>
<clustering>
<clus scale="   81.255">  5  6 -1 -1</clus>
<clus scale="   90.919">  7  8 -1 -1</clus>
<clus scale="   90.941">  2  7  1 -1</clus>
<clus scale="  187.747">  1  9  2 -1</clus>
<clus scale="  187.747">  1  5  2 -1</clus>
</clustering>
</event>
<event>
 9    2  0.9254368E-005  0.1050528E+03  0.7546771E-02  0.1275119E+00
         21   -1    0    0  501  502  0.00000000000E+00  0.00000000000E+00  0.19026375272E+02  0.19026375272E+02  0.00000000000E+00 0.  1.
          2   -1    0    0  502    0 -0.00000000000E+00 -0.00000000000E+00 -0.86647798465E+03  0.86647798465E+03  0.00000000000E+00 0. -1.
         23    2    1    2    0    0  0.34041019247E+02  0.61349568705E+02 -0.49435524166E+03  0.50768362978E+03  0.91831380360E+02 0.  0.
         24    2    1    2    0    0 -0.31858838759E+01 -0.26134606772E+02 -0.18688609047E+03  0.20514186871E+03  0.80396566839E+02 0.  0.
        -11    1    4    4    0    0  0.53351323466E-01 -0.21077930159E+02 -0.31551744819E+01  0.21312839139E+02  0.00000000000E+00 0.  1.
         12    1    4    4    0    0 -0.32392351994E+01 -0.50566766128E+01 -0.18373091599E+03  0.18382902957E+03  0.00000000000E+00 0. -1.
        -13    1    3    3    0    0 -0.24265571100E+02  0.44722226342E+02 -0.16064910904E+03  0.16851418843E+03  0.00000000000E+00 0.  1.
         13    1    3    3    0    0  0.58306590347E+02  0.16627342363E+02 -0.33370613262E+03  0.33916944134E+03  0.00000000000E+00 0. -1.
          1    1    1    2  501    0 -0.30855135371E+02 -0.35214961933E+02 -0.16621027725E+03  0.17267886143E+03  0.00000000000E+00 0. -1.
<scales pt_clust_5="13000.00000" pt_clust_6="13000.00000" pt_clust_7="13000.00000" pt_clust_8="13000.00000" pt_clust_9="46.82024"></scales>
<clustering>
<clus scale="   46.820">  1  9  2 -1</clus>
<clus scale="   80.397">  5  6 -1 -1</clus>
<clus scale="   91.831">  7  8 -1 -1</clus>
<clus scale="   95.219">  1  5  2 -1</clus>
<clus scale="   46.820">  1  5  2 -1</clus>
</clustering>
</event>
<event>
 9    2  0.9254368E-005  0.1064532E+03  0.7546771E-02  0.1275983E+00
          2   -1    0    0  502    0 -0.00000000000E+00  0.00000000000E+00  0.21430641958E+03  0.21430641958E+03  0.00000000000E+00 0. -1.
         21   -1    0    0  501  502  0.00000000000E+00 -0.00000000000E+00 -0.12952523791E+03  0.12952523791E+03  0.00000000000E+00 0. -1.
         23    2    1    2    0    0  0.31470772697E+02 -0.36854790337E+02  0.16879362906E+03  0.20000737149E+03  0.95723426257E+02 0.  0.
         24    2    1    2    0    0 -0.40978295045E+02  0.12872891720E+02 -0.50810379819E+02  0.10177786245E+03  0.77020169961E+02 0.  0.
        -11    1    4    4    0    0 -0.25375576143E+00  0.33366418499E+02 -0.44699043811E+02  0.55779806320E+02  0.00000000000E+00 0.  1.
         12    1    4    4    0    0 -0.40724539283E+02 -0.20493526779E+02 -0.61113360081E+01  0.45998056127E+02  0.00000000000E+00 0. -1.
        -13    1    3    3    0    0  0.41609996237E+02  0.20595659213E+02  0.53810251658E+02  0.71071204780E+02  0.00000000000E+00 0.  1.
         13    1    3    3    0    0 -0.10139223540E+02 -0.57450449550E+02  0.11498337740E+03  0.12893616671E+03  0.00000000000E+00 0. -1.
          1    1    1    2  501    0  0.95075223471E+01  0.23981898617E+02 -0.33202067575E+02  0.42046423554E+02  0.00000000000E+00 0. -1.
<scales pt_clust_5="13000.00000" pt_clust_6="13000.00000" pt_clust_7="13000.00000" pt_clust_8="13000.00000" pt_clust_9="25.79776"></scales>
<clustering>
<clus scale="   25.798">  2  9  1 -1</clus>
<clus scale="   77.020">  5  6 -1 -1</clus>
<clus scale="   90.008">  2  5  1 -1</clus>
<clus scale="   95.723">  7  8 -1 -1</clus>
<clus scale="   25.798">  2  5  1 -1</clus>
</clustering>
</event>
<event>
 9    2  0.9254368E-005  0.1192162E+03  0.7546771E-02  0.1248668E+00
          2   -1    0    0  502    0 -0.00000000000E+00  0.00000000000E+00  0.83148260501E+03  0.83148260501E+03  0.00000000000E+00 0. -1.
         21   -1    0    0  501  502  0.00000000000E+00 -0.00000000000E+00 -0.38250993316E+02  0.38250993316E+02  0.00000000000E+00 0.  1.
         23    2    1    2    0    0 -0.11888436263E+02 -0.78115419310E+02  0.68065504722E+03  0.69149727565E+03  0.92918433427E+02 0.  0.
         24    2    1    2    0    0  0.17787455905E+02  0.48864379998E+02  0.47287550811E+02  0.10645138666E+03  0.79947883278E+02 0.  0.
        -11    1    4    4    0    0  0.26996035608E+02  0.35818586108E+02 -0.10862027461E+02  0.46149113641E+02  0.00000000000E+00 0.  1.
         12    1    4    4    0    0 -0.92085797027E+01  0.13045793890E+02  0.58149578273E+02  0.60302273022E+02  0.00000000000E+00 0. -1.
        -13    1    3    3    0    0 -0.30320722539E+02 -0.92497116819E+02  0.58388110138E+03  0.59193935786E+03  0.00000000000E+00 0. -1.
         13    1    3    3    0    0  0.18432286276E+02  0.14381697509E+02  0.96773945840E+02  0.99557917786E+02  0.00000000000E+00 0.  1.
          1    1    1    2  501    0 -0.58990196418E+01  0.29251039312E+02  0.65289013662E+02  0.71784936014E+02  0.00000000000E+00 0. -1.
<scales pt_clust_5="13000.00000" pt_clust_6="13000.00000" pt_clust_7="13000.00000" pt_clust_8="13000.00000" pt_clust_9="29.83994"></scales>
<clustering>
<clus scale="   29.840">  2  9  1 -1</clus>
<clus scale="   79.948">  5  6 -1 -1</clus>
<clus scale="   92.918">  7  8 -1 -1</clus>
<clus scale="  109.409">  2  5  1 -1</clus>
<clus scale="   29.840">  2  5  1 -1</clus>
</clustering>
</event>
<event>
 9    2  0.9254368E-005  0.9838950E+02  0.7546771E-02  0.1291456E+00
         21   -1    0    0  501  502  0.00000000000E+00  0.00000000000E+00  0.21363308569E+03  0.21363308569E+03  0.00000000000E+00 0. -1.
          2   -1    0    0  502    0 -0.00000000000E+00 -0.00000000000E+00 -0.19261228399E+03  0.19261228399E+03  0.00000000000E+00 0. -1.
         23    2    1    2    0    0 -0.27675417674E+02 -0.10490875391E+02 -0.16265359290E+03  0.19026977489E+03  0.94182847405E+02 0.  0.
         24    2    1    2    0    0  0.23233191824E+02 -0.10643366631E+02  0.10589791998E+03  0.13525651675E+03  0.80167907624E+02 0.  0.
        -13    1    4    4    0    0  0.17536069977E+02  0.30273245612E+02  0.20904461682E+02  0.40755118308E+02  0.00000000000E+00 0.  1.
         14    1    4    4    0    0  0.56971218465E+01 -0.40916612243E+02  0.84993458294E+02  0.94501398443E+02  0.00000000000E+00 0. -1.
        -11    1    3    3    0    0 -0.21102949366E+02 -0.39380306651E+02 -0.28753476828E+02  0.53131021574E+02  0.00000000000E+00 0.  1.
         11    1    3    3    0    0 -0.65724683088E+01  0.28889431260E+02 -0.13390011607E+03  0.13713875332E+03  0.00000000000E+00 0. -1.
          1    1    1    2  501    0  0.44422258503E+01  0.21134242022E+02  0.77776474619E+02  0.80719078045E+02  0.00000000000E+00 0. -1.
<scales pt_clust_5="13000.00000" pt_clust_6="13000.00000" pt_clust_7="13000.00000" pt_clust_8="13000.00000" pt_clust_9="21.59605"></scales>
<clustering>
<clus scale="   21.596">  1  9  2 -1</clus>
<clus scale="   80.168">  5  6 -1 -1</clus>
<clus scale="   85.070">  1  5  2 -1</clus>
<clus scale="   94.183">  7  8 -1 -1</clus>
<clus scale="   21.596">  1  5  2 -1</clus>
</clustering>
</event>
<event>
 9    2  0.9254368E-005  0.1897495E+03  0.7546771E-02  0.1181122E+00
         21   -1    0    0  501  502  0.00000000000E+00  0.00000000000E+00  0.11112982216E+03  0.11112982216E+03  0.00000000000E+00 0.  1.
          2   -1    0    0  502    0 -0.00000000000E+00 -0.00000000000E+00 -0.66642277877E+03  0.66642277877E+03  0.00000000000E+00 0. -1.
         23    2    1    2    0    0 -0.57683378122E+02  0.30671181190E+02 -0.32378506573E+03  0.34312466004E+03  0.92896017516E+02 0.  0.
         24    2    1    2    0    0 -0.20413794603E+02  0.14806589980E+03 -0.13518363133E+03  0.21688604725E+03  0.80154286333E+02 0.  0.
        -11    1    4    4    0    0 -0.35563153950E+02  0.12062453494E+03 -0.68502112597E+02  0.14320459412E+03  0.00000000000E+00 0.  1.
         12    1    4    4    0    0  0.15149359347E+02  0.27441364865E+02 -0.66681518732E+02  0.73681453126E+02  0.00000000000E+00 0. -1.
        -11    1    3    3    0    0 -0.14080063096E+01 -0.27622667443E+02 -0.45153827231E+02  0.52951509440E+02  0.00000000000E+00 0. -1.
         11    1    3    3    0    0 -0.56275371812E+02  0.58293848632E+02 -0.27863123850E+03  0.29017315060E+03  0.00000000000E+00 0.  1.
          1    1    1    2  501    0  0.78097172725E+02 -0.17873708099E+03 -0.96324259544E+02  0.21754189363E+03  0.00000000000E+00 0. -1.
<scales pt_clust_5="13000.00000" pt_clust_6="13000.00000" pt_clust_7="13000.00000" pt_clust_8="13000.00000" pt_clust_9="171.98887"></scales>
<clustering>
<clus scale="   80.154">  5  6 -1 -1</clus>
<clus scale="   92.896">  7  8 -1 -1</clus>
<clus scale="  113.568">  2  7  1 -1</clus>
<clus scale="  171.989">  1  9  2 -1</clus>
<clus scale="  171.989">  1  5  2 -1</clus>
</clustering>
</event>
<event>
 9    2  0.9254368E-005  0.2089694E+03  0.7546771E-02  0.1179161E+00
         21   -1    0    0  501  502  0.00000000000E+00  0.00000000000E+00  0.11344354802E+03  0.11344354802E+03  0.00000000000E+00 0. -1.
          2   -1    0    0  502    0 -0.00000000000E+00 -0.00000000000E+00 -0.62360348712E+03  0.62360348712E+03  0.00000000000E+00 0. -1.
         24    2    1    2    0    0 -0.49855602452E+01 -0.29712061375E+02 -0.55787234950E+01  0.89032191478E+02  0.83593938545E+02 0.  0.
         23    2    1    2    0    0 -0.16443258685E+03 -0.72027085365E+02 -0.32361305625E+03  0.38005432932E+03  0.86544245435E+02 0.  0.
        -13    1    3    3    0    0  0.99023152699E+01 -0.22918713945E+02 -0.42137195040E+02  0.48978224778E+02  0.00000000000E+00 0.  1.
         14    1    3    3    0    0 -0.14887875515E+02 -0.67933474306E+01  0.36558471545E+02  0.40053966700E+02  0.00000000000E+00 0. -1.
        -11    1    4    4    0    0 -0.42256337041E+02 -0.26673798082E+02 -0.28691709105E+02  0.57622076460E+02  0.00000000000E+00 0. -1.
         11    1    4    4    0    0 -0.12217624980E+03 -0.45353287283E+02 -0.29492134714E+03  0.32243225286E+03  0.00000000000E+00 0.  1.
          1    1    1    2  501    0  0.16941814709E+03  0.10173914674E+03 -0.18096815936E+03  0.26796051434E+03  0.00000000000E+00 0. -1.
<scales pt_clust_5="13000.00000" pt_clust_6="13000.00000" pt_clust_7="13000.00000" pt_clust_8="13000.00000" pt_clust_9="190.20596"></scales>
<clustering>
<clus scale="   83.594">  5  6 -1 -1</clus>
<clus scale="   86.544">  7  8 -1 -1</clus>
<clus scale="   88.857">  2  5  1 -1</clus>
<clus scale="  190.206">  1  9  2 -1</clus>
<clus scale="  190.206">  1  5  2 -1</clus>
</clustering>
</event>
<event>
 9    2  0.9254368E-005  0.1081098E+03  0.7546771E-02  0.1266373E+00
          4   -1    0    0  502    0 -0.00000000000E+00  0.00000000000E+00  0.15211278990E+03  0.15211278990E+03  0.00000000000E+00 0. -1.
         21   -1    0    0  501  502  0.00000000000E+00 -0.00000000000E+00 -0.11241900613E+03  0.11241900613E+03  0.00000000000E+00 0. -1.
         23    2    1    2    0    0  0.10276642873E+01  0.43397789956E+02  0.14844715853E+02  0.99676085817E+02  0.88490294541E+02 0.  0.
         24    2    1    2    0    0  0.20803356614E+02 -0.80400122713E+02  0.31500389059E+02  0.12138150895E+03  0.82729902848E+02 0.  0.
        -13    1    4    4    0    0  0.30017872713E+02 -0.46521391914E+02  0.55860073468E+02  0.78648969451E+02  0.00000000000E+00 0.  1.
         14    1    4    4    0    0 -0.92145160986E+01 -0.33878730799E+02 -0.24359684409E+02  0.42732539498E+02  0.00000000000E+00 0. -1.
        -13    1    3    3    0    0 -0.40853668714E+02  0.33887071021E+02  0.19343194268E+02  0.56493495150E+02  0.00000000000E+00 0.  1.
         13    1    3    3    0    0  0.41881333002E+02  0.95107189355E+01 -0.44984784146E+01  0.43182590667E+02  0.00000000000E+00 0. -1.
          3    1    1    2  501    0 -0.21831020901E+02  0.37002332757E+02 -0.66513211446E+01  0.43474201269E+02  0.00000000000E+00 0. -1.
<scales pt_clust_5="13000.00000" pt_clust_6="13000.00000" pt_clust_7="13000.00000" pt_clust_8="13000.00000" pt_clust_9="42.96238"></scales>
<clustering>
<clus scale="   42.962">  2  9  1 -1</clus>
<clus scale="   82.730">  5  6 -1 -1</clus>
<clus scale="   88.490">  7  8 -1 -1</clus>
<clus scale="  103.448">  2  5  1 -1</clus>
<clus scale="   42.962">  2  5  1 -1</clus>
</clustering>
</event>
<event>
 9    2  0.9254368E-005  0.2576703E+03  0.7546771E-02  0.1135499E+00
         -1   -1    0    0    0  501 -0.00000000000E+00  0.00000000000E+00  0.24112202792E+03  0.24112202792E+03  0.00000000000E+00 0.  1.
         21   -1    0    0  501  502  0.00000000000E+00 -0.00000000000E+00 -0.58522582320E+03  0.58522582320E+03  0.00000000000E+00 0.  1.
         24    2    1    2    0    0  0.76250152017E+02  0.73164358295E+02 -0.23265640470E+02  0.13368675568E+03  0.78509551084E+02 0.  0.
         23    2    1    2    0    0  0.19952369979E+03 -0.12366252503E+03 -0.32703857027E+03  0.41223333766E+03  0.88769202761E+02 0.  0.
        -11    1    3    3    0    0  0.84098404008E+02  0.40075199507E+02 -0.12346594049E+01  0.93166987480E+02  0.00000000000E+00 0.  1.
         12    1    3    3    0    0 -0.78482519910E+01  0.33089158788E+02 -0.22030981066E+02  0.40519768205E+02  0.00000000000E+00 0. -1.
        -13    1    4    4    0    0  0.94772408842E+02 -0.76748920248E+02 -0.23632976219E+03  0.26593977276E+03  0.00000000000E+00 0.  1.
         13    1    4    4    0    0  0.10475129095E+03 -0.46913604779E+02 -0.90708808081E+02  0.14629356490E+03  0.00000000000E+00 0. -1.
         -2    1    1    2    0  502 -0.27577385180E+03  0.50498166732E+02  0.62004154626E+01  0.28042775778E+03  0.00000000000E+00 0.  1.
<scales pt_clust_5="13000.00000" pt_clust_6="13000.00000" pt_clust_7="13000.00000" pt_clust_8="13000.00000" pt_clust_9="241.89679"></scales>
<clustering>
<clus scale="   78.510">  5  6 -1 -1</clus>
<clus scale="   88.769">  7  8 -1 -1</clus>
<clus scale="  131.647">  1  5  2 -1</clus>
<clus scale="  241.897">  2  9  1 -1</clus>
<clus scale="  241.897">  2  5  1 -1</clus>
</clustering>
</event>
<event>
 9    2  0.9254368E-005  0.1336110E+03  0.7546771E-02  0.1231999E+00
          2   -1    0    0  502    0 -0.00000000000E+00  0.00000000000E+00  0.50597675496E+03  0.50597675496E+03  0.00000000000E+00 0. -1.
         21   -1    0    0  501  502  0.00000000000E+00 -0.00000000000E+00 -0.44705872839E+02  0.44705872839E+02  0.00000000000E+00 0.  1.
         24    2    1    2    0    0  0.38102846983E+02 -0.59696776723E+02  0.31003041152E+03  0.32794469136E+03  0.80083284271E+02 0.  0.
         23    2    1    2    0    0 -0.60797363051E+02  0.61164116298E+02  0.13014123438E+03  0.19171581669E+03  0.11126924556E+03 0.  0.
        -13    1    3    3    0    0  0.57942899567E+01 -0.49609643321E+02  0.72647350378E+02  0.88160807752E+02  0.00000000000E+00 0.  1.
         14    1    3    3    0    0  0.32308557027E+02 -0.10087133403E+02  0.23738306115E+03  0.23978388360E+03  0.00000000000E+00 0. -1.
        -13    1    4    4    0    0 -0.40461383291E+02 -0.27606180512E+02  0.36442369755E+02  0.61051380440E+02  0.00000000000E+00 0.  1.
         13    1    4    4    0    0 -0.20335979759E+02  0.88770296810E+02  0.93698864620E+02  0.13066443625E+03  0.00000000000E+00 0. -1.
          1    1    1    2  501    0  0.22694516067E+02 -0.14673395745E+01  0.21099236219E+02  0.31022119753E+02  0.00000000000E+00 0. -1.
<scales pt_clust_5="13000.00000" pt_clust_6="13000.00000" pt_clust_7="13000.00000" pt_clust_8="13000.00000" pt_clust_9="22.74190"></scales>
<clustering>
<clus scale="   22.742">  2  9  1 -1</clus>
<clus scale="   80.083">  5  6 -1 -1</clus>
<clus scale="  109.016">  1  5  2 -1</clus>
<clus scale="  111.269">  7  8 -1 -1</clus>
<clus scale="   22.742">  2  5  1 -1</clus>
</clustering>
</event>
<event>
 9    2  0.9254368E-005  0.1461517E+03  0.7546771E-02  0.1215625E+00
         -1   -1    0    0    0  501 -0.00000000000E+00  0.00000000000E+00  0.33541243032E+03  0.33541243032E+03  0.00000000000E+00 0.  1.
         21   -1    0    0  501  502  0.00000000000E+00 -0.00000000000E+00 -0.16872288794E+03  0.16872288794E+03  0.00000000000E+00 0.  1.
         24    2    1    2    0    0  0.70541842755E+02 -0.46417802739E+02 -0.53420167069E+01  0.11733245799E+03  0.81287173438E+02 0.  0.
         23    2    1    2    0    0  0.32480617262E+02  0.11316787024E+03 -0.28093442837E+02  0.15202804226E+03  0.91985470323E+02 0.  0.
        -13    1    3    3    0    0  0.86922848445E+02 -0.44026005442E+02  0.54199618426E+01  0.97587123758E+02  0.00000000000E+00 0.  1.
         14    1    3    3    0    0 -0.16381005690E+02 -0.23917972972E+01 -0.10761978549E+02  0.19745334234E+02  0.00000000000E+00 0. -1.
        -13    1    4    4    0    0  0.33569801942E+02  0.57746649035E+00  0.65820987047E+01  0.34213872820E+02  0.00000000000E+00 0. -1.
         13    1    4    4    0    0 -0.10891846806E+01  0.11259040375E+03 -0.34675541541E+02  0.11781416944E+03  0.00000000000E+00 0.  1.
         -2    1    1    2    0  502 -0.10302246002E+03 -0.66750067498E+02  0.20012500192E+03  0.23477481801E+03  0.00000000000E+00 0.  1.
<scales pt_clust_5="13000.00000" pt_clust_6="13000.00000" pt_clust_7="13000.00000" pt_clust_8="13000.00000" pt_clust_9="113.57379"></scales>
<clustering>
<clus scale="   81.287">  5  6 -1 -1</clus>
<clus scale="   91.985">  7  8 -1 -1</clus>
<clus scale="  117.211">  1  5  2 -1</clus>
<clus scale="  113.574">  2  9  1 -1</clus>
<clus scale="  113.574">  2  5  1 -1</clus>
</clustering>
</event>
<event>
 9    2  0.9254368E-005  0.1509240E+03  0.7546771E-02  0.1201106E+00
         21   -1    0    0  501  502  0.00000000000E+00  0.00000000000E+00  0.38183202705E+03  0.38183202705E+03  0.00000000000E+00 0.  1.
         -3   -1    0    0    0  501 -0.00000000000E+00 -0.00000000000E+00 -0.10300350425E+03  0.10300350425E+03  0.00000000000E+00 0.  1.
         24    2    1    2    0    0  0.24734710485E+02 -0.11842150819E+03  0.10566067877E+02  0.14439228174E+03  0.78115489695E+02 0.  0.
         23    2    1    2    0    0 -0.61034193786E+02  0.11667739564E+03  0.25780465196E+03  0.30262711465E+03  0.88210795730E+02 0.  0.
        -11    1    3    3    0    0 -0.22802567103E+02 -0.63779386197E+02 -0.11449478987E+02  0.68693942522E+02  0.00000000000E+00 0.  1.
         12    1    3    3    0    0  0.47537277588E+02 -0.54642121997E+02  0.22015546864E+02  0.75698339219E+02  0.00000000000E+00 0. -1.
        -11    1    4    4    0    0 -0.25651756108E+02  0.10944934617E+03  0.23334055667E+03  0.25900769749E+03  0.00000000000E+00 0.  1.
         11    1    4    4    0    0 -0.35382437678E+02  0.72280494619E+01  0.24464095288E+02  0.43619417160E+02  0.00000000000E+00 0. -1.
         -4    1    1    2    0  502  0.36299483301E+02  0.17441125585E+01  0.10457802969E+02  0.37816134910E+02  0.00000000000E+00 0.  1.
<scales pt_clust_5="13000.00000" pt_clust_6="13000.00000" pt_clust_7="13000.00000" pt_clust_8="13000.00000" pt_clust_9="36.34138"></scales>
<clustering>
<clus scale="   36.341">  1  9  2 -1</clus>
<clus scale="   78.115">  5  6 -1 -1</clus>
<clus scale="   88.211">  7  8 -1 -1</clus>
<clus scale="  145.255">  2  5  1 -1</clus>
<clus scale="   36.341">  1  5  2 -1</clus>
</clustering>
</event>
<event>
 9    2  0.9254368E-005  0.2432776E+03  0.7546771E-02  0.1118773E+00
         21   -1    0    0  501  502  0.00000000000E+00  0.00000000000E+00  0.10704255572E+03  0.10704255572E+03  0.00000000000E+00 0.  1.
          2   -1    0    0  502    0 -0.00000000000E+00 -0.00000000000E+00 -0.11150041971E+04  0.11150041971E+04  0.00000000000E+00 0. -1.
         24    2    1    2    0    0  0.22876969752E+03  0.29207661437E+02 -0.58129597229E+03  0.63044726101E+03  0.79812777888E+02 0.  0.
         23    2    1    2    0    0 -0.21419349185E+03 -0.23573858286E+01 -0.47737597968E+03  0.53239696927E+03  0.98358007773E+02 0.  0.
        -13    1    3    3    0    0  0.19111093750E+03  0.52525913949E+02 -0.50034692394E+03  0.53817228316E+03  0.00000000000E+00 0.  1.
         14    1    3    3    0    0  0.37658760027E+02 -0.23318252512E+02 -0.80949048354E+02  0.92274977845E+02  0.00000000000E+00 0. -1.
        -13    1    4    4    0    0 -0.98908436939E+02  0.18391968187E+02 -0.32490944875E+03  0.34012834824E+03  0.00000000000E+00 0. -1.
         13    1    4    4    0    0 -0.11528505491E+03 -0.20749354016E+02 -0.15246653093E+03  0.19226862103E+03  0.00000000000E+00 0.  1.
          1    1    1    2  501    0 -0.14576205679E+02 -0.26850275608E+02  0.50710310604E+02  0.59202522529E+02  0.00000000000E+00 0. -1.
<scales pt_clust_5="13000.00000" pt_clust_6="13000.00000" pt_clust_7="13000.00000" pt_clust_8="13000.00000" pt_clust_9="30.55165"></scales>
<clustering>
<clus scale="   30.552">  1  9  2 -1</clus>
<clus scale="   79.813">  5  6 -1 -1</clus>
<clus scale="   98.358">  7  8 -1 -1</clus>
<clus scale="  236.389">  2  5  1 -1</clus>
<clus scale="   30.552">  1  5  2 -1</clus>
</clustering>
</event>
<event>
 9    2  0.9254368E-005  0.1581729E+03  0.7546771E-02  0.1216167E+00
          2   -1    0    0  502    0 -0.00000000000E+00  0.00000000000E+00  0.38860414052E+03  0.38860414052E+03  0.00000000000E+00 0. -1.
         21   -1    0    0  501  502  0.00000000000E+00 -0.00000000000E+00 -0.14038239983E+03  0.14038239983E+03  0.00000000000E+00 0. -1.
         24    2    1    2    0    0  0.22933761204E+02  0.18279424096E+02  0.22118253740E+03  0.23932795418E+03  0.86579790087E+02 0.  0.
         23    2    1    2    0    0  0.11033685950E+03 -0.47286463907E+02  0.24696977714E+02  0.15324761623E+03  0.92003581113E+02 0.  0.
        -11    1    3    3    0    0 -0.13860059204E+02  0.35291822358E+02  0.46475840053E+02  0.59980144007E+02  0.00000000000E+00 0.  1.
         12    1    3    3    0    0  0.36793820408E+02 -0.17012398262E+02  0.17470669735E+03  0.17934781017E+03  0.00000000000E+00 0. -1.
        -11    1    4    4    0    0  0.20661677527E+02 -0.28106636827E+02  0.47326321817E+02  0.58793440865E+02  0.00000000000E+00 0.  1.
         11    1    4    4    0    0  0.89675181973E+02 -0.19179827080E+02 -0.22629344104E+02  0.94454175362E+02  0.00000000000E+00 0. -1.
          1    1    1    2  501    0 -0.13327062070E+03  0.29007039811E+02  0.23422255765E+01  0.13641096995E+03  0.00000000000E+00 0. -1.
<scales pt_clust_5="13000.00000" pt_clust_6="13000.00000" pt_clust_7="13000.00000" pt_clust_8="13000.00000" pt_clust_9="128.66240"></scales>
<clustering>
<clus scale="   86.580">  5  6 -1 -1</clus>
<clus scale="   91.412">  1  5  2 -1</clus>
<clus scale="   92.004">  7  8 -1 -1</clus>
<clus scale="  128.662">  2  9  1 -1</clus>
<clus scale="  128.662">  2  5  1 -1</clus>
</clustering>
</event>
<event>
 9    2  0.9254368E-005  0.1077100E+03  0.7546771E-02  0.1268310E+00
         21   -1    0    0  501  502  0.00000000000E+00  0.00000000000E+00  0.44062289081E+02  0.44062289081E+02  0.00000000000E+00 0. -1.
         -1   -1    0    0    0  501 -0.00000000000E+00 -0.00000000000E+00 -0.74153674982E+03  0.74153674982E+03  0.00000000000E+00 0.  1.
         24    2    1    2    0    0 -0.14557205963E+02 -0.48187132054E+02 -0.51416419845E+03  0.52321140636E+03  0.82773430738E+02 0.  0.
         23    2    1    2    0    0  0.42417004854E+02  0.81375715347E+02 -0.17605737129E+03  0.21845296646E+03  0.91127883888E+02 0.  0.
        -11    1    3    3    0    0 -0.41405751824E+02 -0.45509761734E+02 -0.24145991149E+03  0.24917556773E+03  0.00000000000E+00 0.  1.
         12    1    3    3    0    0  0.26848545860E+02 -0.26773703199E+01 -0.27270428697E+03  0.27403583864E+03  0.00000000000E+00 0. -1.
        -11    1    4    4    0    0 -0.23516078723E+02  0.35465229079E+01 -0.56463731475E+02  0.61267746452E+02  0.00000000000E+00 0.  1.
         11    1    4    4    0    0  0.65933083577E+02  0.77829192439E+02 -0.11959363982E+03  0.15718522001E+03  0.00000000000E+00 0. -1.
         -2    1    1    2    0  502 -0.27859798891E+02 -0.33188583293E+02 -0.72528909941E+01  0.43934666073E+02  0.00000000000E+00 0.  1.
<scales pt_clust_5="13000.00000" pt_clust_6="13000.00000" pt_clust_7="13000.00000" pt_clust_8="13000.00000" pt_clust_9="43.33186"></scales>
<clustering>
<clus scale="   43.332">  1  9  2 -1</clus>
<clus scale="   82.773">  5  6 -1 -1</clus>
<clus scale="   91.128">  7  8 -1 -1</clus>
<clus scale="  100.740">  2  5  1 -1</clus>
<clus scale="   43.332">  1  5  2 -1</clus>
</clustering>
</event>
<event>
 9    2  0.9254368E-005  0.1454552E+03  0.7546771E-02  0.1212436E+00
         21   -1    0    0  501  502  0.00000000000E+00  0.00000000000E+00  0.40246780937E+03  0.40246780937E+03  0.00000000000E+00 0. -1.
         -3   -1    0    0    0  501 -0.00000000000E+00 -0.00000000000E+00 -0.78514067250E+02  0.78514067250E+02  0.00000000000E+00 0.  1.
         24    2    1    2    0    0 -0.83401915288E+02 -0.65664057235E+02  0.57361268207E+02  0.13458375152E+03  0.59622338075E+02 0.  0.
         23    2    1    2    0    0  0.12261923368E+03  0.53308295775E+02  0.25718681505E+03  0.30421839867E+03  0.92339186621E+02 0.  0.
        -13    1    3    3    0    0 -0.65366669031E+02 -0.13761656549E+02  0.31153802572E+02  0.73707150439E+02  0.00000000000E+00 0.  1.
         14    1    3    3    0    0 -0.18035246257E+02 -0.51902400686E+02  0.26207465635E+02  0.60876601084E+02  0.00000000000E+00 0. -1.
        -11    1    4    4    0    0  0.58798955595E+02 -0.14877972636E+02  0.15143973169E+03  0.16313388239E+03  0.00000000000E+00 0.  1.
         11    1    4    4    0    0  0.63820278086E+02  0.68186268411E+02  0.10574708336E+03  0.14108451628E+03  0.00000000000E+00 0. -1.
         -4    1    1    2    0  502 -0.39217318393E+02  0.12355761460E+02  0.94056588655E+01  0.42179726432E+02  0.00000000000E+00 0.  1.
<scales pt_clust_5="13000.00000" pt_clust_6="13000.00000" pt_clust_7="13000.00000" pt_clust_8="13000.00000" pt_clust_9="41.11769"></scales>
<clustering>
<clus scale="   41.118">  1  9  2 -1</clus>
<clus scale="   59.622">  5  6 -1 -1</clus>
<clus scale="   92.339">  7  8 -1 -1</clus>
<clus scale="  127.222">  2  5  1 -1</clus>
<clus scale="   41.118">  1  5  2 -1</clus>
</clustering>
</event>
<event>
 9    2  0.9254368E-005  0.1029308E+03  0.7546771E-02  0.1280434E+00
         -3   -1    0    0    0  501 -0.00000000000E+00  0.00000000000E+00  0.56572036685E+03  0.56572036685E+03  0.00000000000E+00 0.  1.
         21   -1    0    0  501  502  0.00000000000E+00 -0.00000000000E+00 -0.31313415393E+02  0.31313415393E+02  0.00000000000E+00 0.  1.
         24    2    1    2    0    0  0.61909704367E+02  0.12681984800E+02  0.28039206547E+03  0.29826041881E+03  0.79661300637E+02 0.  0.
         23    2    1    2    0    0 -0.19072645563E+02  0.27367510615E+02  0.16674456060E+03  0.19363019730E+03  0.92607550295E+02 0.  0.
        -11    1    3    3    0    0  0.60913515512E+02  0.37722795527E+02  0.24224070380E+03  0.25261437856E+03  0.00000000000E+00 0.  1.
         12    1    3    3    0    0  0.99618885505E+00 -0.25040810727E+02  0.38151361661E+02  0.45646040252E+02  0.00000000000E+00 0. -1.
        -11    1    4    4    0    0 -0.47554072141E+02  0.27284257575E+02  0.52569768332E+02  0.75956573324E+02  0.00000000000E+00 0. -1.
         11    1    4    4    0    0  0.28481426578E+02  0.83253039969E-01  0.11417479226E+03  0.11767362397E+03  0.00000000000E+00 0.  1.
         -4    1    1    2    0  502 -0.42837058804E+02 -0.40049495416E+02  0.87270325391E+02  0.10514316613E+03  0.00000000000E+00 0.  1.
<scales pt_clust_5="13000.00000" pt_clust_6="13000.00000" pt_clust_7="13000.00000" pt_clust_8="13000.00000" pt_clust_9="58.64278"></scales>
<clustering>
<clus scale="   58.643">  2  9  1 -1</clus>
<clus scale="   79.661">  5  6 -1 -1</clus>
<clus scale="   91.458">  1  5  2 -1</clus>
<clus scale="   92.608">  7  8 -1 -1</clus>
<clus scale="   58.643">  2  5  1 -1</clus>
</clustering>
</event>
<event>
 9    2  0.9254368E-005  0.1036740E+03  0.7546771E-02  0.1279721E+00
         -1   -1    0    0    0  501 -0.00000000000E+00  0.00000000000E+00  0.32787862817E+02  0.32787862817E+02  0.00000000000E+00 0.  1.
         21   -1    0    0  501  502  0.00000000000E+00 -0.00000000000E+00 -0.52724614047E+03  0.52724614047E+03  0.00000000000E+00 0. -1.
         23    2    1    2    0    0  0.27156404358E+02 -0.41897490713E+02 -0.16147775590E+03  0.19324899936E+03  0.93686925870E+02 0.  0.
         24    2    1    2    0    0  0.10519056113E+02  0.42907033964E+02 -0.30923411707E+03  0.32223894647E+03  0.79123544903E+02 0.  0.
        -13    1    4    4    0    0 -0.26342416024E+01 -0.21269844237E+02 -0.42764185387E+02  0.47834308341E+02  0.00000000000E+00 0.  1.
         14    1    4    4    0    0  0.13153297715E+02  0.64176878201E+02 -0.26646993168E+03  0.27440463813E+03  0.00000000000E+00 0. -1.
        -13    1    3    3    0    0 -0.25938062781E+02 -0.42111443889E+02 -0.53108078424E+02  0.72571515081E+02  0.00000000000E+00 0. -1.
         13    1    3    3    0    0  0.53094467139E+02  0.21395317571E+00 -0.10836967747E+03  0.12067748428E+03  0.00000000000E+00 0.  1.
         -2    1    1    2    0  502 -0.37675460471E+02 -0.10095432511E+01 -0.23746404686E+02  0.44546057455E+02  0.00000000000E+00 0.  1.
<scales pt_clust_5="13000.00000" pt_clust_6="13000.00000" pt_clust_7="13000.00000" pt_clust_8="13000.00000" pt_clust_9="37.68900"></scales>
<clustering>
<clus scale="   37.689">  2  9  1 -1</clus>
<clus scale="   79.124">  5  6 -1 -1</clus>
<clus scale="   90.728">  2  5  1 -1</clus>
<clus scale="   93.687">  7  8 -1 -1</clus>
<clus scale="   37.689">  2  5  1 -1</clus>
</clustering>
</event>
<event>
 9    2  0.9254368E-005  0.1282389E+03  0.7546771E-02  0.1231929E+00
         21   -1    0    0  501  502  0.00000000000E+00  0.00000000000E+00  0.32580330356E+03  0.32580330356E+03  0.00000000000E+00 0.  1.
          4   -1    0    0  502    0 -0.00000000000E+00 -0.00000000000E+00 -0.32978674020E+03  0.32978674020E+03  0.00000000000E+00 0. -1.
         24    2    1    2    0    0 -0.90501539317E+02 -0.28702344227E+02 -0.29623687084E+03  0.32136809327E+03  0.80664828424E+02 0.  0.
         23    2    1    2    0    0  0.70759733933E+02  0.23266243556E+02  0.14306946104E+03  0.18363925588E+03  0.87785235568E+02 0.  0.
        -11    1    3    3    0    0  0.59058853654E+00  0.20490660100E+02 -0.38519922885E+02  0.43634853102E+02  0.00000000000E+00 0.  1.
         12    1    3    3    0    0 -0.91092127853E+02 -0.49193004327E+02 -0.25771694795E+03  0.27773324017E+03  0.00000000000E+00 0. -1.
        -11    1    4    4    0    0  0.56990884068E+02  0.46976666014E+02  0.13687505662E+03  0.15552989791E+03  0.00000000000E+00 0.  1.
         11    1    4    4    0    0  0.13768849865E+02 -0.23710422458E+02  0.61944044116E+01  0.28109357975E+02  0.00000000000E+00 0. -1.
          3    1    1    2  501    0  0.19741805383E+02  0.54361006713E+01  0.14918397316E+03  0.15058269462E+03  0.00000000000E+00 0. -1.
<scales pt_clust_5="13000.00000" pt_clust_6="13000.00000" pt_clust_7="13000.00000" pt_clust_8="13000.00000" pt_clust_9="20.47657"></scales>
<clustering>
<clus scale="   20.477">  1  9  2 -1</clus>
<clus scale="   80.665">  5  6 -1 -1</clus>
<clus scale="   87.785">  7  8 -1 -1</clus>
<clus scale="  123.474">  2  5  1 -1</clus>
<clus scale="   20.477">  1  5  2 -1</clus>
</clustering>
</event>
<event>
 9    2  0.9254368E-005  0.1182197E+03  0.7546771E-02  0.1249410E+00
         21   -1    0    0  501  502  0.00000000000E+00  0.00000000000E+00  0.94284793308E+02  0.94284793308E+02  0.00000000000E+00 0.  1.
          2   -1    0    0  502    0 -0.00000000000E+00 -0.00000000000E+00 -0.42964866905E+03  0.42964866905E+03  0.00000000000E+00 0. -1.
         24    2    1    2    0    0 -0.75811456338E+02 -0.11874777216E+02 -0.31816233353E+03  0.33699987360E+03  0.80332167176E+02 0.  0.
         23    2    1    2    0    0  0.64184493568E+02  0.33674596730E+02  0.41514510759E+02  0.12323120834E+03  0.90602695470E+02 0.  0.
        -13    1    3    3    0    0 -0.23843763187E+01 -0.30110874554E+02 -0.50438762787E+02  0.58791315756E+02  0.00000000000E+00 0.  1.
         14    1    3    3    0    0 -0.73427080020E+02  0.18236097339E+02 -0.26772357074E+03  0.27820855784E+03  0.00000000000E+00 0. -1.
        -13    1    4    4    0    0 -0.70632105325E+00 -0.25259933517E+02 -0.20326491932E+01  0.25351425866E+02  0.00000000000E+00 0. -1.
         13    1    4    4    0    0  0.64890814622E+02  0.58934530247E+02  0.43547159952E+02  0.97879782476E+02  0.00000000000E+00 0.  1.
          1    1    1    2  501    0  0.11626962770E+02 -0.21799819515E+02 -0.58716052972E+02  0.63702380417E+02  0.00000000000E+00 0. -1.
<scales pt_clust_5="13000.00000" pt_clust_6="13000.00000" pt_clust_7="13000.00000" pt_clust_8="13000.00000" pt_clust_9="24.70666"></scales>
<clustering>
<clus scale="   24.707">  1  9  2 -1</clus>
<clus scale="   80.332">  5  6 -1 -1</clus>
<clus scale="   90.603">  7  8 -1 -1</clus>
<clus scale="  110.545">  2  5  1 -1</clus>
<clus scale="   24.707">  1  5  2 -1</clus>
</clustering>
</event>
<event>
 9    2  0.9254368E-005  0.1145385E+03  0.7546771E-02  0.1257071E+00
         -1   -1    0    0    0  501 -0.00000000000E+00  0.00000000000E+00  0.13107967965E+03  0.13107967965E+03  0.00000000000E+00 0.  1.
         21   -1    0    0  501  502  0.00000000000E+00 -0.00000000000E+00 -0.28581056190E+03  0.28581056190E+03  0.00000000000E+00 0.  1.
         23    2    1    2    0    0  0.29068873200E+02 -0.67099404487E+02  0.87908368435E+02  0.14571738654E+03  0.90323562975E+02 0.  0.
         24    2    1    2    0    0 -0.12076796798E+02  0.53695901757E+02 -0.16160885582E+03  0.18730206487E+03  0.77042471007E+02 0.  0.
        -11    1    4    4    0    0  0.23673902458E+02  0.40431340064E+02 -0.12859493498E+03  0.13686418165E+03  0.00000000000E+00 0.  1.
         12    1    4    4    0    0 -0.35750699256E+02  0.13264561692E+02 -0.33013920839E+02  0.50437883216E+02  0.00000000000E+00 0. -1.
        -13    1    3    3    0    0  0.16859734262E+02  0.20234077303E+02  0.31396609866E+02  0.40980673918E+02  0.00000000000E+00 0. -1.
         13    1    3    3    0    0  0.12209138938E+02 -0.87333481790E+02  0.56511758569E+02  0.10473671263E+03  0.00000000000E+00 0.  1.
         -2    1    1    2    0  502 -0.16992076402E+02  0.13403502730E+02 -0.81030394863E+02  0.83870790133E+02  0.00000000000E+00 0.  1.
<scales pt_clust_5="13000.00000" pt_clust_6="13000.00000" pt_clust_7="13000.00000" pt_clust_8="13000.00000" pt_clust_9="21.64219"></scales>
<clustering>
<clus scale="   21.642">  2  9  1 -1</clus>
<clus scale="   77.042">  5  6 -1 -1</clus>
<clus scale="   90.324">  7  8 -1 -1</clus>
<clus scale="  104.385">  2  5  1 -1</clus>
<clus scale="   21.642">  2  5  1 -1</clus>
</clustering>
</event>
<event>
 9    2  0.9254368E-005  0.1466753E+03  0.7546771E-02  0.1227269E+00
         21   -1    0    0  501  502  0.00000000000E+00  0.00000000000E+00  0.98575175045E+02  0.98575175045E+02  0.00000000000E+00 0. -1.
         -1   -1    0    0    0  501 -0.00000000000E+00 -0.00000000000E+00 -0.57629899572E+03  0.57629899572E+03  0.00000000000E+00 0.  1.
         24    2    1    2    0    0 -0.27053798329E+02  0.34181685391E+02 -0.16594769836E+03  0.18919494097E+03  0.79723217921E+02 0.  0.
         23    2    1    2    0    0 -0.16074573165E+02  0.10910608506E+03 -0.15947822548E+01  0.14129005269E+03  0.88305186490E+02 0.  0.
        -13    1    3    3    0    0  0.19672710010E+02 -0.13449303219E+02 -0.37071799366E+02  0.44070597731E+02  0.00000000000E+00 0.  1.
         14    1    3    3    0    0 -0.46726508338E+02  0.47630988610E+02 -0.12887589900E+03  0.14512434323E+03  0.00000000000E+00 0. -1.
        -11    1    4    4    0    0 -0.52913361871E+00  0.36356766885E+02 -0.42871374780E+02  0.56214315403E+02  0.00000000000E+00 0.  1.
         11    1    4    4    0    0 -0.15545439546E+02  0.72749318170E+02  0.41276592525E+02  0.85075737290E+02  0.00000000000E+00 0. -1.
         -2    1    1    2    0  502  0.43128371494E+02 -0.14328777045E+03 -0.31018134006E+03  0.34438917711E+03  0.00000000000E+00 0.  1.
<scales pt_clust_5="13000.00000" pt_clust_6="13000.00000" pt_clust_7="13000.00000" pt_clust_8="13000.00000" pt_clust_9="117.11464"></scales>
<clustering>
<clus scale="   79.723">  5  6 -1 -1</clus>
<clus scale="   88.305">  7  8 -1 -1</clus>
<clus scale="   90.863">  2  5  1 -1</clus>
<clus scale="  117.115">  1  9  2 -1</clus>
<clus scale="  117.115">  1  5  2 -1</clus>
</clustering>
</event>
<event>
 9    2  0.9254368E-005  0.1484633E+03  0.7546771E-02  0.1204286E+00
          2   -1    0    0  502    0 -0.00000000000E+00  0.00000000000E+00  0.77050012443E+03  0.77050012443E+03  0.00000000000E+00 0. -1.
         21   -1    0    0  501  502  0.00000000000E+00 -0.00000000000E+00 -0.63458145816E+02  0.63458145816E+02  0.00000000000E+00 0.  1.
         24    2    1    2    0    0  0.11257583697E+03 -0.53449748619E+02  0.62675564724E+03  0.64419206295E+03  0.81428360707E+02 0.  0.
         23    2    1    2    0    0 -0.70377485514E+02  0.50432912380E+02  0.76245096278E+02  0.14726757500E+03  0.91531168574E+02 0.  0.
        -11    1    3    3    0    0  0.11929466709E+03 -0.36346704586E+02  0.59073634174E+03  0.60375634653E+03  0.00000000000E+00 0.  1.
         12    1    3    3    0    0 -0.67188301216E+01 -0.17103044033E+02  0.36019305499E+02  0.40435716415E+02  0.00000000000E+00 0. -1.
        -11    1    4    4    0    0 -0.69874372855E+01  0.21854773081E+02 -0.18688588181E+02  0.29592544913E+02  0.00000000000E+00 0.  1.
         11    1    4    4    0    0 -0.63390048229E+02  0.28578139298E+02  0.94933684458E+02  0.11767503008E+03  0.00000000000E+00 0. -1.
          1    1    1    2  501    0 -0.42198351455E+02  0.30168362397E+01  0.40412351015E+01  0.42498632302E+02  0.00000000000E+00 0. -1.
<scales pt_clust_5="13000.00000" pt_clust_6="13000.00000" pt_clust_7="13000.00000" pt_clust_8="13000.00000" pt_clust_9="42.30605"></scales>
<clustering>
<clus scale="   42.306">  2  9  1 -1</clus>
<clus scale="   81.428">  5  6 -1 -1</clus>
<clus scale="   91.531">  7  8 -1 -1</clus>
<clus scale="  142.457">  1  5  2 -1</clus>
<clus scale="   42.306">  2  5  1 -1</clus>
</clustering>
</event>
<event>
 9    2  0.9254368E-005  0.3273930E+03  0.7546771E-02  0.1108740E+00
         21   -1    0    0  501  502  0.00000000000E+00  0.00000000000E+00  0.31717398549E+03  0.31717398549E+03  0.00000000000E+00 0.  1.
          2   -1    0    0  502    0 -0.00000000000E+00 -0.00000000000E+00 -0.51712499566E+03  0.51712499566E+03  0.00000000000E+00 0. -1.
         24    2    1    2    0    0 -0.41916926833E+02 -0.84798860878E+02 -0.10027490280E+03  0.16025953043E+03  0.81732401164E+02 0.  0.
         23    2    1    2    0    0  0.21564008397E+03 -0.19787713858E+03 -0.14504166154E+03  0.33916113028E+03  0.91308164574E+02 0.  0.
        -11    1    3    3    0    0 -0.47017190076E+02 -0.75572086498E+02 -0.37460033827E+02  0.96566094229E+02  0.00000000000E+00 0.  1.
         12    1    3    3    0    0  0.51002632426E+01 -0.92267743808E+01 -0.62814868976E+02  0.63693436201E+02  0.00000000000E+00 0. -1.
        -11    1    4    4    0    0  0.21187236588E+03 -0.15283022980E+03 -0.12720583716E+03  0.29056548929E+03  0.00000000000E+00 0.  1.
         11    1    4    4    0    0  0.37677180957E+01 -0.45046908789E+02 -0.17835824385E+02  0.48595640983E+02  0.00000000000E+00 0. -1.
          1    1    1    2  501    0 -0.17372315714E+03  0.28267599946E+03  0.45365554164E+02  0.33487832044E+03  0.00000000000E+00 0. -1.
<scales pt_clust_5="13000.00000" pt_clust_6="13000.00000" pt_clust_7="13000.00000" pt_clust_8="13000.00000" pt_clust_9="314.40260"></scales>
<clustering>
<clus scale="   81.732">  5  6 -1 -1</clus>
<clus scale="   91.308">  7  8 -1 -1</clus>
<clus scale="  125.012">  2  5  1 -1</clus>
<clus scale="  314.403">  1  9  2 -1</clus>
<clus scale="  314.403">  1  5  2 -1</clus>
</clustering>
</event>
<event>
 9    2  0.9254368E-005  0.1318402E+03  0.7546771E-02  0.1240226E+00
          2   -1    0    0  502    0 -0.00000000000E+00  0.00000000000E+00  0.26825470847E+03  0.26825470847E+03  0.00000000000E+00 0. -1.
         21   -1    0    0  501  502  0.00000000000E+00 -0.00000000000E+00 -0.31446295970E+03  0.31446295970E+03  0.00000000000E+00 0.  1.
         23    2    1    2    0    0  0.26622493880E+02 -0.27038972782E+01 -0.24364468068E+02  0.98950560848E+02  0.92095157023E+02 0.  0.
         24    2    1    2    0    0  0.74211313373E+02 -0.71140272360E+02 -0.21628803245E+03  0.25262000230E+03  0.80424468898E+02 0.  0.
        -13    1    4    4    0    0  0.55131003316E+02 -0.85958875013E+02 -0.14501030948E+03  0.17735936845E+03  0.00000000000E+00 0.  1.
         14    1    4    4    0    0  0.19080310057E+02  0.14818602652E+02 -0.71277722974E+02  0.75260633858E+02  0.00000000000E+00 0. -1.
        -13    1    3    3    0    0  0.43742239994E+02  0.33971925422E+02 -0.15564824004E+02  0.57530331329E+02  0.00000000000E+00 0. -1.
         13    1    3    3    0    0 -0.17119746114E+02 -0.36675822700E+02 -0.87996440645E+01  0.41420229519E+02  0.00000000000E+00 0.  1.
          1    1    1    2  501    0 -0.10083380725E+03  0.73844169638E+02  0.19444424930E+03  0.23114710502E+03  0.00000000000E+00 0. -1.
<scales pt_clust_5="13000.00000" pt_clust_6="13000.00000" pt_clust_7="13000.00000" pt_clust_8="13000.00000" pt_clust_9="104.46888"></scales>
<clustering>
<clus scale="   80.424">  5  6 -1 -1</clus>
<clus scale="   92.095">  7  8 -1 -1</clus>
<clus scale="   95.904">  1  7  2 -1</clus>
<clus scale="  104.469">  2  9  1 -1</clus>
<clus scale="  104.469">  2  5  1 -1</clus>
</clustering>
</event>
<event>
 9    2  0.9254368E-005  0.1959874E+03  0.7546771E-02  0.1171378E+00
         21   -1    0    0  501  502  0.00000000000E+00  0.00000000000E+00  0.70926546682E+02  0.70926546682E+02  0.00000000000E+00 0. -1.
          2   -1    0    0  502    0 -0.00000000000E+00 -0.00000000000E+00 -0.93998150444E+03  0.93998150444E+03  0.00000000000E+00 0. -1.
         24    2    1    2    0    0 -0.51868205543E+02 -0.82127092284E+02 -0.16589965359E+03  0.20983924497E+03  0.84110900811E+02 0.  0.
         23    2    1    2    0    0 -0.14093421606E+03  0.36645294213E+02 -0.43109828636E+03  0.46453294080E+03  0.93486842594E+02 0.  0.
        -11    1    3    3    0    0 -0.18167449603E+01 -0.71463532584E+02 -0.12631797848E+03  0.14514326970E+03  0.00000000000E+00 0.  1.
         12    1    3    3    0    0 -0.50051460583E+02 -0.10663559700E+02 -0.39581675112E+02  0.64695975274E+02  0.00000000000E+00 0. -1.
        -13    1    4    4    0    0 -0.11424776668E+03  0.25807436844E+01 -0.38368319717E+03  0.40033986589E+03  0.00000000000E+00 0. -1.
         13    1    4    4    0    0 -0.26686449376E+02  0.34064550529E+02 -0.47415089189E+02  0.64193074905E+02  0.00000000000E+00 0.  1.
          1    1    1    2  501    0  0.19280242160E+03  0.45481798071E+02 -0.27205701781E+03  0.33653586536E+03  0.00000000000E+00 0. -1.
<scales pt_clust_5="13000.00000" pt_clust_6="13000.00000" pt_clust_7="13000.00000" pt_clust_8="13000.00000" pt_clust_9="172.25353"></scales>
<clustering>
<clus scale="   84.111">  5  6 -1 -1</clus>
<clus scale="   93.487">  7  8 -1 -1</clus>
<clus scale="  128.491">  2  5  1 -1</clus>
<clus scale="  172.254">  1  9  2 -1</clus>
<clus scale="  172.254">  1  5  2 -1</clus>
</clustering>
</event>
<event>
 9    2  0.9254368E-005  0.1284810E+03  0.7546771E-02  0.1236510E+00
         21   -1    0    0  501  502  0.00000000000E+00  0.00000000000E+00  0.27704941421E+03  0.27704941421E+03  0.00000000000E+00 0.  1.
         -1   -1    0    0    0  501 -0.00000000000E+00 -0.00000000000E+00 -0.19600896960E+03  0.19600896960E+03  0.00000000000E+00 0.  1.
         23    2    1    2    0    0 -0.27319645553E+02 -0.69519817981E+02 -0.13233722722E+03  0.18330826613E+03  0.10251541639E+03 0.  0.
         24    2    1    2    0    0 -0.19700860281E+02  0.10629835224E+03  0.13082863358E+03  0.18787798083E+03  0.80588713422E+02 0.  0.
        -11    1    4    4    0    0 -0.11437226867E+02  0.67380432392E+02  0.13137472110E+03  0.14808865645E+03  0.00000000000E+00 0.  1.
         12    1    4    4    0    0 -0.82636334139E+01  0.38917919847E+02 -0.54608751623E+00  0.39789324372E+02  0.00000000000E+00 0. -1.
        -11    1    3    3    0    0  0.25886990145E+02  0.17772921503E+01 -0.70069351377E+02  0.74719535789E+02  0.00000000000E+00 0. -1.
         11    1    3    3    0    0 -0.53206635698E+02 -0.71297110131E+02 -0.62267875844E+02  0.10858873034E+03  0.00000000000E+00 0.  1.
         -2    1    1    2    0  502  0.47020505834E+02 -0.36778534259E+02  0.82549038254E+02  0.10187213686E+03  0.00000000000E+00 0.  1.
<scales pt_clust_5="13000.00000" pt_clust_6="13000.00000" pt_clust_7="13000.00000" pt_clust_8="13000.00000" pt_clust_9="59.69580"></scales>
<clustering>
<clus scale="   59.696">  1  9  2 -1</clus>
<clus scale="   80.589">  5  6 -1 -1</clus>
<clus scale="  102.515">  7  8 -1 -1</clus>
<clus scale="  111.770">  1  5  2 -1</clus>
<clus scale="   59.696">  1  5  2 -1</clus>
</clustering>
</event>
<event>
 9    2  0.9254368E-005  0.1564408E+03  0.7546771E-02  0.1197693E+00
         21   -1    0    0  501  502  0.00000000000E+00  0.00000000000E+00  0.85878367489E+02  0.85878367489E+02  0.00000000000E+00 0.  1.
          2   -1    0    0  502    0 -0.00000000000E+00 -0.00000000000E+00 -0.78267777620E+03  0.78267777620E+03  0.00000000000E+00 0. -1.
         24    2    1    2    0    0 -0.89362668648E+02  0.69896608874E+02 -0.64684266553E+03  0.66203678948E+03  0.83761889929E+02 0.  0.
         23    2    1    2    0    0  0.70214220144E+02 -0.85510556068E+02 -0.74315208147E+02  0.17182363052E+03  0.10843670013E+03 0.  0.
        -11    1    3    3    0    0 -0.87897745961E+02  0.66973802578E+02 -0.39482471932E+03  0.40999763775E+03  0.00000000000E+00 0.  1.
         12    1    3    3    0    0 -0.14649226876E+01  0.29228062964E+01 -0.25201794621E+03  0.25203915173E+03  0.00000000000E+00 0. -1.
        -11    1    4    4    0    0  0.96694449688E+02 -0.74942254207E+02 -0.74644061057E+02  0.14331048084E+03  0.00000000000E+00 0.  1.
         11    1    4    4    0    0 -0.26480229544E+02 -0.10568301860E+02  0.32885291053E+00  0.28513149688E+02  0.00000000000E+00 0. -1.
          1    1    1    2  501    0  0.19148448504E+02  0.15613947194E+02  0.24358464957E+02  0.34695723687E+02  0.00000000000E+00 0. -1.
<scales pt_clust_5="13000.00000" pt_clust_6="13000.00000" pt_clust_7="13000.00000" pt_clust_8="13000.00000" pt_clust_9="24.70746"></scales>
<clustering>
<clus scale="   24.707">  1  9  2 -1</clus>
<clus scale="   83.762">  5  6 -1 -1</clus>
<clus scale="  108.437">  7  8 -1 -1</clus>
<clus scale="  140.468">  2  5  1 -1</clus>
<clus scale="   24.707">  1  5  2 -1</clus>
</clustering>
</event>
<event>
 9    2  0.9254368E-005  0.1695962E+03  0.7546771E-02  0.1209315E+00
         21   -1    0    0  501  502  0.00000000000E+00  0.00000000000E+00  0.54298524962E+03  0.54298524962E+03  0.00000000000E+00 0. -1.
          2   -1    0    0  502    0 -0.00000000000E+00 -0.00000000000E+00 -0.88666754328E+02  0.88666754328E+02  0.00000000000E+00 0. -1.
         24    2    1    2    0    0 -0.45277832228E+01 -0.30063254495E+02  0.20013140227E+03  0.21774178417E+03  0.80215997833E+02 0.  0.
         23    2    1    2    0    0 -0.70977948909E+02 -0.11137753713E+03  0.16704388499E+03  0.23142583188E+03  0.90616947323E+02 0.  0.
        -13    1    3    3    0    0  0.23193849819E+02 -0.38246611147E+02  0.17080762531E+03  0.17656727555E+03  0.00000000000E+00 0.  1.
         14    1    3    3    0    0 -0.27721633042E+02  0.81833566524E+01  0.29323776965E+02  0.41174508620E+02  0.00000000000E+00 0. -1.
        -11    1    4    4    0    0  0.16058252235E+02 -0.52888299434E+02  0.59929568804E+02  0.81526639198E+02  0.00000000000E+00 0.  1.
         11    1    4    4    0    0 -0.87036201144E+02 -0.58489237693E+02  0.10711431618E+03  0.14989919268E+03  0.00000000000E+00 0. -1.
          1    1    1    2  501    0  0.75505732132E+02  0.14144079162E+03  0.87143208039E+02  0.18248438790E+03  0.00000000000E+00 0. -1.
<scales pt_clust_5="13000.00000" pt_clust_6="13000.00000" pt_clust_7="13000.00000" pt_clust_8="13000.00000" pt_clust_9="143.35780"></scales>
<clustering>
<clus scale="   80.216">  5  6 -1 -1</clus>
<clus scale="   85.784">  2  5  1 -1</clus>
<clus scale="   90.617">  7  8 -1 -1</clus>
<clus scale="  143.358">  1  9  2 -1</clus>
<clus scale="  143.358">  1  5  2 -1</clus>
</clustering>
</event>
<event>
 9    2  0.9254368E-005  0.9986733E+02  0.7546771E-02  0.1286314E+00
         21   -1    0    0  501  502  0.00000000000E+00  0.00000000000E+00  0.41001769132E+03  0.41001769132E+03  0.00000000000E+00 0.  1.
          2   -1    0    0  502    0 -0.00000000000E+00 -0.00000000000E+00 -0.78527627086E+02  0.78527627086E+02  0.00000000000E+00 0. -1.
         24    2    1    2    0    0  0.34778947425E+02  0.11747375753E+02 -0.37748285513E+02  0.96679715642E+02  0.81083033591E+02 0.  0.
         23    2    1    2    0    0 -0.54944029482E+02  0.28295168159E+00  0.29187373361E+03  0.31101609353E+03  0.92313637286E+02 0.  0.
        -13    1    3    3    0    0  0.46098997676E+00  0.28399323221E+02  0.14578177710E+02  0.31925809880E+02  0.00000000000E+00 0.  1.
         14    1    3    3    0    0  0.34317957448E+02 -0.16651947468E+02 -0.52326463224E+02  0.64753905762E+02  0.00000000000E+00 0. -1.
        -13    1    4    4    0    0  0.24930299757E+02 -0.64546427098E+01  0.50614260750E+02  0.56788957112E+02  0.00000000000E+00 0. -1.
         13    1    4    4    0    0 -0.79874329239E+02  0.67375943914E+01  0.24125947286E+03  0.25422713642E+03  0.00000000000E+00 0.  1.
          1    1    1    2  501    0  0.20165082057E+02 -0.12030327435E+02  0.77364616136E+02  0.80849509228E+02  0.00000000000E+00 0. -1.
<scales pt_clust_5="13000.00000" pt_clust_6="13000.00000" pt_clust_7="13000.00000" pt_clust_8="13000.00000" pt_clust_9="23.48104"></scales>
<clustering>
<clus scale="   23.481">  1  9  2 -1</clus>
<clus scale="   81.083">  5  6 -1 -1</clus>
<clus scale="   89.589">  2  5  1 -1</clus>
<clus scale="   92.314">  7  8 -1 -1</clus>
<clus scale="   23.481">  1  5  2 -1</clus>
</clustering>
</event>
<event>
 9    2  0.9254368E-005  0.1141652E+03  0.7546771E-02  0.1261205E+00
         -1   -1    0    0    0  501 -0.00000000000E+00  0.00000000000E+00  0.10745576899E+03  0.10745576899E+03  0.00000000000E+00 0.  1.
         21   -1    0    0  501  502  0.00000000000E+00 -0.00000000000E+00 -0.45336313419E+03  0.45336313419E+03  0.00000000000E+00 0.  1.
         23    2    1    2    0    0  0.22290524557E+02 -0.19136311712E+02 -0.13292446526E+02  0.98080831209E+02  0.92628799005E+02 0.  0.
         24    2    1    2    0    0  0.36333295897E+02 -0.63012054932E+02 -0.34353446933E+03  0.36122776189E+03  0.84728607232E+02 0.  0.
        -13    1    4    4    0    0  0.48738579235E+02 -0.76848795394E+02 -0.25465374673E+03  0.27042506759E+03  0.00000000000E+00 0.  1.
         14    1    4    4    0    0 -0.12405283337E+02  0.13836740462E+02 -0.88880722604E+02  0.90802694299E+02  0.00000000000E+00 0. -1.
        -11    1    3    3    0    0 -0.42303476835E+01 -0.53420889744E+02 -0.38998301782E+01  0.53729842527E+02  0.00000000000E+00 0.  1.
         11    1    3    3    0    0  0.26520872241E+02  0.34284578032E+02 -0.93926163482E+01  0.44350988683E+02  0.00000000000E+00 0. -1.
         -2    1    1    2    0  502 -0.58623820454E+02  0.82148366644E+02  0.10919550658E+02  0.10151031008E+03  0.00000000000E+00 0.  1.
<scales pt_clust_5="13000.00000" pt_clust_6="13000.00000" pt_clust_7="13000.00000" pt_clust_8="13000.00000" pt_clust_9="76.51637"></scales>
<clustering>
<clus scale="   84.729">  5  6 -1 -1</clus>
<clus scale="   92.629">  7  8 -1 -1</clus>
<clus scale="   97.176">  1  7  2 -1</clus>
<clus scale="   76.516">  2  9  1 -1</clus>
<clus scale="   76.516">  2  5  1 -1</clus>
</clustering>
</event>
<event>
 9    2  0.9254368E-005  0.1253924E+03  0.7546771E-02  0.1245367E+00
          2   -1    0    0  502    0 -0.00000000000E+00  0.00000000000E+00  0.35482784484E+03  0.35482784484E+03  0.00000000000E+00 0. -1.
         21   -1    0    0  501  502  0.00000000000E+00 -0.00000000000E+00 -0.56898188572E+02  0.56898188572E+02  0.00000000000E+00 0.  1.
         23    2    1    2    0    0  0.23887648834E+02  0.55202996108E+02  0.23336768962E+03  0.26469028321E+03  0.10946450074E+03 0.  0.
         24    2    1    2    0    0 -0.48582674627E+02 -0.46207809634E+02  0.41674701905E+02  0.11218485974E+03  0.79707114049E+02 0.  0.
        -13    1    4    4    0    0 -0.95843816609E+01 -0.29222837225E+02 -0.20421216911E+02  0.36916943094E+02  0.00000000000E+00 0.  1.
         14    1    4    4    0    0 -0.38998292966E+02 -0.16984972408E+02  0.62095918816E+02  0.75267916642E+02  0.00000000000E+00 0. -1.
        -13    1    3    3    0    0  0.63254015361E+02  0.53829794420E+02  0.13222456798E+03  0.15614753793E+03  0.00000000000E+00 0. -1.
         13    1    3    3    0    0 -0.39366366527E+02  0.13732016881E+01  0.10114312165E+03  0.10854274528E+03  0.00000000000E+00 0.  1.
          1    1    1    2  501    0  0.24695025793E+02 -0.89951864743E+01  0.22887264738E+02  0.34850890459E+02  0.00000000000E+00 0. -1.
<scales pt_clust_5="13000.00000" pt_clust_6="13000.00000" pt_clust_7="13000.00000" pt_clust_8="13000.00000" pt_clust_9="26.28227"></scales>
<clustering>
<clus scale="   26.282">  2  9  1 -1</clus>
<clus scale="   79.707">  5  6 -1 -1</clus>
<clus scale="  100.469">  2  5  1 -1</clus>
<clus scale="  109.465">  7  8 -1 -1</clus>
<clus scale="   26.282">  2  5  1 -1</clus>
</clustering>
</event>
<event>
 9    2  0.9254368E-005  0.9816422E+02  0.7546771E-02  0.1290897E+00
          2   -1    0    0  502    0 -0.00000000000E+00  0.00000000000E+00  0.23570140573E+03  0.23570140573E+03  0.00000000000E+00 0. -1.
         21   -1    0    0  501  502  0.00000000000E+00 -0.00000000000E+00 -0.84019673519E+02  0.84019673519E+02  0.00000000000E+00 0. -1.
         23    2    1    2    0    0 -0.20870657241E+02 -0.14426313343E+02  0.10282851691E+03  0.14020022558E+03  0.91862378114E+02 0.  0.
         24    2    1    2    0    0  0.48031136572E+02  0.42977317667E+02 -0.16169242662E+02  0.10348946854E+03  0.79338425593E+02 0.  0.
        -11    1    4    4    0    0 -0.46130929305E+01  0.41254073536E+02 -0.27260451993E+02  0.49661971896E+02  0.00000000000E+00 0.  1.
         12    1    4    4    0    0  0.52644229503E+02  0.17232441313E+01  0.11091209331E+02  0.53827496642E+02  0.00000000000E+00 0. -1.
        -11    1    3    3    0    0  0.26280000899E+02 -0.12930865430E+02  0.25746525385E+01  0.29401948298E+02  0.00000000000E+00 0.  1.
         11    1    3    3    0    0 -0.47150658140E+02 -0.14954479132E+01  0.10025386437E+03  0.11079827728E+03  0.00000000000E+00 0. -1.
          1    1    1    2  501    0 -0.27160479332E+02 -0.28551004324E+02  0.65022457961E+02  0.76031385130E+02  0.00000000000E+00 0. -1.
<scales pt_clust_5="13000.00000" pt_clust_6="13000.00000" pt_clust_7="13000.00000" pt_clust_8="13000.00000" pt_clust_9="39.40626"></scales>
<clustering>
<clus scale="   39.406">  2  9  1 -1</clus>
<clus scale="   79.338">  5  6 -1 -1</clus>
<clus scale="   86.557">  2  5  1 -1</clus>
<clus scale="   91.862">  7  8 -1 -1</clus>
<clus scale="   39.406">  2  5  1 -1</clus>
</clustering>
</event>
<event>
 9    2  0.9254368E-005  0.8540250E+02  0.7546771E-02  0.1318597E+00
         21   -1    0    0  501  502  0.00000000000E+00  0.00000000000E+00  0.26102987272E+03  0.26102987272E+03  0.00000000000E+00 0.  1.
          2   -1    0    0  502    0 -0.00000000000E+00 -0.00000000000E+00 -0.54835605373E+02  0.54835605373E+02  0.00000000000E+00 0. -1.
         23    2    1    2    0    0 -0.14692576653E+02 -0.29430772954E+02  0.12304339686E+02  0.82514220550E+02  0.74666978059E+02 0.  0.
         24    2    1    2    0    0 -0.15892422156E+02  0.82329700270E+01  0.16962702667E+03  0.18892741973E+03  0.81239712423E+02 0.  0.
        -13    1    4    4    0    0 -0.33197054048E+02  0.21689897724E+02  0.16025236708E+03  0.16508578744E+03  0.00000000000E+00 0.  1.
         14    1    4    4    0    0  0.17304631892E+02 -0.13456927697E+02  0.93746595846E+01  0.23841632291E+02  0.00000000000E+00 0. -1.
        -11    1    3    3    0    0 -0.26970127675E+02  0.71030742923E+01 -0.18250325415E+02  0.33330403972E+02  0.00000000000E+00 0.  1.
         11    1    3    3    0    0  0.12277551022E+02 -0.36533847246E+02  0.30554665101E+02  0.49183816578E+02  0.00000000000E+00 0. -1.
          1    1    1    2  501    0  0.30584998808E+02  0.21197802927E+02  0.24262900996E+02  0.44423837810E+02  0.00000000000E+00 0. -1.
<scales pt_clust_5="13000.00000" pt_clust_6="13000.00000" pt_clust_7="13000.00000" pt_clust_8="13000.00000" pt_clust_9="37.21277"></scales>
<clustering>
<clus scale="   37.213">  1  9  2 -1</clus>
<clus scale="   74.667">  7  8 -1 -1</clus>
<clus scale="   79.176">  2  7  1 -1</clus>
<clus scale="   81.240">  5  6 -1 -1</clus>
<clus scale="   37.213">  1  5  2 -1</clus>
</clustering>
</event>
<event>
 9    2  0.9254368E-005  0.1671500E+03  0.7546771E-02  0.1201610E+00
         21   -1    0    0  501  502  0.00000000000E+00  0.00000000000E+00  0.10859894597E+03  0.10859894597E+03  0.00000000000E+00 0. -1.
          2   -1    0    0  502    0 -0.00000000000E+00 -0.00000000000E+00 -0.47243529015E+03  0.47243529015E+03  0.00000000000E+00 0. -1.
         24    2    1    2    0    0 -0.68381115777E+02  0.77736236058E+01 -0.19314031176E+03  0.22020284816E+03  0.80310074676E+02 0.  0.
         23    2    1    2    0    0  0.14879607968E+03  0.86408163805E+02 -0.87531878317E+02  0.21165681899E+03  0.86776351647E+02 0.  0.
        -11    1    3    3    0    0 -0.74392111574E+00  0.22471515004E+02 -0.10879040959E+03  0.11108949376E+03  0.00000000000E+00 0.  1.
         12    1    3    3    0    0 -0.67637194661E+02 -0.14697891398E+02 -0.84349902163E+02  0.10911335440E+03  0.00000000000E+00 0. -1.
        -11    1    4    4    0    0  0.48068710995E+02 -0.45771645179E+01  0.31939674585E+01  0.48391660850E+02  0.00000000000E+00 0.  1.
         11    1    4    4    0    0  0.10072736868E+03  0.90985328323E+02 -0.90725845776E+02  0.16326515814E+03  0.00000000000E+00 0. -1.
          1    1    1    2  501    0 -0.80414963900E+02 -0.94181787411E+02 -0.83164154104E+02  0.14917456897E+03  0.00000000000E+00 0. -1.
<scales pt_clust_5="13000.00000" pt_clust_6="13000.00000" pt_clust_7="13000.00000" pt_clust_8="13000.00000" pt_clust_9="142.86000"></scales>
<clustering>
<clus scale="   80.310">  5  6 -1 -1</clus>
<clus scale="   86.776">  7  8 -1 -1</clus>
<clus scale="  105.764">  2  5  1 -1</clus>
<clus scale="  142.860">  1  9  2 -1</clus>
<clus scale="  142.860">  1  5  2 -1</clus>
</clustering>
</event>
<event>
 9    2  0.9254368E-005  0.1325792E+03  0.7546771E-02  0.1226448E+00
         -1   -1    0    0    0  501 -0.00000000000E+00  0.00000000000E+00  0.10981003220E+03  0.10981003220E+03  0.00000000000E+00 0.  1.
         21   -1    0    0  501  502  0.00000000000E+00 -0.00000000000E+00 -0.23952775380E+03  0.23952775380E+03  0.00000000000E+00 0.  1.
         24    2    1    2    0    0  0.93320071805E+02 -0.28260088857E+01 -0.33377603428E+02  0.12677344162E+03  0.78998854183E+02 0.  0.
         23    2    1    2    0    0 -0.96257951510E+02  0.54750016999E+02 -0.92911992046E+02  0.17044442684E+03  0.90307844526E+02 0.  0.
        -13    1    3    3    0    0  0.69683981362E+02  0.34557912864E+02 -0.25444372282E+02  0.81838393684E+02  0.00000000000E+00 0.  1.
         14    1    3    3    0    0  0.23636090443E+02 -0.37383921750E+02 -0.79332311460E+01  0.44935047938E+02  0.00000000000E+00 0. -1.
        -11    1    4    4    0    0 -0.70723893610E+02  0.13170638715E+02 -0.97797022890E+02  0.12140672361E+03  0.00000000000E+00 0.  1.
         11    1    4    4    0    0 -0.25534057900E+02  0.41579378284E+02  0.48850308432E+01  0.49037703226E+02  0.00000000000E+00 0. -1.
         -2    1    1    2    0  502  0.29378797050E+01 -0.51924008114E+02 -0.34281261238E+01  0.52119917541E+02  0.00000000000E+00 0.  1.
<scales pt_clust_5="13000.00000" pt_clust_6="13000.00000" pt_clust_7="13000.00000" pt_clust_8="13000.00000" pt_clust_9="52.00708"></scales>
<clustering>
<clus scale="   52.007">  2  9  1 -1</clus>
<clus scale="   78.999">  5  6 -1 -1</clus>
<clus scale="   90.308">  7  8 -1 -1</clus>
<clus scale="  125.150">  1  5  2 -1</clus>
<clus scale="   52.007">  2  5  1 -1</clus>
</clustering>
</event>
<event>
 9    2  0.9254368E-005  0.1853538E+03  0.7546771E-02  0.1190902E+00
          2   -1    0    0  502    0 -0.00000000000E+00  0.00000000000E+00  0.52835284879E+03  0.52835284879E+03  0.00000000000E+00 0. -1.
         21   -1    0    0  501  502  0.00000000000E+00 -0.00000000000E+00 -0.14320317925E+03  0.14320317925E+03  0.00000000000E+00 0.  1.
         23    2    1    2    0    0 -0.37294649755E+02 -0.20698244249E+02  0.20590481970E+03  0.22804485731E+03  0.88251651273E+02 0.  0.
         24    2    1    2    0    0 -0.47262343469E+02  0.16259293769E+03 -0.15676793793E+02  0.18801472011E+03  0.80209604270E+02 0.  0.
        -13    1    4    4    0    0 -0.26293831430E+02  0.14987739287E+03 -0.35766893823E+02  0.15631336846E+03  0.00000000000E+00 0.  1.
         14    1    4    4    0    0 -0.20968512039E+02  0.12715544817E+02  0.20090100030E+02  0.31701351649E+02  0.00000000000E+00 0. -1.
        -11    1    3    3    0    0 -0.28406427635E+02 -0.53799608134E+02  0.15655519005E+03  0.16796086002E+03  0.00000000000E+00 0.  1.
         11    1    3    3    0    0 -0.88882221201E+01  0.33101363885E+02  0.49349629652E+02  0.60083997290E+02  0.00000000000E+00 0. -1.
          1    1    1    2  501    0  0.84556993224E+02 -0.14189469344E+03  0.19492164362E+03  0.25549645062E+03  0.00000000000E+00 0. -1.
<scales pt_clust_5="13000.00000" pt_clust_6="13000.00000" pt_clust_7="13000.00000" pt_clust_8="13000.00000" pt_clust_9="167.10018"></scales>
<clustering>
<clus scale="   80.210">  5  6 -1 -1</clus>
<clus scale="   88.252">  7  8 -1 -1</clus>
<clus scale="   98.019">  1  7  2 -1</clus>
<clus scale="  167.100">  2  9  1 -1</clus>
<clus scale="  167.100">  2  5  1 -1</clus>
</clustering>
</event>
<event>
 9    2  0.9254368E-005  0.9370564E+02  0.7546771E-02  0.1304748E+00
         21   -1    0    0  501  502  0.00000000000E+00  0.00000000000E+00  0.31900327527E+03  0.31900327527E+03  0.00000000000E+00 0. -1.
         -1   -1    0    0    0  501 -0.00000000000E+00 -0.00000000000E+00 -0.14529069432E+03  0.14529069432E+03  0.00000000000E+00 0.  1.
         24    2    1    2    0    0 -0.19663388112E+02  0.14891445651E+01 -0.11965293837E+03  0.14229457757E+03  0.74444978081E+02 0.  0.
         23    2    1    2    0    0  0.20837013489E+02  0.23171529692E+02  0.16497635260E+03  0.19125802756E+03  0.91604231730E+02 0.  0.
        -11    1    3    3    0    0  0.52936952704E+00 -0.23709907681E+02 -0.10351145499E+03  0.10619350860E+03  0.00000000000E+00 0.  1.
         12    1    3    3    0    0 -0.20192757639E+02  0.25199052246E+02 -0.16141483380E+02  0.36101068971E+02  0.00000000000E+00 0. -1.
        -13    1    4    4    0    0  0.55427105540E+02  0.56922122027E+01  0.76266268250E+02  0.94451622438E+02  0.00000000000E+00 0. -1.
         13    1    4    4    0    0 -0.34590092051E+02  0.17479317489E+02  0.88710084351E+02  0.96806405127E+02  0.00000000000E+00 0.  1.
         -2    1    1    2    0  502 -0.11736253769E+01 -0.24660674257E+02  0.12838916671E+03  0.13074136446E+03  0.00000000000E+00 0.  1.
<scales pt_clust_5="13000.00000" pt_clust_6="13000.00000" pt_clust_7="13000.00000" pt_clust_8="13000.00000" pt_clust_9="24.68859"></scales>
<clustering>
<clus scale="   24.689">  1  9  2 -1</clus>
<clus scale="   74.445">  5  6 -1 -1</clus>
<clus scale="   77.016">  2  5  1 -1</clus>
<clus scale="   91.604">  7  8 -1 -1</clus>
<clus scale="   24.689">  1  5  2 -1</clus>
</clustering>
</event>
<event>
 9    2  0.9254368E-005  0.1325739E+03  0.7546771E-02  0.1236686E+00
         21   -1    0    0  501  502  0.00000000000E+00  0.00000000000E+00  0.71471219369E+03  0.71471219369E+03  0.00000000000E+00 0.  1.
         -1   -1    0    0    0  501 -0.00000000000E+00 -0.00000000000E+00 -0.65356040052E+02  0.65356040052E+02  0.00000000000E+00 0.  1.
         23    2    1    2    0    0  0.38325437582E+02  0.98089909931E+01  0.11141315895E+03  0.15062803052E+03  0.93331967309E+02 0.  0.
         24    2    1    2    0    0  0.68352403978E+02  0.71996317182E+02  0.45261924182E+03  0.47021579200E+03  0.79894881949E+02 0.  0.
        -11    1    4    4    0    0  0.36225848343E+02  0.75442729327E+02  0.39843265796E+03  0.40712713054E+03  0.00000000000E+00 0.  1.
         12    1    4    4    0    0  0.32126555636E+02 -0.34464121449E+01  0.54186583864E+02  0.63088661458E+02  0.00000000000E+00 0. -1.
        -13    1    3    3    0    0  0.15785285555E+02 -0.41628960609E+02  0.58062999485E+02  0.73167325430E+02  0.00000000000E+00 0.  1.
         13    1    3    3    0    0  0.22540152027E+02  0.51437951602E+02  0.53350159462E+02  0.77460705090E+02  0.00000000000E+00 0. -1.
         -2    1    1    2    0  502 -0.10667784156E+03 -0.81805308175E+02  0.85323752873E+02  0.15922441122E+03  0.00000000000E+00 0.  1.
<scales pt_clust_5="13000.00000" pt_clust_6="13000.00000" pt_clust_7="13000.00000" pt_clust_8="13000.00000" pt_clust_9="105.79536"></scales>
<clustering>
<clus scale="   79.895">  5  6 -1 -1</clus>
<clus scale="   93.332">  7  8 -1 -1</clus>
<clus scale="  101.370">  2  7  1 -1</clus>
<clus scale="  105.795">  1  9  2 -1</clus>
<clus scale="  105.795">  1  5  2 -1</clus>
</clustering>
</event>
<event>
 9    2  0.9254368E-005  0.9389902E+02  0.7546771E-02  0.1299103E+00
         21   -1    0    0  501  502  0.00000000000E+00  0.00000000000E+00  0.24793501435E+02  0.24793501435E+02  0.00000000000E+00 0.  1.
         -1   -1    0    0    0  501 -0.00000000000E+00 -0.00000000000E+00 -0.47279635277E+03  0.47279635277E+03  0.00000000000E+00 0.  1.
         24    2    1    2    0    0  0.91072418419E+01 -0.55307191673E+02 -0.23779590853E+03  0.25747291119E+03  0.81262405687E+02 0.  0.
         23    2    1    2    0    0 -0.30007631720E+02  0.30280731851E+02 -0.16349821030E+03  0.18315330829E+03  0.70683016952E+02 0.  0.
        -13    1    3    3    0    0  0.88705392418E+01 -0.59244334329E+02 -0.24337570924E+03  0.25063980822E+03  0.00000000000E+00 0.  1.
         14    1    3    3    0    0  0.23670260012E+00  0.39371426561E+01  0.55798007022E+01  0.68331029768E+01  0.00000000000E+00 0. -1.
        -11    1    4    4    0    0 -0.38899160254E+01  0.49134490213E+02 -0.84244461475E+02  0.97603580182E+02  0.00000000000E+00 0.  1.
         11    1    4    4    0    0 -0.26117715695E+02 -0.18853758362E+02 -0.79253748820E+02  0.85549728109E+02  0.00000000000E+00 0. -1.
         -2    1    1    2    0  502  0.20900389878E+02  0.25026459822E+02 -0.46708732510E+02  0.56963634724E+02  0.00000000000E+00 0.  1.
<scales pt_clust_5="13000.00000" pt_clust_6="13000.00000" pt_clust_7="13000.00000" pt_clust_8="13000.00000" pt_clust_9="32.60598"></scales>
<clustering>
<clus scale="   32.606">  1  9  2 -1</clus>
<clus scale="   70.683">  7  8 -1 -1</clus>
<clus scale="   81.262">  5  6 -1 -1</clus>
<clus scale="   84.909">  1  7  2 -1</clus>
<clus scale="   32.606">  1  5  2 -1</clus>
</clustering>
</event>
<event>
 9    2  0.9254368E-005  0.9380591E+02  0.7546771E-02  0.1299288E+00
          2   -1    0    0  502    0 -0.00000000000E+00  0.00000000000E+00  0.10144108437E+04  0.10144108437E+04  0.00000000000E+00 0. -1.
         21   -1    0    0  501  502  0.00000000000E+00 -0.00000000000E+00 -0.51812326048E+02  0.51812326048E+02  0.00000000000E+00 0. -1.
         24    2    1    2    0    0 -0.20888132700E+01 -0.15010155204E+02  0.60637940684E+03  0.61198394372E+03  0.81232348420E+02 0.  0.
         23    2    1    2    0    0 -0.47379794329E+02  0.41916552962E+02  0.37804390985E+03  0.39384535852E+03  0.90526937051E+02 0.  0.
        -13    1    3    3    0    0  0.53988471509E+01 -0.21040445576E+02  0.39955522536E+02  0.45478474927E+02  0.00000000000E+00 0.  1.
         14    1    3    3    0    0 -0.74876604209E+01  0.60302903720E+01  0.56642388430E+03  0.56650546879E+03  0.00000000000E+00 0. -1.
        -13    1    4    4    0    0 -0.31885820093E+02 -0.13453595360E+02  0.50049345810E+02  0.60849336620E+02  0.00000000000E+00 0. -1.
         13    1    4    4    0    0 -0.15493974236E+02  0.55370148322E+02  0.32799456404E+03  0.33299602190E+03  0.00000000000E+00 0.  1.
          1    1    1    2  501    0  0.49468607599E+02 -0.26906397758E+02 -0.21824799047E+02  0.60393867499E+02  0.00000000000E+00 0. -1.
<scales pt_clust_5="13000.00000" pt_clust_6="13000.00000" pt_clust_7="13000.00000" pt_clust_8="13000.00000" pt_clust_9="56.31250"></scales>
<clustering>
<clus scale="   56.312">  2  9  1 -1</clus>
<clus scale="   81.232">  5  6 -1 -1</clus>
<clus scale="   84.871">  1  5  2 -1</clus>
<clus scale="   90.527">  7  8 -1 -1</clus>
<clus scale="   56.312">  2  5  1 -1</clus>
</clustering>
</event>
<event>
 9    2  0.9254368E-005  0.8241276E+02  0.7546771E-02  0.1340065E+00
         21   -1    0    0  501  502  0.00000000000E+00  0.00000000000E+00  0.48722635254E+02  0.48722635254E+02  0.00000000000E+00 0. -1.
         -1   -1    0    0    0  501 -0.00000000000E+00 -0.00000000000E+00 -0.35619611147E+03  0.35619611147E+03  0.00000000000E+00 0.  1.
         24    2    1    2    0    0  0.14289920642E+01  0.97781622448E+01 -0.26588132171E+03  0.27826694753E+03  0.81498235431E+02 0.  0.
         23    2    1    2    0    0  0.34769479104E+02 -0.21571649093E+02 -0.22859647636E+01  0.71930759372E+02  0.59114767928E+02 0.  0.
        -11    1    3    3    0    0  0.16669667936E+02  0.42437296243E+02 -0.13369931641E+03  0.14125972232E+03  0.00000000000E+00 0.  1.
         12    1    3    3    0    0 -0.15240675872E+02 -0.32659133999E+02 -0.13218200531E+03  0.13700722522E+03  0.00000000000E+00 0. -1.
        -13    1    4    4    0    0  0.20483159212E+01 -0.35763435191E+02 -0.49628712462E+01  0.36164194804E+02  0.00000000000E+00 0.  1.
         13    1    4    4    0    0  0.32721163183E+02  0.14191786099E+02  0.26769064826E+01  0.35766564568E+02  0.00000000000E+00 0. -1.
         -2    1    1    2    0  502 -0.36198471168E+02  0.11793486848E+02 -0.39306189740E+02  0.54721039819E+02  0.00000000000E+00 0.  1.
<scales pt_clust_5="13000.00000" pt_clust_6="13000.00000" pt_clust_7="13000.00000" pt_clust_8="13000.00000" pt_clust_9="38.07119"></scales>
<clustering>
<clus scale="   38.071">  1  9  2 -1</clus>
<clus scale="   59.115">  7  8 -1 -1</clus>
<clus scale="   60.369">  1  7  2 -1</clus>
<clus scale="   81.498">  5  6 -1 -1</clus>
<clus scale="   38.071">  1  5  2 -1</clus>
</clustering>
</event>
<event>
 9    2  0.9254368E-005  0.2603307E+03  0.7546771E-02  0.1128896E+00
          4   -1    0    0  502    0 -0.00000000000E+00  0.00000000000E+00  0.29566187735E+03  0.29566187735E+03  0.00000000000E+00 0. -1.
         21   -1    0    0  501  502  0.00000000000E+00 -0.00000000000E+00 -0.18576154477E+04  0.18576154477E+04  0.00000000000E+00 0. -1.
         24    2    1    2    0    0 -0.11831881548E+03 -0.27385650582E+02 -0.49053432075E+03  0.51296408515E+03  0.88084714138E+02 0.  0.
         23    2    1    2    0    0  0.33925918284E+03 -0.66848286350E+02  0.15578860252E+03  0.38981982005E+03  0.90132773734E+02 0.  0.
        -13    1    3    3    0    0 -0.12797163473E+02  0.22866206402E+02 -0.42436144378E+02  0.49874413659E+02  0.00000000000E+00 0.  1.
         14    1    3    3    0    0 -0.10552165201E+03 -0.50251856984E+02 -0.44809817638E+03  0.46308967150E+03  0.00000000000E+00 0. -1.
        -13    1    4    4    0    0  0.42571786920E+02  0.68770185128E+01 -0.66497948027E+01  0.43633361045E+02  0.00000000000E+00 0.  1.
         13    1    4    4    0    0  0.29668739592E+03 -0.73725304863E+02  0.16243839732E+03  0.34618645901E+03  0.00000000000E+00 0. -1.
          3    1    1    2  501    0 -0.22094036736E+03  0.94233936932E+02 -0.12272078521E+04  0.12504934198E+04  0.00000000000E+00 0. -1.
<scales pt_clust_5="13000.00000" pt_clust_6="13000.00000" pt_clust_7="13000.00000" pt_clust_8="13000.00000" pt_clust_9="244.22968"></scales>
<clustering>
<clus scale="   88.085">  5  6 -1 -1</clus>
<clus scale="   90.133">  7  8 -1 -1</clus>
<clus scale="  150.028">  1  5  2 -1</clus>
<clus scale="  244.230">  2  9  1 -1</clus>
<clus scale="  244.230">  2  5  1 -1</clus>
</clustering>
</event>
<event>
 9    2  0.9254368E-005  0.1468439E+03  0.7546771E-02  0.1207323E+00
         21   -1    0    0  501  502  0.00000000000E+00  0.00000000000E+00  0.17304140179E+03  0.17304140179E+03  0.00000000000E+00 0. -1.
          4   -1    0    0  502    0 -0.00000000000E+00 -0.00000000000E+00 -0.21135925424E+03  0.21135925424E+03  0.00000000000E+00 0. -1.
         24    2    1    2    0    0 -0.50164451493E+02 -0.10854160258E+03 -0.82439575725E+02  0.16601713967E+03  0.80421734219E+02 0.  0.
         23    2    1    2    0    0  0.56705020434E+02  0.85339471053E+02 -0.27902662719E+02  0.14243201784E+03  0.94921211839E+02 0.  0.
        -13    1    3    3    0    0  0.28741572556E+01 -0.86437063879E+02 -0.53304712811E+02  0.10159241704E+03  0.00000000000E+00 0.  1.
         14    1    3    3    0    0 -0.53038608748E+02 -0.22104538698E+02 -0.29134862914E+02  0.64424722631E+02  0.00000000000E+00 0. -1.
        -11    1    4    4    0    0 -0.58091073287E+01  0.58301984021E+02 -0.42989950101E+02  0.72670509001E+02  0.00000000000E+00 0. -1.
         11    1    4    4    0    0  0.62514127762E+02  0.27037487032E+02  0.15087287382E+02  0.69761508839E+02  0.00000000000E+00 0.  1.
          3    1    1    2  501    0 -0.65405689412E+01  0.23202131525E+02  0.72024385998E+02  0.75951498522E+02  0.00000000000E+00 0. -1.
<scales pt_clust_5="13000.00000" pt_clust_6="13000.00000" pt_clust_7="13000.00000" pt_clust_8="13000.00000" pt_clust_9="24.10639"></scales>
<clustering>
<clus scale="   24.106">  1  9  2 -1</clus>
<clus scale="   80.422">  5  6 -1 -1</clus>
<clus scale="   94.921">  7  8 -1 -1</clus>
<clus scale="  137.916">  2  5  1 -1</clus>
<clus scale="   24.106">  1  5  2 -1</clus>
</clustering>
</event>
<event>
 9    2  0.9254368E-005  0.2009104E+03  0.7546771E-02  0.1176719E+00
          2   -1    0    0  502    0 -0.00000000000E+00  0.00000000000E+00  0.80388279740E+03  0.80388279740E+03  0.00000000000E+00 0. -1.
         21   -1    0    0  501  502  0.00000000000E+00 -0.00000000000E+00 -0.11154679807E+03  0.11154679807E+03  0.00000000000E+00 0. -1.
         23    2    1    2    0    0 -0.42486165182E+02  0.31372712199E+02  0.52309859257E+02  0.11788915536E+03  0.91499782915E+02 0.  0.
         24    2    1    2    0    0  0.21541953551E+03 -0.55622798496E+02  0.55474764923E+03  0.60320454981E+03  0.81309916945E+02 0.  0.
        -11    1    4    4    0    0  0.18134602292E+02 -0.20597059469E+02  0.13910511738E+03  0.14178623466E+03  0.00000000000E+00 0.  1.
         12    1    4    4    0    0  0.19728493322E+03 -0.35025739027E+02  0.41564253186E+03  0.46141831515E+03  0.00000000000E+00 0. -1.
        -13    1    3    3    0    0 -0.72054811146E+00  0.54433256327E+02  0.12747436911E+02  0.55910604824E+02  0.00000000000E+00 0. -1.
         13    1    3    3    0    0 -0.41765617070E+02 -0.23060544129E+02  0.39562422346E+02  0.61978550537E+02  0.00000000000E+00 0.  1.
          1    1    1    2  501    0 -0.17293337033E+03  0.24250086297E+02  0.85278490832E+02  0.19433589030E+03  0.00000000000E+00 0. -1.
<scales pt_clust_5="13000.00000" pt_clust_6="13000.00000" pt_clust_7="13000.00000" pt_clust_8="13000.00000" pt_clust_9="183.72171"></scales>
<clustering>
<clus scale="   81.310">  5  6 -1 -1</clus>
<clus scale="   91.500">  7  8 -1 -1</clus>
<clus scale="  105.648">  1  7  2 -1</clus>
<clus scale="  183.722">  2  9  1 -1</clus>
<clus scale="  183.722">  2  5  1 -1</clus>
</clustering>
</event>
<event>
 9    2  0.9254368E-005  0.1536706E+03  0.7546771E-02  0.1197915E+00
         21   -1    0    0  501  502  0.00000000000E+00  0.00000000000E+00  0.34131018763E+03  0.34131018763E+03  0.00000000000E+00 0. -1.
          2   -1    0    0  502    0 -0.00000000000E+00 -0.00000000000E+00 -0.98861245593E+02  0.98861245593E+02  0.00000000000E+00 0. -1.
         24    2    1    2    0    0  0.13851481343E+03 -0.42193754337E+02  0.61416412199E+02  0.17624023884E+03  0.79510877588E+02 0.  0.
         23    2    1    2    0    0 -0.10182933466E+03  0.64372057176E+01  0.10433680946E+03  0.17170002478E+03  0.90465892397E+02 0.  0.
        -11    1    3    3    0    0  0.11869821940E+03 -0.34830450990E+01  0.29676870068E+02  0.12240145223E+03  0.00000000000E+00 0.  1.
         12    1    3    3    0    0  0.19816594029E+02 -0.38710709238E+02  0.31739542131E+02  0.53838786607E+02  0.00000000000E+00 0. -1.
        -11    1    4    4    0    0 -0.73874028052E+02 -0.13593358476E+02  0.15854415226E+02  0.76769224937E+02  0.00000000000E+00 0.  1.
         11    1    4    4    0    0 -0.27955306607E+02  0.20030564193E+02  0.88482394239E+02  0.94930799847E+02  0.00000000000E+00 0. -1.
          1    1    1    2  501    0 -0.36685478771E+02  0.35756548619E+02  0.76695720369E+02  0.92231169594E+02  0.00000000000E+00 0. -1.
<scales pt_clust_5="13000.00000" pt_clust_6="13000.00000" pt_clust_7="13000.00000" pt_clust_8="13000.00000" pt_clust_9="51.22846"></scales>
<clustering>
<clus scale="   51.228">  1  9  2 -1</clus>
<clus scale="   79.511">  5  6 -1 -1</clus>
<clus scale="   90.466">  7  8 -1 -1</clus>
<clus scale="  147.487">  2  5  1 -1</clus>
<clus scale="   51.228">  1  5  2 -1</clus>
</clustering>
</event>
<event>
 9    2  0.9254368E-005  0.2262262E+03  0.7546771E-02  0.1130046E+00
         21   -1    0    0  501  502  0.00000000000E+00  0.00000000000E+00  0.14714332752E+03  0.14714332752E+03  0.00000000000E+00 0. -1.
          2   -1    0    0  502    0 -0.00000000000E+00 -0.00000000000E+00 -0.75907042366E+03  0.75907042366E+03  0.00000000000E+00 0. -1.
         23    2    1    2    0    0 -0.15356137262E+03  0.17980919156E+03 -0.35366453246E+03  0.43474250183E+03  0.89498608104E+02 0.  0.
         24    2    1    2    0    0 -0.54443171359E+01 -0.18669606794E+03 -0.49062480162E+02  0.20861213615E+03  0.78910290944E+02 0.  0.
        -13    1    4    4    0    0 -0.22832967158E+02 -0.12453038711E+02 -0.15621671180E+02  0.30339070071E+02  0.00000000000E+00 0.  1.
         14    1    4    4    0    0  0.17388650022E+02 -0.17424302922E+03 -0.33440808983E+02  0.17827306608E+03  0.00000000000E+00 0. -1.
        -13    1    3    3    0    0 -0.29856806807E+02 -0.45549356701E+01 -0.52796128004E+02  0.60824398755E+02  0.00000000000E+00 0.  1.
         13    1    3    3    0    0 -0.12370456581E+03  0.18436412723E+03 -0.30086840445E+03  0.37391810308E+03  0.00000000000E+00 0. -1.
          1    1    1    2  501    0  0.15900568976E+03  0.68868763729E+01 -0.20920008353E+03  0.26285911319E+03  0.00000000000E+00 0. -1.
<scales pt_clust_5="13000.00000" pt_clust_6="13000.00000" pt_clust_7="13000.00000" pt_clust_8="13000.00000" pt_clust_9="159.15484"></scales>
<clustering>
<clus scale="   78.910">  5  6 -1 -1</clus>
<clus scale="   89.499">  7  8 -1 -1</clus>
<clus scale="  159.155">  1  9  2 -1</clus>
<clus scale="  222.250">  1  5  2 -1</clus>
<clus scale="  159.155">  1  5  2 -1</clus>
</clustering>
</event>
<event>
 9    2  0.9254368E-005  0.9768421E+02  0.7546771E-02  0.1291071E+00
          2   -1    0    0  502    0 -0.00000000000E+00  0.00000000000E+00  0.20616635334E+03  0.20616635334E+03  0.00000000000E+00 0. -1.
         21   -1    0    0  501  502  0.00000000000E+00 -0.00000000000E+00 -0.51925731480E+03  0.51925731480E+03  0.00000000000E+00 0. -1.
         24    2    1    2    0    0  0.36972358090E+01 -0.34102651309E+02  0.17538123569E+03  0.19572056337E+03  0.79820427915E+02 0.  0.
         23    2    1    2    0    0  0.38451810330E+02  0.90091859640E+02 -0.29189038307E+03  0.32100297740E+03  0.90817569218E+02 0.  0.
        -13    1    3    3    0    0  0.37139715946E+02 -0.14447883161E+02  0.13024873050E+03  0.13620877955E+03  0.00000000000E+00 0.  1.
         14    1    3    3    0    0 -0.33442480137E+02 -0.19654768148E+02  0.45132505195E+02  0.59511783823E+02  0.00000000000E+00 0. -1.
        -11    1    4    4    0    0  0.30900176211E+02  0.73290039892E+01 -0.22068529570E+02  0.38672408598E+02  0.00000000000E+00 0.  1.
         11    1    4    4    0    0  0.75516341194E+01  0.82762855651E+02 -0.26982185350E+03  0.28233056880E+03  0.00000000000E+00 0. -1.
          1    1    1    2  501    0 -0.42149046139E+02 -0.55989208331E+02 -0.19658181409E+03  0.20870012738E+03  0.00000000000E+00 0. -1.
<scales pt_clust_5="13000.00000" pt_clust_6="13000.00000" pt_clust_7="13000.00000" pt_clust_8="13000.00000" pt_clust_9="70.08091"></scales>
<clustering>
<clus scale="   70.081">  2  9  1 -1</clus>
<clus scale="   79.820">  5  6 -1 -1</clus>
<clus scale="   87.554">  1  5  2 -1</clus>
<clus scale="   90.818">  7  8 -1 -1</clus>
<clus scale="   70.081">  2  5  1 -1</clus>
</clustering>
</event>
<event>
 9    2  0.9254368E-005  0.1098575E+03  0.7546771E-02  0.1266109E+00
          4   -1    0    0  502    0 -0.00000000000E+00  0.00000000000E+00  0.16171388695E+03  0.16171388695E+03  0.00000000000E+00 0. -1.
         21   -1    0    0  501  502  0.00000000000E+00 -0.00000000000E+00 -0.18756729348E+03  0.18756729348E+03  0.00000000000E+00 0. -1.
         24    2    1    2    0    0  0.36949327432E+02 -0.26726347101E+02  0.31859007390E+02  0.97663774638E+02  0.80272449182E+02 0.  0.
         23    2    1    2    0    0 -0.61065844700E+02  0.94908226200E+02 -0.90614860140E+02  0.17216335612E+03  0.93233896855E+02 0.  0.
        -13    1    3    3    0    0  0.25296499763E+02 -0.46524856110E+02 -0.60863697028E+01  0.53305900541E+02  0.00000000000E+00 0.  1.
         14    1    3    3    0    0  0.11652827669E+02  0.19798509009E+02  0.37945377093E+02  0.44357874097E+02  0.00000000000E+00 0. -1.
        -11    1    4    4    0    0 -0.33275219648E+02 -0.10668094477E+02 -0.35707292427E+02  0.49960576607E+02  0.00000000000E+00 0.  1.
         11    1    4    4    0    0 -0.27790625053E+02  0.10557632068E+03 -0.54907567713E+02  0.12220277951E+03  0.00000000000E+00 0. -1.
          3    1    1    2  501    0  0.24116517268E+02 -0.68181879099E+02  0.32902446216E+02  0.79454049674E+02  0.00000000000E+00 0. -1.
<scales pt_clust_5="13000.00000" pt_clust_6="13000.00000" pt_clust_7="13000.00000" pt_clust_8="13000.00000" pt_clust_9="72.32137"></scales>
<clustering>
<clus scale="   72.321">  2  9  1 -1</clus>
<clus scale="   80.272">  5  6 -1 -1</clus>
<clus scale="   93.234">  7  8 -1 -1</clus>
<clus scale="   99.095">  1  5  2 -1</clus>
<clus scale="   72.321">  2  5  1 -1</clus>
</clustering>
</event>
<event>
 9    2  0.9254368E-005  0.1221193E+03  0.7546771E-02  0.1244076E+00
         -1   -1    0    0    0  501 -0.00000000000E+00  0.00000000000E+00  0.20912835228E+03  0.20912835228E+03  0.00000000000E+00 0.  1.
         21   -1    0    0  501  502  0.00000000000E+00 -0.00000000000E+00 -0.97761599556E+02  0.97761599556E+02  0.00000000000E+00 0.  1.
         24    2    1    2    0    0 -0.89518531037E+02 -0.21442893724E+02  0.63382759872E+02  0.13641989554E+03  0.78228182639E+02 0.  0.
         23    2    1    2    0    0  0.65183695951E+02 -0.14158756970E+02  0.12815464886E+02  0.11482396848E+03  0.92579279429E+02 0.  0.
        -11    1    3    3    0    0 -0.65453330726E+02 -0.38020767633E+02  0.11072294562E+02  0.76500411642E+02  0.00000000000E+00 0.  1.
         12    1    3    3    0    0 -0.24065200311E+02  0.16577873909E+02  0.52310465310E+02  0.59919483895E+02  0.00000000000E+00 0. -1.
        -13    1    4    4    0    0  0.57952132178E+02  0.28076566270E+02 -0.11710719060E+02  0.65451387597E+02  0.00000000000E+00 0.  1.
         13    1    4    4    0    0  0.72315637735E+01 -0.42235323239E+02  0.24526183946E+02  0.49372580879E+02  0.00000000000E+00 0. -1.
         -2    1    1    2    0  502  0.24334835086E+02  0.35601650693E+02  0.35168527966E+02  0.55646087823E+02  0.00000000000E+00 0.  1.
<scales pt_clust_5="13000.00000" pt_clust_6="13000.00000" pt_clust_7="13000.00000" pt_clust_8="13000.00000" pt_clust_9="43.12382"></scales>
<clustering>
<clus scale="   43.124">  2  9  1 -1</clus>
<clus scale="   78.228">  5  6 -1 -1</clus>
<clus scale="   92.579">  7  8 -1 -1</clus>
<clus scale="  111.633">  1  5  2 -1</clus>
<clus scale="   43.124">  2  5  1 -1</clus>
</clustering>
</event>
<event>
 9    2  0.9254368E-005  0.1417803E+03  0.7546771E-02  0.1213033E+00
         -1   -1    0    0    0  501 -0.00000000000E+00  0.00000000000E+00  0.36808486958E+03  0.36808486958E+03  0.00000000000E+00 0.  1.
         21   -1    0    0  501  502  0.00000000000E+00 -0.00000000000E+00 -0.86180852048E+02  0.86180852048E+02  0.00000000000E+00 0.  1.
         23    2    1    2    0    0  0.18121648256E+02 -0.12347133935E+03  0.22400954744E+03  0.27196678546E+03  0.90620578634E+02 0.  0.
         24    2    1    2    0    0 -0.20787896661E+02  0.85105499865E+02  0.74424141149E+02  0.14043873377E+03  0.80678388693E+02 0.  0.
        -13    1    4    4    0    0  0.17460174435E+02  0.23015144963E+02 -0.83997979235E+01  0.30085065965E+02  0.00000000000E+00 0.  1.
         14    1    4    4    0    0 -0.38248071095E+02  0.62090354902E+02  0.82823939072E+02  0.11035366780E+03  0.00000000000E+00 0. -1.
        -11    1    3    3    0    0 -0.50613772668E+01 -0.53272755214E+02  0.23841919403E+02  0.58583624920E+02  0.00000000000E+00 0. -1.
         11    1    3    3    0    0  0.23183025523E+02 -0.70198584132E+02  0.20016762804E+03  0.21338316054E+03  0.00000000000E+00 0.  1.
         -2    1    1    2    0  502  0.26662484043E+01  0.38365839481E+02 -0.16529671060E+02  0.41860202400E+02  0.00000000000E+00 0.  1.
<scales pt_clust_5="13000.00000" pt_clust_6="13000.00000" pt_clust_7="13000.00000" pt_clust_8="13000.00000" pt_clust_9="38.45837"></scales>
<clustering>
<clus scale="   38.458">  2  9  1 -1</clus>
<clus scale="   80.678">  5  6 -1 -1</clus>
<clus scale="   90.621">  7  8 -1 -1</clus>
<clus scale="  135.641">  2  5  1 -1</clus>
<clus scale="   38.458">  2  5  1 -1</clus>
</clustering>
</event>
<event>
 9    2  0.9254368E-005  0.2289107E+03  0.7546771E-02  0.1171045E+00
          2   -1    0    0  502    0 -0.00000000000E+00  0.00000000000E+00  0.52895124767E+03  0.52895124767E+03  0.00000000000E+00 0. -1.
         21   -1    0    0  501  502  0.00000000000E+00 -0.00000000000E+00 -0.14657716195E+03  0.14657716195E+03  0.00000000000E+00 0. -1.
         24    2    1    2    0    0 -0.16989949350E+02  0.34781906966E+01  0.15776522618E+03  0.17746089394E+03  0.79383537948E+02 0.  0.
         23    2    1    2    0    0 -0.15741067740E+03  0.12780837911E+03  0.81891744147E+02  0.23726123307E+03  0.92051788837E+02 0.  0.
        -11    1    3    3    0    0 -0.13027122623E+02 -0.21007203178E+02  0.84854920221E+01  0.26134499881E+02  0.00000000000E+00 0.  1.
         12    1    3    3    0    0 -0.39628267270E+01  0.24485393874E+02  0.14927973416E+03  0.15132639406E+03  0.00000000000E+00 0. -1.
        -11    1    4    4    0    0 -0.80192393362E+02  0.66315123775E+02  0.90856655984E+02  0.13814285190E+03  0.00000000000E+00 0. -1.
         11    1    4    4    0    0 -0.77218284040E+02  0.61493255336E+02 -0.89649118366E+01  0.99118381172E+02  0.00000000000E+00 0.  1.
          1    1    1    2  501    0  0.17440062675E+03 -0.13128656981E+03  0.14271711538E+03  0.26080628261E+03  0.00000000000E+00 0. -1.
<scales pt_clust_5="13000.00000" pt_clust_6="13000.00000" pt_clust_7="13000.00000" pt_clust_8="13000.00000" pt_clust_9="209.58678"></scales>
<clustering>
<clus scale="   79.384">  5  6 -1 -1</clus>
<clus scale="   81.256">  1  5  2 -1</clus>
<clus scale="   92.052">  7  8 -1 -1</clus>
<clus scale="  209.587">  2  9  1 -1</clus>
<clus scale="  209.587">  2  5  1 -1</clus>
</clustering>
</event>
<event>
 9    2  0.9254368E-005  0.2367768E+03  0.7546771E-02  0.1152922E+00
         21   -1    0    0  501  502  0.00000000000E+00  0.00000000000E+00  0.19110599427E+03  0.19110599427E+03  0.00000000000E+00 0. -1.
         -3   -1    0    0    0  501 -0.00000000000E+00 -0.00000000000E+00 -0.44635036988E+03  0.44635036988E+03  0.00000000000E+00 0.  1.
         23    2    1    2    0    0  0.64623210505E+02 -0.11176449667E+02 -0.91426874998E+01  0.11217015445E+03  0.90539949483E+02 0.  0.
         24    2    1    2    0    0 -0.24140443370E+03  0.78697061265E+02 -0.95507279263E+02  0.28344057744E+03  0.82143730651E+02 0.  0.
        -11    1    4    4    0    0 -0.18409674618E+03  0.20605155553E+02 -0.67772391415E+02  0.19725435719E+03  0.00000000000E+00 0.  1.
         12    1    4    4    0    0 -0.57307687518E+02  0.58091905712E+02 -0.27734887848E+02  0.86186220255E+02  0.00000000000E+00 0. -1.
        -13    1    3    3    0    0  0.59793077290E+02  0.31750693807E+02  0.13593378939E+01  0.67713857138E+02  0.00000000000E+00 0.  1.
         13    1    3    3    0    0  0.48301332145E+01 -0.42927143473E+02 -0.10502025394E+02  0.44456297316E+02  0.00000000000E+00 0. -1.
         -4    1    1    2    0  502  0.17678122320E+03 -0.67520611598E+02 -0.15059440885E+03  0.24184563226E+03  0.00000000000E+00 0.  1.
<scales pt_clust_5="13000.00000" pt_clust_6="13000.00000" pt_clust_7="13000.00000" pt_clust_8="13000.00000" pt_clust_9="222.07144"></scales>
<clustering>
<clus scale="   82.144">  5  6 -1 -1</clus>
<clus scale="   90.540">  7  8 -1 -1</clus>
<clus scale="  111.797">  2  7  1 -1</clus>
<clus scale="  222.071">  1  9  2 -1</clus>
<clus scale="  222.071">  1  5  2 -1</clus>
</clustering>
</event>
<event>
 9    2  0.9254368E-005  0.3148730E+03  0.7546771E-02  0.1078033E+00
         -1   -1    0    0    0  501 -0.00000000000E+00  0.00000000000E+00  0.19628690948E+03  0.19628690948E+03  0.00000000000E+00 0.  1.
         21   -1    0    0  501  502  0.00000000000E+00 -0.00000000000E+00 -0.39489607179E+03  0.39489607179E+03  0.00000000000E+00 0.  1.
         24    2    1    2    0    0 -0.69100857920E+02 -0.68315090677E+02 -0.10803928763E+03  0.16641645914E+03  0.81117630771E+02 0.  0.
         23    2    1    2    0    0 -0.11919625873E+03 -0.83057718332E+02 -0.14742594504E+02  0.17154861624E+03  0.90029167345E+02 0.  0.
        -11    1    3    3    0    0 -0.57350863155E+02 -0.98853514321E+00 -0.39638042854E+02  0.69722830892E+02  0.00000000000E+00 0.  1.
         12    1    3    3    0    0 -0.11749994765E+02 -0.67326555533E+02 -0.68401244772E+02  0.96693628246E+02  0.00000000000E+00 0. -1.
        -13    1    4    4    0    0 -0.37685092536E+02  0.83307392958E+01  0.21056596015E+02  0.43965300549E+02  0.00000000000E+00 0. -1.
         13    1    4    4    0    0 -0.81511166191E+02 -0.91388457627E+02 -0.35799190519E+02  0.12758331569E+03  0.00000000000E+00 0.  1.
         -2    1    1    2    0  502  0.18829711665E+03  0.15137280901E+03 -0.75827280185E+02  0.25321790589E+03  0.00000000000E+00 0.  1.
<scales pt_clust_5="13000.00000" pt_clust_6="13000.00000" pt_clust_7="13000.00000" pt_clust_8="13000.00000" pt_clust_9="241.59799"></scales>
<clustering>
<clus scale="   81.118">  5  6 -1 -1</clus>
<clus scale="   90.029">  7  8 -1 -1</clus>
<clus scale="  125.074">  5  7 -1 -1</clus>
<clus scale="  241.598">  2  9  1 -1</clus>
<clus scale="  241.598">  2  5  1 -1</clus>
</clustering>
</event>
<event>
 9    2  0.9254368E-005  0.1614669E+03  0.7546771E-02  0.1189945E+00
         21   -1    0    0  501  502  0.00000000000E+00  0.00000000000E+00  0.45381859694E+03  0.45381859694E+03  0.00000000000E+00 0. -1.
         -3   -1    0    0    0  501 -0.00000000000E+00 -0.00000000000E+00 -0.18569862880E+03  0.18569862880E+03  0.00000000000E+00 0.  1.
         24    2    1    2    0    0 -0.41962665495E+02 -0.12170033538E+03 -0.12918359966E+03  0.19931107010E+03  0.80403130020E+02 0.  0.
         23    2    1    2    0    0  0.18520749922E+02  0.12528899172E+03  0.30009262152E+03  0.34014432507E+03  0.97990972868E+02 0.  0.
        -13    1    3    3    0    0 -0.60694896265E+02 -0.95320525534E+02 -0.12175535998E+03  0.16611514291E+03  0.00000000000E+00 0.  1.
         14    1    3    3    0    0  0.18732230770E+02 -0.26379809850E+02 -0.74282396763E+01  0.33195927190E+02  0.00000000000E+00 0. -1.
        -13    1    4    4    0    0 -0.27455131706E+02  0.63066563829E+02  0.21211441079E+03  0.22298811402E+03  0.00000000000E+00 0. -1.
         13    1    4    4    0    0  0.45975881628E+02  0.62222427895E+02  0.87978210731E+02  0.11715621105E+03  0.00000000000E+00 0.  1.
         -4    1    1    2    0  502  0.23441915573E+02 -0.35886563396E+01  0.97210946277E+02  0.10006183057E+03  0.00000000000E+00 0.  1.
<scales pt_clust_5="13000.00000" pt_clust_6="13000.00000" pt_clust_7="13000.00000" pt_clust_8="13000.00000" pt_clust_9="23.71501"></scales>
<clustering>
<clus scale="   23.715">  1  9  2 -1</clus>
<clus scale="   80.403">  5  6 -1 -1</clus>
<clus scale="   97.991">  7  8 -1 -1</clus>
<clus scale="  151.440">  2  5  1 -1</clus>
<clus scale="   23.715">  1  5  2 -1</clus>
</clustering>
</event>
<event>
 9    2  0.9254368E-005  0.1029357E+03  0.7546771E-02  0.1278548E+00
         21   -1    0    0  501  502  0.00000000000E+00  0.00000000000E+00  0.36129988494E+02  0.36129988494E+02  0.00000000000E+00 0.  1.
         -1   -1    0    0    0  501 -0.00000000000E+00 -0.00000000000E+00 -0.63750689564E+03  0.63750689564E+03  0.00000000000E+00 0.  1.
         23    2    1    2    0    0 -0.49505328422E+02  0.12834608535E+02 -0.50531879486E+03  0.51606411120E+03  0.91430726291E+02 0.  0.
         24    2    1    2    0    0  0.27620933876E+02 -0.26688430519E+02 -0.95454101958E+02  0.13166486030E+03  0.82152063549E+02 0.  0.
        -11    1    4    4    0    0 -0.23190403723E+02 -0.21838816161E+02 -0.12406434017E+02  0.34185498697E+02  0.00000000000E+00 0.  1.
         12    1    4    4    0    0  0.50811337599E+02 -0.48496143580E+01 -0.83047667941E+02  0.97479361602E+02  0.00000000000E+00 0. -1.
        -11    1    3    3    0    0  0.21500482970E+01 -0.34194080461E+02 -0.14048128671E+03  0.14459892726E+03  0.00000000000E+00 0.  1.
         11    1    3    3    0    0 -0.51655376719E+02  0.47028688996E+02 -0.36483750815E+03  0.37146518395E+03  0.00000000000E+00 0. -1.
         -2    1    1    2    0  502  0.21884394546E+02  0.13853821984E+02 -0.60401032001E+00  0.25907912627E+02  0.00000000000E+00 0.  1.
<scales pt_clust_5="13000.00000" pt_clust_6="13000.00000" pt_clust_7="13000.00000" pt_clust_8="13000.00000" pt_clust_9="25.90087"></scales>
<clustering>
<clus scale="   25.901">  1  9  2 -1</clus>
<clus scale="   82.152">  5  6 -1 -1</clus>
<clus scale="   91.431">  7  8 -1 -1</clus>
<clus scale="   94.790">  1  5  2 -1</clus>
<clus scale="   25.901">  1  5  2 -1</clus>
</clustering>
</event>
<event>
 9    2  0.9254368E-005  0.1964383E+03  0.7546771E-02  0.1153830E+00
         21   -1    0    0  501  502  0.00000000000E+00  0.00000000000E+00  0.18802777810E+03  0.18802777810E+03  0.00000000000E+00 0.  1.
          2   -1    0    0  502    0 -0.00000000000E+00 -0.00000000000E+00 -0.29932638921E+03  0.29932638921E+03  0.00000000000E+00 0. -1.
         24    2    1    2    0    0  0.59184347165E+02 -0.13738548002E+03 -0.27586583586E+02  0.17206677985E+03  0.80426364247E+02 0.  0.
         23    2    1    2    0    0 -0.13248026397E+03  0.16007354967E+03 -0.56486946677E+02  0.23387335333E+03  0.91276550156E+02 0.  0.
        -11    1    3    3    0    0  0.60727925593E+02 -0.45261197339E+02 -0.25463069857E+02  0.79905099074E+02  0.00000000000E+00 0.  1.
         12    1    3    3    0    0 -0.15435784285E+01 -0.92124282680E+02 -0.21235137290E+01  0.92161680780E+02  0.00000000000E+00 0. -1.
        -13    1    4    4    0    0 -0.36115292893E+02  0.23538090139E+02  0.22950184707E+02  0.48837148220E+02  0.00000000000E+00 0. -1.
         13    1    4    4    0    0 -0.96364971081E+02  0.13653545953E+03 -0.79437131384E+02  0.18503620511E+03  0.00000000000E+00 0.  1.
          1    1    1    2  501    0  0.73295916810E+02 -0.22688069649E+02 -0.27225080845E+02  0.81414034124E+02  0.00000000000E+00 0. -1.
<scales pt_clust_5="13000.00000" pt_clust_6="13000.00000" pt_clust_7="13000.00000" pt_clust_8="13000.00000" pt_clust_9="76.72709"></scales>
<clustering>
<clus scale="   76.727">  1  9  2 -1</clus>
<clus scale="   80.426">  5  6 -1 -1</clus>
<clus scale="   91.277">  7  8 -1 -1</clus>
<clus scale="  191.638">  2  5  1 -1</clus>
<clus scale="   76.727">  1  5  2 -1</clus>
</clustering>
</event>
<event>
 9    2  0.9254368E-005  0.2946952E+03  0.7546771E-02  0.1114160E+00
          2   -1    0    0  502    0 -0.00000000000E+00  0.00000000000E+00  0.12558406130E+04  0.12558406130E+04  0.00000000000E+00 0. -1.
         21   -1    0    0  501  502  0.00000000000E+00 -0.00000000000E+00 -0.34095174610E+03  0.34095174610E+03  0.00000000000E+00 0. -1.
         23    2    1    2    0    0 -0.11139331625E+03  0.38965459098E+02  0.70659330553E+02  0.16523507306E+03  0.91559327573E+02 0.  0.
         24    2    1    2    0    0 -0.27447148267E+03  0.21134135350E+02 -0.17769961327E+03  0.33755418223E+03  0.81144481666E+02 0.  0.
        -11    1    4    4    0    0 -0.65459581730E+02 -0.18173669183E+02 -0.14471014886E+02  0.69459695966E+02  0.00000000000E+00 0.  1.
         12    1    4    4    0    0 -0.20901190094E+03  0.39307804533E+02 -0.16322859839E+03  0.26809448626E+03  0.00000000000E+00 0. -1.
        -13    1    3    3    0    0 -0.12882187188E+02  0.48393264620E+02  0.28941147441E+02  0.57839854966E+02  0.00000000000E+00 0. -1.
         13    1    3    3    0    0 -0.98511129065E+02 -0.94278055224E+01  0.41718183112E+02  0.10739521809E+03  0.00000000000E+00 0.  1.
          1    1    1    2  501    0  0.38586479892E+03 -0.60099594448E+02  0.10219291497E+04  0.10940031039E+04  0.00000000000E+00 0. -1.
<scales pt_clust_5="13000.00000" pt_clust_6="13000.00000" pt_clust_7="13000.00000" pt_clust_8="13000.00000" pt_clust_9="283.30353"></scales>
<clustering>
<clus scale="   81.144">  5  6 -1 -1</clus>
<clus scale="   91.559">  7  8 -1 -1</clus>
<clus scale="  149.365">  1  7  2 -1</clus>
<clus scale="  283.304">  2  9  1 -1</clus>
<clus scale="  283.304">  2  5  1 -1</clus>
</clustering>
</event>
<event>
 9    2  0.9254368E-005  0.1490769E+03  0.7546771E-02  0.1224264E+00
         21   -1    0    0  501  502  0.00000000000E+00  0.00000000000E+00  0.24362037318E+03  0.24362037318E+03  0.00000000000E+00 0. -1.
          2   -1    0    0  502    0 -0.00000000000E+00 -0.00000000000E+00 -0.19122384209E+03  0.19122384209E+03  0.00000000000E+00 0. -1.
         24    2    1    2    0    0 -0.14871509459E+02 -0.43577481360E+02  0.47657196973E+02  0.10371860437E+03  0.79788356261E+02 0.  0.
         23    2    1    2    0    0  0.11834060531E+03 -0.19080855201E+02 -0.92688586908E+02  0.17580619571E+03  0.89151928798E+02 0.  0.
        -13    1    3    3    0    0  0.32177316172E+02 -0.11790651595E+02  0.25721472544E+02  0.42848492283E+02  0.00000000000E+00 0.  1.
         14    1    3    3    0    0 -0.47048825631E+02 -0.31786829766E+02  0.21935724428E+02  0.60870112092E+02  0.00000000000E+00 0. -1.
        -13    1    4    4    0    0  0.34151875778E+02  0.93872882755E+01 -0.78085491878E+02  0.85742730550E+02  0.00000000000E+00 0. -1.
         13    1    4    4    0    0  0.84188729530E+02 -0.28468143476E+02 -0.14603095030E+02  0.90063465164E+02  0.00000000000E+00 0.  1.
          1    1    1    2  501    0 -0.10346909585E+03  0.62658336561E+02  0.97427921027E+02  0.15531941518E+03  0.00000000000E+00 0. -1.
<scales pt_clust_5="13000.00000" pt_clust_6="13000.00000" pt_clust_7="13000.00000" pt_clust_8="13000.00000" pt_clust_9="119.48162"></scales>
<clustering>
<clus scale="   79.788">  5  6 -1 -1</clus>
<clus scale="   89.152">  7  8 -1 -1</clus>
<clus scale="   92.121">  2  5  1 -1</clus>
<clus scale="  119.482">  1  9  2 -1</clus>
<clus scale="  119.482">  1  5  2 -1</clus>
</clustering>
</event>
<event>
 9    2  0.9254368E-005  0.9572575E+02  0.7546771E-02  0.1295044E+00
          2   -1    0    0  502    0 -0.00000000000E+00  0.00000000000E+00  0.36430131622E+03  0.36430131622E+03  0.00000000000E+00 0. -1.
         21   -1    0    0  501  502  0.00000000000E+00 -0.00000000000E+00 -0.56798701310E+02  0.56798701310E+02  0.00000000000E+00 0. -1.
         24    2    1    2    0    0 -0.29365593823E+02 -0.13677040810E+02  0.23293997295E+03  0.24803653831E+03  0.78814299396E+02 0.  0.
         23    2    1    2    0    0  0.58305483841E+02 -0.23412480199E+02  0.56405040534E+02  0.12263681671E+03  0.88941478181E+02 0.  0.
        -13    1    3    3    0    0 -0.42553264182E+02  0.16752287411E+02  0.86031129347E+02  0.97430871097E+02  0.00000000000E+00 0.  1.
         14    1    3    3    0    0  0.13187670360E+02 -0.30429328221E+02  0.14690884361E+03  0.15060566721E+03  0.00000000000E+00 0. -1.
        -11    1    4    4    0    0  0.18044125210E+02  0.33523684770E+02  0.11799927382E+02  0.39858075485E+02  0.00000000000E+00 0.  1.
         11    1    4    4    0    0  0.40261358631E+02 -0.56936164968E+02  0.44605113151E+02  0.82778741228E+02  0.00000000000E+00 0. -1.
          1    1    1    2  501    0 -0.28939890018E+02  0.37089521008E+02  0.18157601427E+02  0.50426662516E+02  0.00000000000E+00 0. -1.
<scales pt_clust_5="13000.00000" pt_clust_6="13000.00000" pt_clust_7="13000.00000" pt_clust_8="13000.00000" pt_clust_9="47.04413"></scales>
<clustering>
<clus scale="   47.044">  2  9  1 -1</clus>
<clus scale="   78.814">  5  6 -1 -1</clus>
<clus scale="   86.397">  1  5  2 -1</clus>
<clus scale="   88.941">  7  8 -1 -1</clus>
<clus scale="   47.044">  2  5  1 -1</clus>
</clustering>
</event>
<event>
 9    2  0.9254368E-005  0.1013410E+03  0.7546771E-02  0.1283228E+00
         21   -1    0    0  501  502  0.00000000000E+00  0.00000000000E+00  0.68058439090E+03  0.68058439090E+03  0.00000000000E+00 0. -1.
          4   -1    0    0  502    0 -0.00000000000E+00 -0.00000000000E+00 -0.30024294257E+02  0.30024294257E+02  0.00000000000E+00 0. -1.
         24    2    1    2    0    0 -0.93098751423E+01  0.23895832223E+02  0.11737478461E+03  0.14428298942E+03  0.79894032332E+02 0.  0.
         23    2    1    2    0    0  0.47611159161E+02 -0.69599040874E+02  0.28386656949E+03  0.30997514079E+03  0.91616099369E+02 0.  0.
        -11    1    3    3    0    0 -0.10080102520E+02  0.30741579403E+02  0.12777559062E+03  0.13180764291E+03  0.00000000000E+00 0.  1.
         12    1    3    3    0    0  0.77022737794E+00 -0.68457471798E+01 -0.10400806018E+02  0.12475346508E+02  0.00000000000E+00 0. -1.
        -13    1    4    4    0    0  0.36962866985E+02 -0.67143629180E+01  0.20563881211E+03  0.20904223796E+03  0.00000000000E+00 0. -1.
         13    1    4    4    0    0  0.10648292176E+02 -0.62884677956E+02  0.78227757376E+02  0.10093290282E+03  0.00000000000E+00 0.  1.
          3    1    1    2  501    0 -0.38301284018E+02  0.45703208651E+02  0.24931874255E+03  0.25635055495E+03  0.00000000000E+00 0. -1.
<scales pt_clust_5="13000.00000" pt_clust_6="13000.00000" pt_clust_7="13000.00000" pt_clust_8="13000.00000" pt_clust_9="59.63029"></scales>
<clustering>
<clus scale="   59.630">  1  9  2 -1</clus>
<clus scale="   79.894">  5  6 -1 -1</clus>
<clus scale="   90.882">  2  5  1 -1</clus>
<clus scale="   91.616">  7  8 -1 -1</clus>
<clus scale="   59.630">  1  5  2 -1</clus>
</clustering>
</event>
<event>
 9    2  0.9254368E-005  0.1711450E+03  0.7546771E-02  0.1204307E+00
         21   -1    0    0  501  502  0.00000000000E+00  0.00000000000E+00  0.56177932885E+03  0.56177932885E+03  0.00000000000E+00 0.  1.
         -1   -1    0    0    0  501 -0.00000000000E+00 -0.00000000000E+00 -0.19591760362E+03  0.19591760362E+03  0.00000000000E+00 0.  1.
         23    2    1    2    0    0  0.95843149475E+01  0.10064357306E+01 -0.99543035831E+02  0.13619372222E+03  0.92450213536E+02 0.  0.
         24    2    1    2    0    0 -0.15725766045E+03  0.25703808242E+02  0.57789340471E+02  0.18714024543E+03  0.79317123371E+02 0.  0.
        -13    1    4    4    0    0 -0.14313676316E+03  0.14401717887E+02  0.19996813601E+02  0.14524260738E+03  0.00000000000E+00 0.  1.
         14    1    4    4    0    0 -0.14120897291E+02  0.11302090355E+02  0.37792526871E+02  0.41897638047E+02  0.00000000000E+00 0. -1.
        -13    1    3    3    0    0  0.20372211264E+01  0.46607242354E+02 -0.47207971161E+02  0.66370007163E+02  0.00000000000E+00 0. -1.
         13    1    3    3    0    0  0.75470938211E+01 -0.45600806623E+02 -0.52335064669E+02  0.69823715053E+02  0.00000000000E+00 0.  1.
         -2    1    1    2    0  502  0.14767334550E+03 -0.26710243972E+02  0.40761542060E+03  0.43436296483E+03  0.00000000000E+00 0.  1.
<scales pt_clust_5="13000.00000" pt_clust_6="13000.00000" pt_clust_7="13000.00000" pt_clust_8="13000.00000" pt_clust_9="151.65556"></scales>
<clustering>
<clus scale="   79.317">  5  6 -1 -1</clus>
<clus scale="   92.450">  7  8 -1 -1</clus>
<clus scale="   92.951">  2  7  1 -1</clus>
<clus scale="  151.656">  1  9  2 -1</clus>
<clus scale="  151.656">  1  5  2 -1</clus>
</clustering>
</event>
<event>
 9    2  0.9254368E-005  0.1799027E+03  0.7546771E-02  0.1187212E+00
          2   -1    0    0  502    0 -0.00000000000E+00  0.00000000000E+00  0.13471981632E+03  0.13471981632E+03  0.00000000000E+00 0. -1.
         21   -1    0    0  501  502  0.00000000000E+00 -0.00000000000E+00 -0.45970156324E+03  0.45970156324E+03  0.00000000000E+00 0. -1.
         24    2    1    2    0    0 -0.82505731028E+02  0.11801353817E+02 -0.16330067210E+03  0.20049516219E+03  0.81146367434E+02 0.  0.
         23    2    1    2    0    0 -0.90702272951E+02  0.40984543614E+02  0.20547577891E+02  0.13703198723E+03  0.91918047374E+02 0.  0.
        -11    1    3    3    0    0 -0.76660070941E+02  0.39988540249E+02 -0.13356209215E+03  0.15910588389E+03  0.00000000000E+00 0.  1.
         12    1    3    3    0    0 -0.58456600864E+01 -0.28187186432E+02 -0.29738579952E+02  0.41389278302E+02  0.00000000000E+00 0. -1.
        -11    1    4    4    0    0 -0.19581348414E+02  0.37665095149E+02  0.44893650345E+02  0.61786150872E+02  0.00000000000E+00 0.  1.
         11    1    4    4    0    0 -0.71120924538E+02  0.33194484648E+01 -0.24346072454E+02  0.75245836357E+02  0.00000000000E+00 0. -1.
          1    1    1    2  501    0  0.17320800398E+03 -0.52785897431E+02 -0.18222865271E+03  0.25689423014E+03  0.00000000000E+00 0. -1.
<scales pt_clust_5="13000.00000" pt_clust_6="13000.00000" pt_clust_7="13000.00000" pt_clust_8="13000.00000" pt_clust_9="154.64817"></scales>
<clustering>
<clus scale="   81.146">  5  6 -1 -1</clus>
<clus scale="   91.918">  7  8 -1 -1</clus>
<clus scale="  116.324">  1  5  2 -1</clus>
<clus scale="  154.648">  2  9  1 -1</clus>
<clus scale="  154.648">  2  5  1 -1</clus>
</clustering>
</event>
<event>
 9    2  0.9254368E-005  0.1080525E+03  0.7546771E-02  0.1268009E+00
         21   -1    0    0  501  502  0.00000000000E+00  0.00000000000E+00  0.15751536480E+03  0.15751536480E+03  0.00000000000E+00 0.  1.
         -1   -1    0    0    0  501 -0.00000000000E+00 -0.00000000000E+00 -0.20223170248E+03  0.20223170248E+03  0.00000000000E+00 0.  1.
         23    2    1    2    0    0  0.23114531860E+02  0.60943196626E+02 -0.15398483109E+03  0.18975070876E+03  0.89697538830E+02 0.  0.
         24    2    1    2    0    0 -0.22658502104E+02 -0.22374402278E+02  0.96182408078E+02  0.12926546742E+03  0.80277542612E+02 0.  0.
        -13    1    4    4    0    0  0.17144649065E+02 -0.14046880711E+02  0.83911599468E+02  0.86789460043E+02  0.00000000000E+00 0.  1.
         14    1    4    4    0    0 -0.39803151169E+02 -0.83275215669E+01  0.12270808610E+02  0.42476007374E+02  0.00000000000E+00 0. -1.
        -11    1    3    3    0    0  0.43385347994E+02  0.25757147361E+02 -0.28694047323E+02  0.58043668152E+02  0.00000000000E+00 0. -1.
         11    1    3    3    0    0 -0.20270816135E+02  0.35186049265E+02 -0.12529078376E+03  0.13170704061E+03  0.00000000000E+00 0.  1.
         -2    1    1    2    0  502 -0.45602975590E+00 -0.38568794348E+02  0.13086085325E+02  0.40730891099E+02  0.00000000000E+00 0.  1.
<scales pt_clust_5="13000.00000" pt_clust_6="13000.00000" pt_clust_7="13000.00000" pt_clust_8="13000.00000" pt_clust_9="38.57149"></scales>
<clustering>
<clus scale="   38.571">  1  9  2 -1</clus>
<clus scale="   80.278">  5  6 -1 -1</clus>
<clus scale="   89.698">  7  8 -1 -1</clus>
<clus scale="  100.370">  1  5  2 -1</clus>
<clus scale="   38.571">  1  5  2 -1</clus>
</clustering>
</event>
<event>
 9    2  0.9254368E-005  0.1223409E+03  0.7546771E-02  0.1251226E+00
          2   -1    0    0  502    0 -0.00000000000E+00  0.00000000000E+00  0.92835286804E+03  0.92835286804E+03  0.00000000000E+00 0. -1.
         21   -1    0    0  501  502  0.00000000000E+00 -0.00000000000E+00 -0.23765673079E+02  0.23765673079E+02  0.00000000000E+00 0.  1.
         24    2    1    2    0    0 -0.32538379087E+02  0.48305751984E+02  0.67598121309E+03  0.68317759519E+03  0.79930184097E+02 0.  0.
         23    2    1    2    0    0  0.21199604839E+02 -0.23836004171E+02  0.18001912928E+03  0.21337100258E+03  0.11001236064E+03 0.  0.
        -11    1    3    3    0    0 -0.15372303779E+02 -0.13526789989E+02  0.51706059925E+02  0.55612933782E+02  0.00000000000E+00 0.  1.
         12    1    3    3    0    0 -0.17166075308E+02  0.61832541973E+02  0.62427515317E+03  0.62756466141E+03  0.00000000000E+00 0. -1.
        -11    1    4    4    0    0 -0.26769348026E+02 -0.23815556786E+02  0.10707915416E+02  0.37395697498E+02  0.00000000000E+00 0.  1.
         11    1    4    4    0    0  0.47968952865E+02 -0.20447384702E-01  0.16931121387E+03  0.17597530508E+03  0.00000000000E+00 0. -1.
          1    1    1    2  501    0  0.11338774248E+02 -0.24469747813E+02  0.48586852586E+02  0.55569943348E+02  0.00000000000E+00 0. -1.
<scales pt_clust_5="13000.00000" pt_clust_6="13000.00000" pt_clust_7="13000.00000" pt_clust_8="13000.00000" pt_clust_9="26.96917"></scales>
<clustering>
<clus scale="   26.969">  2  9  1 -1</clus>
<clus scale="   79.930">  5  6 -1 -1</clus>
<clus scale="   96.195">  1  5  2 -1</clus>
<clus scale="  110.012">  7  8 -1 -1</clus>
<clus scale="   26.969">  2  5  1 -1</clus>
</clustering>
</event>
<event>
 9    2  0.9254368E-005  0.1972134E+03  0.7546771E-02  0.1153123E+00
         21   -1    0    0  501  502  0.00000000000E+00  0.00000000000E+00  0.18004918107E+03  0.18004918107E+03  0.00000000000E+00 0.  1.
          2   -1    0    0  502    0 -0.00000000000E+00 -0.00000000000E+00 -0.52307023154E+03  0.52307023154E+03  0.00000000000E+00 0. -1.
         23    2    1    2    0    0 -0.17418728502E+03  0.39457100839E+02 -0.40715059947E+03  0.45372907184E+03  0.90555987728E+02 0.  0.
         24    2    1    2    0    0  0.16150676542E+03 -0.19158043320E+02  0.29824560943E+00  0.18121936009E+03  0.79930605050E+02 0.  0.
        -11    1    4    4    0    0  0.12502341707E+03  0.20502577856E+01  0.31249251442E+02  0.12888589562E+03  0.00000000000E+00 0.  1.
         12    1    4    4    0    0  0.36483348344E+02 -0.21208301105E+02 -0.30951005833E+02  0.52333464477E+02  0.00000000000E+00 0. -1.
        -13    1    3    3    0    0 -0.55926339434E+02  0.12376148011E+02 -0.48302419120E+02  0.74926952260E+02  0.00000000000E+00 0.  1.
         13    1    3    3    0    0 -0.11826094559E+03  0.27080952828E+02 -0.35884818035E+03  0.37880211958E+03  0.00000000000E+00 0. -1.
          1    1    1    2  501    0  0.12680519608E+02 -0.20299057519E+02  0.63831303394E+02  0.68170980678E+02  0.00000000000E+00 0. -1.
<scales pt_clust_5="13000.00000" pt_clust_6="13000.00000" pt_clust_7="13000.00000" pt_clust_8="13000.00000" pt_clust_9="23.93423"></scales>
<clustering>
<clus scale="   23.934">  1  9  2 -1</clus>
<clus scale="   79.931">  5  6 -1 -1</clus>
<clus scale="   90.556">  7  8 -1 -1</clus>
<clus scale="  192.566">  1  5  2 -1</clus>
<clus scale="   23.934">  1  5  2 -1</clus>
</clustering>
</event>
<event>
 9    2  0.9254368E-005  0.1025751E+03  0.7546771E-02  0.1276602E+00
          2   -1    0    0  502    0 -0.00000000000E+00  0.00000000000E+00  0.69956372093E+03  0.69956372093E+03  0.00000000000E+00 0. -1.
         21   -1    0    0  501  502  0.00000000000E+00 -0.00000000000E+00 -0.17267639489E+03  0.17267639489E+03  0.00000000000E+00 0. -1.
         24    2    1    2    0    0  0.24933226602E+02  0.43834206589E+02  0.65409358739E+03  0.66162088325E+03  0.85794339139E+02 0.  0.
         23    2    1    2    0    0 -0.58010824314E+02 -0.15756575560E+02 -0.12788109478E+03  0.16722641941E+03  0.89429164896E+02 0.  0.
        -13    1    3    3    0    0  0.28287804280E+02  0.17859848855E+02  0.77246327793E+02  0.84179387202E+02  0.00000000000E+00 0.  1.
         14    1    3    3    0    0 -0.33545776784E+01  0.25974357735E+02  0.57684725960E+03  0.57744149605E+03  0.00000000000E+00 0. -1.
        -13    1    4    4    0    0  0.13005154698E+02 -0.27602302291E+02 -0.64304907079E+02  0.71176837629E+02  0.00000000000E+00 0. -1.
         13    1    4    4    0    0 -0.71015979012E+02  0.11845726731E+02 -0.63576187702E+02  0.96049581777E+02  0.00000000000E+00 0.  1.
          1    1    1    2  501    0  0.33077597712E+02 -0.28077631029E+02  0.67483342510E+00  0.43392813170E+02  0.00000000000E+00 0. -1.
<scales pt_clust_5="13000.00000" pt_clust_6="13000.00000" pt_clust_7="13000.00000" pt_clust_8="13000.00000" pt_clust_9="43.38757"></scales>
<clustering>
<clus scale="   43.388">  2  9  1 -1</clus>
<clus scale="   85.794">  5  6 -1 -1</clus>
<clus scale="   89.429">  7  8 -1 -1</clus>
<clus scale="   99.422">  1  5  2 -1</clus>
<clus scale="   43.388">  2  5  1 -1</clus>
</clustering>
</event>
<event>
 9    2  0.9254368E-005  0.9405174E+02  0.7546771E-02  0.1300123E+00
         21   -1    0    0  501  502  0.00000000000E+00  0.00000000000E+00  0.84148199243E+02  0.84148199243E+02  0.00000000000E+00 0. -1.
          2   -1    0    0  502    0 -0.00000000000E+00 -0.00000000000E+00 -0.44760814252E+03  0.44760814252E+03  0.00000000000E+00 0. -1.
         23    2    1    2    0    0  0.28090953744E+01  0.55185211867E+01 -0.31628846178E+03  0.32991907822E+03  0.93647541499E+02 0.  0.
         24    2    1    2    0    0  0.53302601391E+02  0.37934797248E+02 -0.71005017363E+02  0.12697237973E+03  0.82462455495E+02 0.  0.
        -13    1    4    4    0    0 -0.26738839640E+01  0.48123206901E+02 -0.36160311860E+02  0.60254135557E+02  0.00000000000E+00 0.  1.
         14    1    4    4    0    0  0.55976485356E+02 -0.10188409653E+02 -0.34844705504E+02  0.66718244174E+02  0.00000000000E+00 0. -1.
        -13    1    3    3    0    0  0.28647509162E+02  0.34647115780E+02 -0.24100670032E+03  0.24516388807E+03  0.00000000000E+00 0. -1.
         13    1    3    3    0    0 -0.25838413788E+02 -0.29128594593E+02 -0.75281761451E+02  0.84755190149E+02  0.00000000000E+00 0.  1.
          1    1    1    2  501    0 -0.56111696766E+02 -0.43453318435E+02  0.23833535859E+02  0.74864883814E+02  0.00000000000E+00 0. -1.
<scales pt_clust_5="13000.00000" pt_clust_6="13000.00000" pt_clust_7="13000.00000" pt_clust_8="13000.00000" pt_clust_9="70.96981"></scales>
<clustering>
<clus scale="   70.970">  1  9  2 -1</clus>
<clus scale="   82.462">  5  6 -1 -1</clus>
<clus scale="   82.921">  1  5  2 -1</clus>
<clus scale="   93.648">  7  8 -1 -1</clus>
<clus scale="   70.970">  1  5  2 -1</clus>
</clustering>
</event>
<event>
 9    2  0.9254368E-005  0.1028646E+03  0.7546771E-02  0.1278878E+00
         21   -1    0    0  501  502  0.00000000000E+00  0.00000000000E+00  0.42616235625E+03  0.42616235625E+03  0.00000000000E+00 0. -1.
         -3   -1    0    0    0  501 -0.00000000000E+00 -0.00000000000E+00 -0.39054408676E+02  0.39054408676E+02  0.00000000000E+00 0.  1.
         24    2    1    2    0    0  0.34749054082E+02  0.21071346260E+02  0.98460688649E+02  0.13325366544E+03  0.80065808880E+02 0.  0.
         23    2    1    2    0    0 -0.45294943602E+02 -0.58980572737E+02  0.25407945073E+03  0.27958697323E+03  0.89900881203E+02 0.  0.
        -13    1    3    3    0    0  0.36740927621E+02  0.48490256295E+02  0.56105510440E+02  0.82758860672E+02  0.00000000000E+00 0.  1.
         14    1    3    3    0    0 -0.19918735390E+01 -0.27418910035E+02  0.42355178209E+02  0.50494804770E+02  0.00000000000E+00 0. -1.
        -13    1    4    4    0    0 -0.30227959588E+01 -0.53945834774E+02  0.21538437924E+03  0.22205792309E+03  0.00000000000E+00 0. -1.
         13    1    4    4    0    0 -0.42272147643E+02 -0.50347379631E+01  0.38695071483E+02  0.57529050138E+02  0.00000000000E+00 0.  1.
         -4    1    1    2    0  502  0.10545889520E+02  0.37909226477E+02  0.34567808195E+02  0.52376126253E+02  0.00000000000E+00 0.  1.
<scales pt_clust_5="13000.00000" pt_clust_6="13000.00000" pt_clust_7="13000.00000" pt_clust_8="13000.00000" pt_clust_9="39.34878"></scales>
<clustering>
<clus scale="   39.349">  1  9  2 -1</clus>
<clus scale="   80.066">  5  6 -1 -1</clus>
<clus scale="   89.901">  7  8 -1 -1</clus>
<clus scale="   94.390">  2  5  1 -1</clus>
<clus scale="   39.349">  1  5  2 -1</clus>
</clustering>
</event>
<event>
 9    2  0.9254368E-005  0.1833314E+03  0.7546771E-02  0.1198131E+00
         21   -1    0    0  501  502  0.00000000000E+00  0.00000000000E+00  0.80655096315E+02  0.80655096315E+02  0.00000000000E+00 0. -1.
          2   -1    0    0  502    0 -0.00000000000E+00 -0.00000000000E+00 -0.95018907008E+03  0.95018907008E+03  0.00000000000E+00 0. -1.
         24    2    1    2    0    0  0.34705291068E+02 -0.98874265805E+01 -0.32509148919E+02  0.92360980802E+02  0.78558816047E+02 0.  0.
         23    2    1    2    0    0  0.23977898468E+02 -0.14333372755E+03 -0.71216425732E+03  0.73230219682E+03  0.89269709308E+02 0.  0.
        -13    1    3    3    0    0  0.56737194235E+01 -0.24514527724E+02  0.18945570458E+02  0.31497425317E+02  0.00000000000E+00 0.  1.
         14    1    3    3    0    0  0.29031571645E+02  0.14627101143E+02 -0.51454719378E+02  0.60863555485E+02  0.00000000000E+00 0. -1.
        -11    1    4    4    0    0  0.31909163463E+02 -0.99865449751E+02 -0.63316063710E+03  0.64178165690E+03  0.00000000000E+00 0.  1.
         11    1    4    4    0    0 -0.79312649952E+01 -0.43468277800E+02 -0.79003620222E+02  0.90520539921E+02  0.00000000000E+00 0. -1.
          1    1    1    2  501    0 -0.58683189536E+02  0.15322115413E+03 -0.12486056753E+03  0.20618098877E+03  0.00000000000E+00 0. -1.
<scales pt_clust_5="13000.00000" pt_clust_6="13000.00000" pt_clust_7="13000.00000" pt_clust_8="13000.00000" pt_clust_9="160.12911"></scales>
<clustering>
<clus scale="   78.559">  5  6 -1 -1</clus>
<clus scale="   86.451">  2  5  1 -1</clus>
<clus scale="   89.270">  7  8 -1 -1</clus>
<clus scale="  160.129">  1  9  2 -1</clus>
<clus scale="  160.129">  1  5  2 -1</clus>
</clustering>
</event>
<event>
 9    2  0.2295763E-004  0.1140467E+03  0.7546771E-02  0.1257399E+00
          2   -1    0    0  502    0 -0.00000000000E+00  0.00000000000E+00  0.50481168478E+03  0.50481168478E+03  0.00000000000E+00 0. -1.
         21   -1    0    0  501  502  0.00000000000E+00 -0.00000000000E+00 -0.31930819204E+03  0.31930819204E+03  0.00000000000E+00 0.  1.
         24    2    1    2    0    0  0.40345992994E+02  0.51444432593E+02  0.48210888039E+03  0.49344698258E+03  0.82380964233E+02 0.  0.
         23    2    1    2    0    0 -0.52834690729E+02 -0.29706686081E+02 -0.27779040170E+03  0.29932802399E+03  0.93572255131E+02 0.  0.
        -13    1    3    3    0    0  0.31437917616E+02  0.70322636858E+01  0.53493803232E+02  0.62445034877E+02  0.00000000000E+00 0.  1.
         14    1    3    3    0    0  0.89080753787E+01  0.44412168907E+02  0.42861507716E+03  0.43100194770E+03  0.00000000000E+00 0. -1.
        -13    1    4    4    0    0 -0.46104621518E+02  0.90234405826E+01 -0.51745049067E+02  0.69889975735E+02  0.00000000000E+00 0. -1.
         13    1    4    4    0    0 -0.67300692107E+01 -0.38730126664E+02 -0.22604535263E+03  0.22943804826E+03  0.00000000000E+00 0.  1.
          1    1    1    2  501    0  0.12488697734E+02 -0.21737746512E+02 -0.18814985949E+02  0.31344870247E+02  0.00000000000E+00 0. -1.
<scales pt_clust_5="13000.00000" pt_clust_6="13000.00000" pt_clust_7="13000.00000" pt_clust_8="13000.00000" pt_clust_9="25.06985"></scales>
<clustering>
<clus scale="   25.070">  2  9  1 -1</clus>
<clus scale="   82.381">  5  6 -1 -1</clus>
<clus scale="   93.572">  7  8 -1 -1</clus>
<clus scale="  105.060">  1  5  2 -1</clus>
<clus scale="   25.070">  2  5  1 -1</clus>
</clustering>
</event>
<event>
 9    2  0.9254368E-005  0.2169981E+03  0.7546771E-02  0.1162337E+00
         21   -1    0    0  501  502  0.00000000000E+00  0.00000000000E+00  0.16378656887E+03  0.16378656887E+03  0.00000000000E+00 0. -1.
          2   -1    0    0  502    0 -0.00000000000E+00 -0.00000000000E+00 -0.45487672971E+03  0.45487672971E+03  0.00000000000E+00 0. -1.
         24    2    1    2    0    0 -0.47496681345E+02  0.69373838956E+02 -0.52069671161E+02  0.12764786270E+03  0.80709738732E+02 0.  0.
         23    2    1    2    0    0  0.14724349990E+03 -0.19979733310E+03 -0.14657159521E+03  0.30258371423E+03  0.92054598038E+02 0.  0.
        -11    1    3    3    0    0 -0.44138776495E+01  0.65919923037E+02 -0.52559515588E+02  0.84424056098E+02  0.00000000000E+00 0.  1.
         12    1    3    3    0    0 -0.43082803696E+02  0.34539159190E+01  0.48984442642E+00  0.43223806600E+02  0.00000000000E+00 0. -1.
        -11    1    4    4    0    0  0.79446403304E+02 -0.13164626118E+03 -0.13706658037E+03  0.20598474831E+03  0.00000000000E+00 0. -1.
         11    1    4    4    0    0  0.67797096593E+02 -0.68151071915E+02 -0.95050148352E+01  0.96598965919E+02  0.00000000000E+00 0.  1.
          1    1    1    2  501    0 -0.99746818553E+02  0.13042349414E+03 -0.92448894480E+02  0.18843172166E+03  0.00000000000E+00 0. -1.
<scales pt_clust_5="13000.00000" pt_clust_6="13000.00000" pt_clust_7="13000.00000" pt_clust_8="13000.00000" pt_clust_9="196.50474"></scales>
<clustering>
<clus scale="   80.710">  5  6 -1 -1</clus>
<clus scale="   92.055">  7  8 -1 -1</clus>
<clus scale="  116.545">  2  5  1 -1</clus>
<clus scale="  196.505">  1  9  2 -1</clus>
<clus scale="  196.505">  1  5  2 -1</clus>
</clustering>
</event>
<event>
 9    2  0.9254368E-005  0.3050327E+03  0.7546771E-02  0.1083147E+00
          2   -1    0    0  502    0 -0.00000000000E+00  0.00000000000E+00  0.15123758246E+04  0.15123758246E+04  0.00000000000E+00 0. -1.
         21   -1    0    0  501  502  0.00000000000E+00 -0.00000000000E+00 -0.16504375439E+03  0.16504375439E+03  0.00000000000E+00 0. -1.
         24    2    1    2    0    0 -0.23352397907E+03 -0.13896696331E+03  0.57189991557E+03  0.63821429672E+03  0.80016932084E+02 0.  0.
         23    2    1    2    0    0  0.26579234952E+03  0.25979632503E+03  0.16619989750E+03  0.41726885020E+03  0.91384811930E+02 0.  0.
        -11    1    3    3    0    0 -0.11641298731E+03 -0.83317975943E+02  0.21323965004E+03  0.25683655713E+03  0.00000000000E+00 0.  1.
         12    1    3    3    0    0 -0.11711099176E+03 -0.55648987367E+02  0.35866026553E+03  0.38137773959E+03  0.00000000000E+00 0. -1.
        -13    1    4    4    0    0 -0.21424387033E+01  0.26771919158E+02  0.18886708521E+02  0.32833419830E+02  0.00000000000E+00 0.  1.
         13    1    4    4    0    0  0.26793478823E+03  0.23302440587E+03  0.14731318898E+03  0.38443543037E+03  0.00000000000E+00 0. -1.
          1    1    1    2  501    0 -0.32268370456E+02 -0.12082936172E+03  0.60923225712E+03  0.62193643204E+03  0.00000000000E+00 0. -1.
<scales pt_clust_5="13000.00000" pt_clust_6="13000.00000" pt_clust_7="13000.00000" pt_clust_8="13000.00000" pt_clust_9="125.06398"></scales>
<clustering>
<clus scale="   80.017">  5  6 -1 -1</clus>
<clus scale="   91.385">  7  8 -1 -1</clus>
<clus scale="  125.064">  2  9  1 -1</clus>
<clus scale="  301.822">  1  5  2 -1</clus>
<clus scale="  125.064">  2  5  1 -1</clus>
</clustering>
</event>
<event>
 9    2  0.9254368E-005  0.9962583E+02  0.7546771E-02  0.1286650E+00
          2   -1    0    0  502    0 -0.00000000000E+00  0.00000000000E+00  0.17906692081E+03  0.17906692081E+03  0.00000000000E+00 0. -1.
         21   -1    0    0  501  502  0.00000000000E+00 -0.00000000000E+00 -0.97867532403E+02  0.97867532403E+02  0.00000000000E+00 0. -1.
         23    2    1    2    0    0  0.10166728701E+02 -0.44315833585E+02  0.94697246879E+02  0.13888667845E+03  0.90855299265E+02 0.  0.
         24    2    1    2    0    0  0.20949679806E+02  0.35154021369E+02  0.19484627658E+02  0.91787488646E+02  0.79816026302E+02 0.  0.
        -13    1    4    4    0    0 -0.27860686777E+02  0.46468308757E+01 -0.59385879828E+01  0.28863085977E+02  0.00000000000E+00 0.  1.
         14    1    4    4    0    0  0.48810366583E+02  0.30507190493E+02  0.25423215641E+02  0.62924402669E+02  0.00000000000E+00 0. -1.
        -11    1    3    3    0    0 -0.18262339166E+01  0.22087110884E+02  0.57969323589E+02  0.62061405679E+02  0.00000000000E+00 0.  1.
         11    1    3    3    0    0  0.11992962617E+02 -0.66402944469E+02  0.36727923290E+02  0.76825272767E+02  0.00000000000E+00 0. -1.
          1    1    1    2  501    0 -0.31116408506E+02  0.91618122160E+01 -0.32982486125E+02  0.46260286125E+02  0.00000000000E+00 0. -1.
<scales pt_clust_5="13000.00000" pt_clust_6="13000.00000" pt_clust_7="13000.00000" pt_clust_8="13000.00000" pt_clust_9="32.43717"></scales>
<clustering>
<clus scale="   32.437">  2  9  1 -1</clus>
<clus scale="   79.816">  5  6 -1 -1</clus>
<clus scale="   89.673">  2  5  1 -1</clus>
<clus scale="   90.855">  7  8 -1 -1</clus>
<clus scale="   32.437">  2  5  1 -1</clus>
</clustering>
</event>
<event>
 9    2  0.9254368E-005  0.1204559E+03  0.7546771E-02  0.1245110E+00
          2   -1    0    0  502    0 -0.00000000000E+00  0.00000000000E+00  0.44274747975E+03  0.44274747975E+03  0.00000000000E+00 0. -1.
         21   -1    0    0  501  502  0.00000000000E+00 -0.00000000000E+00 -0.12963211364E+03  0.12963211364E+03  0.00000000000E+00 0.  1.
         24    2    1    2    0    0  0.32158439596E+02 -0.78270091885E+02  0.38561961429E+02  0.12529154426E+03  0.83967694223E+02 0.  0.
         23    2    1    2    0    0 -0.81051633223E+02  0.23514571157E+02 -0.34061596544E+02  0.12986268693E+03  0.92638128185E+02 0.  0.
        -13    1    3    3    0    0  0.46653095917E+02 -0.35278338579E+02 -0.94342829390E+01  0.59245913160E+02  0.00000000000E+00 0.  1.
         14    1    3    3    0    0 -0.14494656321E+02 -0.42991753306E+02  0.47996244368E+02  0.66045631102E+02  0.00000000000E+00 0. -1.
        -13    1    4    4    0    0 -0.67099358230E+02 -0.18752136665E+02 -0.46359566063E+02  0.83684979954E+02  0.00000000000E+00 0.  1.
         13    1    4    4    0    0 -0.13952274993E+02  0.42266707822E+02  0.12297969519E+02  0.46177706980E+02  0.00000000000E+00 0. -1.
          1    1    1    2  501    0  0.48893193627E+02  0.54755520728E+02  0.30861500123E+03  0.31722536219E+03  0.00000000000E+00 0. -1.
<scales pt_clust_5="13000.00000" pt_clust_6="13000.00000" pt_clust_7="13000.00000" pt_clust_8="13000.00000" pt_clust_9="73.40788"></scales>
<clustering>
<clus scale="   73.408">  2  9  1 -1</clus>
<clus scale="   83.968">  5  6 -1 -1</clus>
<clus scale="   92.638">  7  8 -1 -1</clus>
<clus scale="  113.923">  1  5  2 -1</clus>
<clus scale="   73.408">  2  5  1 -1</clus>
</clustering>
</event>
<event>
 9    2  0.9254368E-005  0.1029403E+03  0.7546771E-02  0.1274794E+00
         21   -1    0    0  501  502  0.00000000000E+00  0.00000000000E+00  0.44745843430E+02  0.44745843430E+02  0.00000000000E+00 0. -1.
          4   -1    0    0  502    0 -0.00000000000E+00 -0.00000000000E+00 -0.84071984755E+03  0.84071984755E+03  0.00000000000E+00 0. -1.
         24    2    1    2    0    0 -0.28442630600E+02 -0.45874392545E+02 -0.69470806238E+03  0.70255861268E+03  0.89754494037E+02 0.  0.
         23    2    1    2    0    0  0.43806613544E+02 -0.24316058234E+01 -0.49575381676E+02  0.11050931969E+03  0.88485361355E+02 0.  0.
        -11    1    3    3    0    0 -0.21640749820E+02  0.12028277811E+02 -0.56419426613E+02  0.61612930617E+02  0.00000000000E+00 0.  1.
         12    1    3    3    0    0 -0.68018807799E+01 -0.57902670355E+02 -0.63828863576E+03  0.64094568207E+03  0.00000000000E+00 0. -1.
        -11    1    4    4    0    0  0.63910378865E+02 -0.11723717431E+02 -0.57720530453E+02  0.86911689161E+02  0.00000000000E+00 0. -1.
         11    1    4    4    0    0 -0.20103765321E+02  0.92921116074E+01  0.81451487776E+01  0.23597630534E+02  0.00000000000E+00 0.  1.
          3    1    1    2  501    0 -0.15363982944E+02  0.48305998368E+02 -0.51690560068E+02  0.72397758600E+02  0.00000000000E+00 0. -1.
<scales pt_clust_5="13000.00000" pt_clust_6="13000.00000" pt_clust_7="13000.00000" pt_clust_8="13000.00000" pt_clust_9="50.69045"></scales>
<clustering>
<clus scale="   50.690">  1  9  2 -1</clus>
<clus scale="   88.485">  7  8 -1 -1</clus>
<clus scale="   89.754">  5  6 -1 -1</clus>
<clus scale="  101.836">  1  7  2 -1</clus>
<clus scale="   50.690">  1  5  2 -1</clus>
</clustering>
</event>
<event>
 9    2  0.9254368E-005  0.9819517E+02  0.7546771E-02  0.1290604E+00
         -1   -1    0    0    0  501 -0.00000000000E+00  0.00000000000E+00  0.25723268337E+03  0.25723268337E+03  0.00000000000E+00 0.  1.
         21   -1    0    0  501  502  0.00000000000E+00 -0.00000000000E+00 -0.20971133833E+03  0.20971133833E+03  0.00000000000E+00 0.  1.
         23    2    1    2    0    0 -0.27928069321E+01 -0.38629496068E+02  0.21963047596E+03  0.24150167984E+03  0.92657852634E+02 0.  0.
         24    2    1    2    0    0  0.49703723299E+01 -0.17204205996E+02 -0.66842439632E+02  0.10626507737E+03  0.80645307540E+02 0.  0.
        -13    1    4    4    0    0  0.26555028630E+02 -0.30468180508E+02 -0.69903561667E+02  0.80746439567E+02  0.00000000000E+00 0.  1.
         14    1    4    4    0    0 -0.21584656300E+02  0.13263974512E+02  0.30611220344E+01  0.25518637807E+02  0.00000000000E+00 0. -1.
        -11    1    3    3    0    0 -0.41137581781E+02 -0.43210034857E+02  0.10804161701E+03  0.12341960441E+03  0.00000000000E+00 0.  1.
         11    1    3    3    0    0  0.38344774849E+02  0.45805387896E+01  0.11158885895E+03  0.11808207542E+03  0.00000000000E+00 0. -1.
         -2    1    1    2    0  502 -0.21775653978E+01  0.55833702064E+02 -0.10526669128E+03  0.11917726449E+03  0.00000000000E+00 0.  1.
<scales pt_clust_5="13000.00000" pt_clust_6="13000.00000" pt_clust_7="13000.00000" pt_clust_8="13000.00000" pt_clust_9="55.87615"></scales>
<clustering>
<clus scale="   55.876">  2  9  1 -1</clus>
<clus scale="   80.645">  5  6 -1 -1</clus>
<clus scale="   86.951">  2  5  1 -1</clus>
<clus scale="   92.658">  7  8 -1 -1</clus>
<clus scale="   55.876">  2  5  1 -1</clus>
</clustering>
</event>
<event>
 9    2  0.9254368E-005  0.1045274E+03  0.7546771E-02  0.1275343E+00
          2   -1    0    0  502    0 -0.00000000000E+00  0.00000000000E+00  0.69407011310E+03  0.69407011310E+03  0.00000000000E+00 0. -1.
         21   -1    0    0  501  502  0.00000000000E+00 -0.00000000000E+00 -0.45501422576E+02  0.45501422576E+02  0.00000000000E+00 0. -1.
         24    2    1    2    0    0 -0.37088287670E+02  0.42281524914E+02  0.56854495474E+03  0.57694966880E+03  0.80400785632E+02 0.  0.
         23    2    1    2    0    0  0.67409333429E+01 -0.25859163414E+02  0.24359948864E+02  0.97130546493E+02  0.90148762823E+02 0.  0.
        -13    1    3    3    0    0  0.20994504307E+02 -0.48842595540E+01  0.87223059135E+02  0.89847021360E+02  0.00000000000E+00 0.  1.
         14    1    3    3    0    0 -0.58082791977E+02  0.47165784468E+02  0.48132189561E+03  0.48710264744E+03  0.00000000000E+00 0. -1.
        -11    1    4    4    0    0  0.39908053225E+02 -0.20565096009E+02  0.39954882307E+02  0.60099654793E+02  0.00000000000E+00 0.  1.
         11    1    4    4    0    0 -0.33167119882E+02 -0.52940674049E+01 -0.15594933443E+02  0.37030891700E+02  0.00000000000E+00 0. -1.
          1    1    1    2  501    0  0.30347354327E+02 -0.16422361500E+02  0.55663786911E+02  0.65491320380E+02  0.00000000000E+00 0. -1.
<scales pt_clust_5="13000.00000" pt_clust_6="13000.00000" pt_clust_7="13000.00000" pt_clust_8="13000.00000" pt_clust_9="34.50588"></scales>
<clustering>
<clus scale="   34.506">  2  9  1 -1</clus>
<clus scale="   80.401">  5  6 -1 -1</clus>
<clus scale="   90.149">  7  8 -1 -1</clus>
<clus scale="   96.247">  1  5  2 -1</clus>
<clus scale="   34.506">  2  5  1 -1</clus>
</clustering>
</event>
<event>
 9    2  0.1654443E-004  0.2441416E+03  0.7546771E-02  0.1160113E+00
         21   -1    0    0  501  502  0.00000000000E+00  0.00000000000E+00  0.11717418808E+03  0.11717418808E+03  0.00000000000E+00 0.  1.
          2   -1    0    0  502    0 -0.00000000000E+00 -0.00000000000E+00 -0.19638717517E+04  0.19638717517E+04  0.00000000000E+00 0. -1.
         24    2    1    2    0    0 -0.24882311887E+02 -0.24903142398E+02 -0.30394106077E+03  0.31592089329E+03  0.78654602216E+02 0.  0.
         23    2    1    2    0    0  0.95610310578E+02  0.20753512827E+03 -0.40461003355E+02  0.25011723797E+03  0.93324053614E+02 0.  0.
        -13    1    3    3    0    0 -0.50596717085E+02 -0.11458723107E+02 -0.13733387887E+03  0.14680573695E+03  0.00000000000E+00 0.  1.
         14    1    3    3    0    0  0.25714405198E+02 -0.13444419291E+02 -0.16660718190E+03  0.16911515634E+03  0.00000000000E+00 0. -1.
        -13    1    4    4    0    0  0.71318526713E+02  0.49219893571E+02 -0.13909136627E+02  0.87763285361E+02  0.00000000000E+00 0. -1.
         13    1    4    4    0    0  0.24291783865E+02  0.15831523470E+03 -0.26551866727E+02  0.16235395261E+03  0.00000000000E+00 0.  1.
          1    1    1    2  501    0 -0.70727998691E+02 -0.18263198588E+03 -0.15022954995E+04  0.15150078085E+04  0.00000000000E+00 0. -1.
<scales pt_clust_5="13000.00000" pt_clust_6="13000.00000" pt_clust_7="13000.00000" pt_clust_8="13000.00000" pt_clust_9="225.60099"></scales>
<clustering>
<clus scale="   78.655">  5  6 -1 -1</clus>
<clus scale="   86.173">  2  5  1 -1</clus>
<clus scale="   93.324">  7  8 -1 -1</clus>
<clus scale="  225.601">  1  9  2 -1</clus>
<clus scale="  225.601">  1  5  2 -1</clus>
</clustering>
</event>
<event>
 9    2  0.9254368E-005  0.1357737E+03  0.7546771E-02  0.1220210E+00
         21   -1    0    0  501  502  0.00000000000E+00  0.00000000000E+00  0.28475702677E+03  0.28475702677E+03  0.00000000000E+00 0. -1.
         -3   -1    0    0    0  501 -0.00000000000E+00 -0.00000000000E+00 -0.97323439515E+02  0.97323439515E+02  0.00000000000E+00 0.  1.
         24    2    1    2    0    0  0.97431450105E+02  0.35159758903E+02  0.30889570511E+02  0.13900697554E+03  0.87405249083E+02 0.  0.
         23    2    1    2    0    0 -0.72186414652E+02 -0.64960378478E+02  0.15395105048E+03  0.20393128570E+03  0.91958219378E+02 0.  0.
        -13    1    3    3    0    0 -0.95541602016E+01  0.25052008184E+02  0.13930571184E+02  0.30214994700E+02  0.00000000000E+00 0.  1.
         14    1    3    3    0    0  0.10698561031E+03  0.10107750719E+02  0.16958999328E+02  0.10879198084E+03  0.00000000000E+00 0. -1.
        -11    1    4    4    0    0  0.60133702285E+01 -0.27628158603E+02  0.11848506397E+01  0.28299816966E+02  0.00000000000E+00 0.  1.
         11    1    4    4    0    0 -0.78199784881E+02 -0.37332219875E+02  0.15276619984E+03  0.17563146873E+03  0.00000000000E+00 0. -1.
         -4    1    1    2    0  502 -0.25245035453E+02  0.29800619575E+02  0.25929662717E+01  0.39142205050E+02  0.00000000000E+00 0.  1.
<scales pt_clust_5="13000.00000" pt_clust_6="13000.00000" pt_clust_7="13000.00000" pt_clust_8="13000.00000" pt_clust_9="39.05624"></scales>
<clustering>
<clus scale="   39.056">  1  9  2 -1</clus>
<clus scale="   87.405">  5  6 -1 -1</clus>
<clus scale="   91.958">  7  8 -1 -1</clus>
<clus scale="  132.732">  2  5  1 -1</clus>
<clus scale="   39.056">  1  5  2 -1</clus>
</clustering>
</event>
<event>
 9    2  0.9254368E-005  0.2030515E+03  0.7546771E-02  0.1160910E+00
          2   -1    0    0  502    0 -0.00000000000E+00  0.00000000000E+00  0.14223195946E+03  0.14223195946E+03  0.00000000000E+00 0. -1.
         21   -1    0    0  501  502  0.00000000000E+00 -0.00000000000E+00 -0.79298212095E+03  0.79298212095E+03  0.00000000000E+00 0. -1.
         24    2    1    2    0    0  0.72771428832E+02  0.97796859830E+02 -0.25138921489E+03  0.29123241488E+03  0.82218461836E+02 0.  0.
         23    2    1    2    0    0 -0.13538178982E+03  0.11512185893E+03 -0.36934252341E+03  0.42002733128E+03  0.91802984704E+02 0.  0.
        -11    1    3    3    0    0  0.83952248182E+01  0.78300090804E+02 -0.11834116686E+03  0.14214786595E+03  0.00000000000E+00 0.  1.
         12    1    3    3    0    0  0.64376204014E+02  0.19496769027E+02 -0.13304804803E+03  0.14908454893E+03  0.00000000000E+00 0. -1.
        -11    1    4    4    0    0  0.54895029122E+00  0.20668825644E+02 -0.72769854131E+01  0.21919311500E+02  0.00000000000E+00 0.  1.
         11    1    4    4    0    0 -0.13593074011E+03  0.94453033286E+02 -0.36206553800E+03  0.39810801978E+03  0.00000000000E+00 0. -1.
          1    1    1    2  501    0  0.62610360984E+02 -0.21291871876E+03 -0.30018423187E+02  0.22395433426E+03  0.00000000000E+00 0. -1.
<scales pt_clust_5="13000.00000" pt_clust_6="13000.00000" pt_clust_7="13000.00000" pt_clust_8="13000.00000" pt_clust_9="181.11365"></scales>
<clustering>
<clus scale="   82.218">  5  6 -1 -1</clus>
<clus scale="   91.803">  7  8 -1 -1</clus>
<clus scale="  147.037">  1  5  2 -1</clus>
<clus scale="  181.114">  2  9  1 -1</clus>
<clus scale="  181.114">  2  5  1 -1</clus>
</clustering>
</event>
<event>
 9    2  0.9254368E-005  0.1975684E+03  0.7546771E-02  0.1170913E+00
          4   -1    0    0  502    0 -0.00000000000E+00  0.00000000000E+00  0.15096436642E+03  0.15096436642E+03  0.00000000000E+00 0. -1.
         21   -1    0    0  501  502  0.00000000000E+00 -0.00000000000E+00 -0.64078321043E+03  0.64078321043E+03  0.00000000000E+00 0.  1.
         24    2    1    2    0    0  0.98297130036E+02  0.26165299385E+01 -0.20105641083E+02  0.12835259035E+03  0.80006116298E+02 0.  0.
         23    2    1    2    0    0  0.15030897436E+03  0.28074242705E+02 -0.33401690057E+03  0.37850833334E+03  0.91215775326E+02 0.  0.
        -11    1    3    3    0    0  0.97081775080E+02  0.28163993932E+02 -0.18155303815E+02  0.10270197984E+03  0.00000000000E+00 0.  1.
         12    1    3    3    0    0  0.12153549557E+01 -0.25547463993E+02 -0.19503372679E+01  0.25650610512E+02  0.00000000000E+00 0. -1.
        -13    1    4    4    0    0  0.40112633085E+02  0.79957679886E+00 -0.20464683489E+02  0.45038493828E+02  0.00000000000E+00 0. -1.
         13    1    4    4    0    0  0.11019634128E+03  0.27274665906E+02 -0.31355221708E+03  0.33346983951E+03  0.00000000000E+00 0.  1.
          3    1    1    2  501    0 -0.24860610440E+03 -0.30690772644E+02 -0.13569630236E+03  0.28488665315E+03  0.00000000000E+00 0. -1.
<scales pt_clust_5="13000.00000" pt_clust_6="13000.00000" pt_clust_7="13000.00000" pt_clust_8="13000.00000" pt_clust_9="175.25120"></scales>
<clustering>
<clus scale="   80.006">  5  6 -1 -1</clus>
<clus scale="   91.216">  7  8 -1 -1</clus>
<clus scale="  126.768">  1  5  2 -1</clus>
<clus scale="  175.251">  2  9  1 -1</clus>
<clus scale="  175.251">  2  5  1 -1</clus>
</clustering>
</event>
<event>
 9    2  0.9254368E-005  0.1173333E+03  0.7546771E-02  0.1251469E+00
         -3   -1    0    0    0  501 -0.00000000000E+00  0.00000000000E+00  0.54566433882E+03  0.54566433882E+03  0.00000000000E+00 0.  1.
         21   -1    0    0  501  502  0.00000000000E+00 -0.00000000000E+00 -0.38438780053E+02  0.38438780053E+02  0.00000000000E+00 0.  1.
         24    2    1    2    0    0  0.39829478819E+02  0.70722255043E+02  0.38304925946E+03  0.39972837853E+03  0.80423980821E+02 0.  0.
         23    2    1    2    0    0 -0.25517658357E+02 -0.42343742805E+02  0.92390438434E+02  0.13942466678E+03  0.91973371957E+02 0.  0.
        -13    1    3    3    0    0 -0.15386154269E+02  0.49140708082E+02  0.22774586153E+03  0.23349458319E+03  0.00000000000E+00 0.  1.
         14    1    3    3    0    0  0.55215633088E+02  0.21581546961E+02  0.15530339793E+03  0.16623379535E+03  0.00000000000E+00 0. -1.
        -13    1    4    4    0    0  0.10316925616E+02 -0.52172704924E+02  0.86872570778E+02  0.10185908721E+03  0.00000000000E+00 0. -1.
         13    1    4    4    0    0 -0.35834583973E+02  0.98289621195E+01  0.55178676559E+01  0.37565579569E+02  0.00000000000E+00 0.  1.
         -4    1    1    2    0  502 -0.14311820461E+02 -0.28378512238E+02  0.31785860870E+02  0.44950073560E+02  0.00000000000E+00 0.  1.
<scales pt_clust_5="13000.00000" pt_clust_6="13000.00000" pt_clust_7="13000.00000" pt_clust_8="13000.00000" pt_clust_9="31.78314"></scales>
<clustering>
<clus scale="   31.783">  2  9  1 -1</clus>
<clus scale="   80.424">  5  6 -1 -1</clus>
<clus scale="   91.973">  7  8 -1 -1</clus>
<clus scale="  108.517">  1  5  2 -1</clus>
<clus scale="   31.783">  2  5  1 -1</clus>
</clustering>
</event>
<event>
 9    2  0.9254368E-005  0.1203870E+03  0.7546771E-02  0.1245922E+00
         21   -1    0    0  501  502  0.00000000000E+00  0.00000000000E+00  0.43967218971E+03  0.43967218971E+03  0.00000000000E+00 0.  1.
          4   -1    0    0  502    0 -0.00000000000E+00 -0.00000000000E+00 -0.13213885831E+03  0.13213885831E+03  0.00000000000E+00 0. -1.
         23    2    1    2    0    0  0.61687694656E+02  0.26349206559E+02 -0.44420840154E+02  0.12146685183E+03  0.91001827978E+02 0.  0.
         24    2    1    2    0    0 -0.13992163706E+03  0.17948053203E+02  0.12044043234E+03  0.20198677550E+03  0.79953502766E+02 0.  0.
        -11    1    4    4    0    0 -0.14265641938E+03 -0.13435319489E+01  0.10555230889E+03  0.17746534586E+03  0.00000000000E+00 0.  1.
         12    1    4    4    0    0  0.27347823193E+01  0.19291585152E+02  0.14888123450E+02  0.24521429646E+02  0.00000000000E+00 0. -1.
        -11    1    3    3    0    0  0.22361830108E+02  0.10798710737E+02  0.28110209071E+02  0.37507965199E+02  0.00000000000E+00 0.  1.
         11    1    3    3    0    0  0.39325864548E+02  0.15550495822E+02 -0.72531049225E+02  0.83958886631E+02  0.00000000000E+00 0. -1.
          3    1    1    2  501    0  0.78233942402E+02 -0.44297259762E+02  0.23151373921E+03  0.24835742069E+03  0.00000000000E+00 0. -1.
<scales pt_clust_5="13000.00000" pt_clust_6="13000.00000" pt_clust_7="13000.00000" pt_clust_8="13000.00000" pt_clust_9="89.90438"></scales>
<clustering>
<clus scale="   79.954">  5  6 -1 -1</clus>
<clus scale="   89.904">  1  9  2 -1</clus>
<clus scale="   91.002">  7  8 -1 -1</clus>
<clus scale="  112.269">  1  5  2 -1</clus>
<clus scale="   89.904">  1  5  2 -1</clus>
</clustering>
</event>
<event>
 9    2  0.9254368E-005  0.9776493E+02  0.7546771E-02  0.1288309E+00
          4   -1    0    0  502    0 -0.00000000000E+00  0.00000000000E+00  0.36267844190E+02  0.36267844190E+02  0.00000000000E+00 0. -1.
         21   -1    0    0  501  502  0.00000000000E+00 -0.00000000000E+00 -0.70555498164E+03  0.70555498164E+03  0.00000000000E+00 0. -1.
         24    2    1    2    0    0  0.97535682192E+01 -0.18201070489E+02 -0.10124487211E+03  0.13280781851E+03  0.83432496480E+02 0.  0.
         23    2    1    2    0    0  0.32815631827E+02  0.76696408209E+02 -0.20502603429E+03  0.23886014063E+03  0.89773533523E+02 0.  0.
        -13    1    3    3    0    0  0.12490465056E+01 -0.24587134575E+02 -0.11375467428E+03  0.11638820053E+03  0.00000000000E+00 0.  1.
         14    1    3    3    0    0  0.85045217136E+01  0.63860640861E+01  0.12509802170E+02  0.16419617974E+02  0.00000000000E+00 0. -1.
        -13    1    4    4    0    0  0.23566422288E+02  0.95171751417E+02 -0.14220727647E+03  0.17273085424E+03  0.00000000000E+00 0. -1.
         13    1    4    4    0    0  0.92492095392E+01 -0.18475343208E+02 -0.62818757825E+02  0.66129286390E+02  0.00000000000E+00 0.  1.
          3    1    1    2  501    0 -0.42569200046E+02 -0.58495337720E+02 -0.36301623105E+03  0.37015486669E+03  0.00000000000E+00 0. -1.
<scales pt_clust_5="13000.00000" pt_clust_6="13000.00000" pt_clust_7="13000.00000" pt_clust_8="13000.00000" pt_clust_9="72.34529"></scales>
<clustering>
<clus scale="   72.345">  2  9  1 -1</clus>
<clus scale="   83.432">  5  6 -1 -1</clus>
<clus scale="   89.774">  7  8 -1 -1</clus>
<clus scale="   91.976">  1  5  2 -1</clus>
<clus scale="   72.345">  2  5  1 -1</clus>
</clustering>
</event>
<event>
 9    2  0.9254368E-005  0.1153353E+03  0.7546771E-02  0.1257049E+00
         21   -1    0    0  501  502  0.00000000000E+00  0.00000000000E+00  0.10698545766E+03  0.10698545766E+03  0.00000000000E+00 0.  1.
         -1   -1    0    0    0  501 -0.00000000000E+00 -0.00000000000E+00 -0.49703278178E+03  0.49703278178E+03  0.00000000000E+00 0.  1.
         23    2    1    2    0    0 -0.22697809141E+02 -0.66612120824E+02 -0.37128441764E+03  0.38894767976E+03  0.92064182118E+02 0.  0.
         24    2    1    2    0    0  0.22363321581E+01  0.69320526726E+02 -0.92899276146E+02  0.13811467095E+03  0.75066971544E+02 0.  0.
        -11    1    4    4    0    0  0.30345745599E+02  0.76234258930E+01 -0.14558397220E+02  0.34509822195E+02  0.00000000000E+00 0.  1.
         12    1    4    4    0    0 -0.28109413441E+02  0.61697100833E+02 -0.78340878926E+02  0.10360484876E+03  0.00000000000E+00 0. -1.
        -11    1    3    3    0    0 -0.40728181245E+02 -0.50291347208E+01 -0.23188632953E+03  0.23548958951E+03  0.00000000000E+00 0.  1.
         11    1    3    3    0    0  0.18030372104E+02 -0.61582986103E+02 -0.13939808811E+03  0.15345809025E+03  0.00000000000E+00 0. -1.
         -2    1    1    2    0  502  0.20461476982E+02 -0.27084059020E+01  0.74136369661E+02  0.76955888725E+02  0.00000000000E+00 0.  1.
<scales pt_clust_5="13000.00000" pt_clust_6="13000.00000" pt_clust_7="13000.00000" pt_clust_8="13000.00000" pt_clust_9="20.63995"></scales>
<clustering>
<clus scale="   20.640">  1  9  2 -1</clus>
<clus scale="   75.067">  5  6 -1 -1</clus>
<clus scale="   92.064">  7  8 -1 -1</clus>
<clus scale="  102.281">  1  5  2 -1</clus>
<clus scale="   20.640">  1  5  2 -1</clus>
</clustering>
</event>
<event>
 9    2  0.9254368E-005  0.1083586E+03  0.7546771E-02  0.1268922E+00
         21   -1    0    0  501  502  0.00000000000E+00  0.00000000000E+00  0.25906488847E+03  0.25906488847E+03  0.00000000000E+00 0.  1.
          2   -1    0    0  502    0 -0.00000000000E+00 -0.00000000000E+00 -0.21789911692E+03  0.21789911692E+03  0.00000000000E+00 0. -1.
         24    2    1    2    0    0  0.36544969427E+02  0.44753233457E+02 -0.16898609085E+03  0.19539092377E+03  0.79264919690E+02 0.  0.
         23    2    1    2    0    0 -0.78967346203E+02  0.29069544305E+01  0.15791487947E+03  0.19911185470E+03  0.92000703103E+02 0.  0.
        -11    1    3    3    0    0  0.23948123239E+02 -0.20312458999E+02 -0.46219807692E+02  0.55878253555E+02  0.00000000000E+00 0.  1.
         12    1    3    3    0    0  0.12596846188E+02  0.65065692455E+02 -0.12276628316E+03  0.13951267021E+03  0.00000000000E+00 0. -1.
        -11    1    4    4    0    0 -0.55507780334E+02  0.44573681944E+02  0.75068697416E+02  0.10345644558E+03  0.00000000000E+00 0. -1.
         11    1    4    4    0    0 -0.23459565868E+02 -0.41666727514E+02  0.82846182057E+02  0.95655409120E+02  0.00000000000E+00 0.  1.
          1    1    1    2  501    0  0.42422376775E+02 -0.47660187887E+02  0.52236982925E+02  0.82461226924E+02  0.00000000000E+00 0. -1.
<scales pt_clust_5="13000.00000" pt_clust_6="13000.00000" pt_clust_7="13000.00000" pt_clust_8="13000.00000" pt_clust_9="63.80558"></scales>
<clustering>
<clus scale="   63.806">  1  9  2 -1</clus>
<clus scale="   79.265">  5  6 -1 -1</clus>
<clus scale="   92.001">  7  8 -1 -1</clus>
<clus scale="   97.777">  2  5  1 -1</clus>
<clus scale="   63.806">  1  5  2 -1</clus>
</clustering>
</event>
<event>
 9    2  0.9254368E-005  0.1009852E+03  0.7546771E-02  0.1280451E+00
          2   -1    0    0  502    0 -0.00000000000E+00  0.00000000000E+00  0.66619417112E+03  0.66619417112E+03  0.00000000000E+00 0. -1.
         21   -1    0    0  501  502  0.00000000000E+00 -0.00000000000E+00 -0.35162164662E+02  0.35162164662E+02  0.00000000000E+00 0. -1.
         24    2    1    2    0    0 -0.64329926291E+01  0.27284964075E+02  0.27471839534E+03  0.29016597001E+03  0.89108028547E+02 0.  0.
         23    2    1    2    0    0  0.70382368896E+02 -0.38885424425E+02  0.14656703936E+03  0.19160503437E+03  0.93620713975E+02 0.  0.
        -11    1    3    3    0    0  0.37505866673E+02  0.28145060895E+02  0.17537976927E+03  0.18154034801E+03  0.00000000000E+00 0.  1.
         12    1    3    3    0    0 -0.43938859302E+02 -0.86009682040E+00  0.99338626071E+02  0.10862562199E+03  0.00000000000E+00 0. -1.
        -13    1    4    4    0    0  0.56321245792E+02 -0.55366537941E+02  0.15014256368E+03  0.16964765156E+03  0.00000000000E+00 0. -1.
         13    1    4    4    0    0  0.14061123104E+02  0.16481113516E+02 -0.35755243212E+01  0.21957382810E+02  0.00000000000E+00 0.  1.
          1    1    1    2  501    0 -0.63949376267E+02  0.11600460350E+02  0.20974657176E+03  0.21958533141E+03  0.00000000000E+00 0. -1.
<scales pt_clust_5="13000.00000" pt_clust_6="13000.00000" pt_clust_7="13000.00000" pt_clust_8="13000.00000" pt_clust_9="64.99306"></scales>
<clustering>
<clus scale="   64.993">  2  9  1 -1</clus>
<clus scale="   89.108">  5  6 -1 -1</clus>
<clus scale="   93.621">  7  8 -1 -1</clus>
<clus scale="   96.816">  1  5  2 -1</clus>
<clus scale="   64.993">  2  5  1 -1</clus>
</clustering>
</event>
<event>
 9    2  0.9254368E-005  0.3417494E+03  0.7546771E-02  0.1118203E+00
          2   -1    0    0  502    0 -0.00000000000E+00  0.00000000000E+00  0.30840298824E+03  0.30840298824E+03  0.00000000000E+00 0. -1.
         21   -1    0    0  501  502  0.00000000000E+00 -0.00000000000E+00 -0.57016761622E+03  0.57016761622E+03  0.00000000000E+00 0.  1.
         24    2    1    2    0    0 -0.24058820166E+02 -0.25776102042E+02  0.84718905621E+02  0.12107774722E+03  0.78989199497E+02 0.  0.
         23    2    1    2    0    0  0.31246279450E+03 -0.12534457734E+03 -0.19383608213E+03  0.39788813454E+03  0.86013253986E+02 0.  0.
        -11    1    3    3    0    0  0.95427433700E+01 -0.42682935782E+02  0.65703288203E+02  0.78929202699E+02  0.00000000000E+00 0.  1.
         12    1    3    3    0    0 -0.33601563536E+02  0.16906833740E+02  0.19015617418E+02  0.42148544517E+02  0.00000000000E+00 0. -1.
        -11    1    4    4    0    0  0.38100968567E+02  0.46498371421E+01 -0.13428913506E+01  0.38407136686E+02  0.00000000000E+00 0. -1.
         11    1    4    4    0    0  0.27436182593E+03 -0.12999441448E+03 -0.19249319078E+03  0.35948099786E+03  0.00000000000E+00 0.  1.
          1    1    1    2  501    0 -0.28840397433E+03  0.15112067938E+03 -0.15264745147E+03  0.35960472270E+03  0.00000000000E+00 0. -1.
<scales pt_clust_5="13000.00000" pt_clust_6="13000.00000" pt_clust_7="13000.00000" pt_clust_8="13000.00000" pt_clust_9="330.74841"></scales>
<clustering>
<clus scale="   78.989">  5  6 -1 -1</clus>
<clus scale="   86.013">  7  8 -1 -1</clus>
<clus scale="   86.502">  1  5  2 -1</clus>
<clus scale="  330.748">  2  9  1 -1</clus>
<clus scale="  330.748">  2  5  1 -1</clus>
</clustering>
</event>
<event>
 9    2  0.9254368E-005  0.1413266E+03  0.7546771E-02  0.1229385E+00
          2   -1    0    0  502    0 -0.00000000000E+00  0.00000000000E+00  0.17008207810E+03  0.17008207810E+03  0.00000000000E+00 0. -1.
         21   -1    0    0  501  502  0.00000000000E+00 -0.00000000000E+00 -0.31066094468E+03  0.31066094468E+03  0.00000000000E+00 0. -1.
         23    2    1    2    0    0 -0.34390207370E+02 -0.10587194370E+01  0.78778385491E+02  0.12513015697E+03  0.90926975710E+02 0.  0.
         24    2    1    2    0    0 -0.68220318580E+02  0.77140109163E+02 -0.36156043211E+02  0.13227460033E+03  0.74730864602E+02 0.  0.
        -11    1    4    4    0    0 -0.74722299981E+01  0.61970078407E+02 -0.57923043533E+01  0.62687124903E+02  0.00000000000E+00 0.  1.
         12    1    4    4    0    0 -0.60748088582E+02  0.15170030756E+02 -0.30363738858E+02  0.69587475431E+02  0.00000000000E+00 0. -1.
        -11    1    3    3    0    0  0.22630647781E+02  0.17179330277E+02  0.30198788620E+01  0.28572631592E+02  0.00000000000E+00 0.  1.
         11    1    3    3    0    0 -0.57020855151E+02 -0.18238049714E+02  0.75758506629E+02  0.96557525373E+02  0.00000000000E+00 0. -1.
          1    1    1    2  501    0  0.10261052595E+03 -0.76081389726E+02 -0.18320120886E+03  0.22333826548E+03  0.00000000000E+00 0. -1.
<scales pt_clust_5="13000.00000" pt_clust_6="13000.00000" pt_clust_7="13000.00000" pt_clust_8="13000.00000" pt_clust_9="119.95210"></scales>
<clustering>
<clus scale="   74.731">  5  6 -1 -1</clus>
<clus scale="   90.927">  7  8 -1 -1</clus>
<clus scale="   97.219">  1  7  2 -1</clus>
<clus scale="  119.952">  2  9  1 -1</clus>
<clus scale="  119.952">  2  5  1 -1</clus>
</clustering>
</event>
<event>
 9    2  0.9254368E-005  0.1113077E+03  0.7546771E-02  0.1263850E+00
         -1   -1    0    0    0  501 -0.00000000000E+00  0.00000000000E+00  0.24485062028E+03  0.24485062028E+03  0.00000000000E+00 0.  1.
         21   -1    0    0  501  502  0.00000000000E+00 -0.00000000000E+00 -0.10862108001E+03  0.10862108001E+03  0.00000000000E+00 0.  1.
         23    2    1    2    0    0  0.16375414970E+02 -0.45528194052E+02  0.51051960445E+02  0.11771944950E+03  0.94395950418E+02 0.  0.
         24    2    1    2    0    0 -0.13948013502E+02  0.81545301142E+02 -0.26624095874E+02  0.11826719231E+03  0.80212861036E+02 0.  0.
        -13    1    4    4    0    0 -0.23000765435E+02 -0.79493177239E+01  0.41685942442E+00  0.24339281720E+02  0.00000000000E+00 0.  1.
         14    1    4    4    0    0  0.90527519324E+01  0.89494618866E+02 -0.27040955299E+02  0.93927910586E+02  0.00000000000E+00 0. -1.
        -11    1    3    3    0    0 -0.46149356310E+01 -0.56918469050E+02  0.67729707925E+02  0.88590761852E+02  0.00000000000E+00 0. -1.
         11    1    3    3    0    0  0.20990350601E+02  0.11390274998E+02 -0.16677747480E+02  0.29128687645E+02  0.00000000000E+00 0.  1.
         -2    1    1    2    0  502 -0.24274014680E+01 -0.36017107090E+02  0.11180167570E+03  0.11748505850E+03  0.00000000000E+00 0.  1.
<scales pt_clust_5="13000.00000" pt_clust_6="13000.00000" pt_clust_7="13000.00000" pt_clust_8="13000.00000" pt_clust_9="36.09883"></scales>
<clustering>
<clus scale="   36.099">  2  9  1 -1</clus>
<clus scale="   80.213">  5  6 -1 -1</clus>
<clus scale="   94.396">  7  8 -1 -1</clus>
<clus scale="   99.564">  2  5  1 -1</clus>
<clus scale="   36.099">  2  5  1 -1</clus>
</clustering>
</event>
<event>
 9    2  0.9254368E-005  0.1025149E+03  0.7546771E-02  0.1283779E+00
         21   -1    0    0  501  502  0.00000000000E+00  0.00000000000E+00  0.94850859075E+02  0.94850859075E+02  0.00000000000E+00 0.  1.
          2   -1    0    0  502    0 -0.00000000000E+00 -0.00000000000E+00 -0.31339021908E+03  0.31339021908E+03  0.00000000000E+00 0. -1.
         24    2    1    2    0    0 -0.75051617794E+01  0.29501263604E+02 -0.18640402408E+03  0.20534912936E+03  0.80592510369E+02 0.  0.
         23    2    1    2    0    0 -0.14697941898E+02 -0.40026488050E+02 -0.90533670219E+02  0.13953483704E+03  0.97239272221E+02 0.  0.
        -13    1    3    3    0    0 -0.34133769492E+02  0.30615623095E+01 -0.33560760897E+02  0.47966780749E+02  0.00000000000E+00 0.  1.
         14    1    3    3    0    0  0.26628607712E+02  0.26439701294E+02 -0.15284326319E+03  0.15738234861E+03  0.00000000000E+00 0. -1.
        -13    1    4    4    0    0  0.17310363047E+02 -0.60545486522E+02 -0.34451458964E+02  0.71779576703E+02  0.00000000000E+00 0.  1.
         13    1    4    4    0    0 -0.32008304945E+02  0.20518998472E+02 -0.56082211255E+02  0.67755260334E+02  0.00000000000E+00 0. -1.
          1    1    1    2  501    0  0.22203103678E+02  0.10525224446E+02  0.58398334292E+02  0.63357111760E+02  0.00000000000E+00 0. -1.
<scales pt_clust_5="13000.00000" pt_clust_6="13000.00000" pt_clust_7="13000.00000" pt_clust_8="13000.00000" pt_clust_9="24.57149"></scales>
<clustering>
<clus scale="   24.571">  1  9  2 -1</clus>
<clus scale="   80.593">  5  6 -1 -1</clus>
<clus scale="   86.885">  2  5  1 -1</clus>
<clus scale="   97.239">  7  8 -1 -1</clus>
<clus scale="   24.571">  1  5  2 -1</clus>
</clustering>
</event>
<event>
 9    2  0.9254368E-005  0.2449175E+03  0.7546771E-02  0.1151865E+00
         21   -1    0    0  501  502  0.00000000000E+00  0.00000000000E+00  0.74960123450E+03  0.74960123450E+03  0.00000000000E+00 0.  1.
         -1   -1    0    0    0  501 -0.00000000000E+00 -0.00000000000E+00 -0.22599221057E+03  0.22599221057E+03  0.00000000000E+00 0.  1.
         23    2    1    2    0    0  0.46386506100E+02 -0.81598134512E+01 -0.12590754737E+03  0.16302983756E+03  0.92237340295E+02 0.  0.
         24    2    1    2    0    0  0.19874921813E+03 -0.38258145347E+02  0.18721918995E+03  0.28723987971E+03  0.80565414536E+02 0.  0.
        -13    1    4    4    0    0  0.15348035740E+03 -0.62929594264E+02  0.13517038117E+03  0.21397987262E+03  0.00000000000E+00 0.  1.
         14    1    4    4    0    0  0.45268860726E+02  0.24671448917E+02  0.52048808784E+02  0.73260007090E+02  0.00000000000E+00 0. -1.
        -11    1    3    3    0    0  0.64419862344E+02  0.21740825138E+02 -0.91630193042E+02  0.11409940587E+03  0.00000000000E+00 0.  1.
         11    1    3    3    0    0 -0.18033356245E+02 -0.29900638589E+02 -0.34277354331E+02  0.48930431691E+02  0.00000000000E+00 0. -1.
         -2    1    1    2    0  502 -0.24513572423E+03  0.46417958798E+02  0.46229738135E+03  0.52532372780E+03  0.00000000000E+00 0.  1.
<scales pt_clust_5="13000.00000" pt_clust_6="13000.00000" pt_clust_7="13000.00000" pt_clust_8="13000.00000" pt_clust_9="231.28728"></scales>
<clustering>
<clus scale="   80.565">  5  6 -1 -1</clus>
<clus scale="   92.237">  7  8 -1 -1</clus>
<clus scale="  103.566">  2  7  1 -1</clus>
<clus scale="  231.287">  1  9  2 -1</clus>
<clus scale="  231.287">  1  5  2 -1</clus>
</clustering>
</event>
<event>
 9    2  0.9254368E-005  0.2257979E+03  0.7546771E-02  0.1130152E+00
          2   -1    0    0  502    0 -0.00000000000E+00  0.00000000000E+00  0.33580838666E+03  0.33580838666E+03  0.00000000000E+00 0. -1.
         21   -1    0    0  501  502  0.00000000000E+00 -0.00000000000E+00 -0.21574283735E+03  0.21574283735E+03  0.00000000000E+00 0. -1.
         23    2    1    2    0    0  0.69603060632E+02  0.19933135916E+03  0.18014142214E+03  0.29202755800E+03  0.90838240131E+02 0.  0.
         24    2    1    2    0    0 -0.92345487560E+02 -0.17385472350E+03 -0.68172147383E+02  0.22442627851E+03  0.83465914317E+02 0.  0.
        -13    1    4    4    0    0 -0.27437440080E+02 -0.11304016403E+02  0.11871450861E+02  0.31961308649E+02  0.00000000000E+00 0.  1.
         14    1    4    4    0    0 -0.64908047481E+02 -0.16255070710E+03 -0.80043598244E+02  0.19246496987E+03  0.00000000000E+00 0. -1.
        -11    1    3    3    0    0 -0.14244802973E+02  0.24108050885E+02  0.13732808041E+01  0.28035663526E+02  0.00000000000E+00 0.  1.
         11    1    3    3    0    0  0.83847863604E+02  0.17522330827E+03  0.17876814134E+03  0.26399189448E+03  0.00000000000E+00 0. -1.
          1    1    1    2  501    0  0.22742426929E+02 -0.25476635657E+02  0.80962745573E+01  0.35097387491E+02  0.00000000000E+00 0. -1.
<scales pt_clust_5="13000.00000" pt_clust_6="13000.00000" pt_clust_7="13000.00000" pt_clust_8="13000.00000" pt_clust_9="34.15081"></scales>
<clustering>
<clus scale="   34.151">  2  9  1 -1</clus>
<clus scale="   83.466">  5  6 -1 -1</clus>
<clus scale="   90.838">  7  8 -1 -1</clus>
<clus scale="  222.934">  2  5  1 -1</clus>
<clus scale="   34.151">  2  5  1 -1</clus>
</clustering>
</event>
<event>
 9    2  0.9254368E-005  0.1036903E+03  0.7546771E-02  0.1277931E+00
         -3   -1    0    0    0  501 -0.00000000000E+00  0.00000000000E+00  0.94288035297E+02  0.94288035297E+02  0.00000000000E+00 0.  1.
         21   -1    0    0  501  502  0.00000000000E+00 -0.00000000000E+00 -0.38141072958E+03  0.38141072958E+03  0.00000000000E+00 0.  1.
         24    2    1    2    0    0 -0.42303191673E+02 -0.16455507505E+02  0.41742985570E+02  0.10141403582E+03  0.80510782280E+02 0.  0.
         23    2    1    2    0    0  0.60035379395E+02  0.55787305615E+02 -0.29432232793E+03  0.31901571436E+03  0.91809166445E+02 0.  0.
        -13    1    3    3    0    0 -0.56481166776E+02  0.97050991626E+01  0.42976357300E+02  0.71632942400E+02  0.00000000000E+00 0.  1.
         14    1    3    3    0    0  0.14177975103E+02 -0.26160606667E+02 -0.12333717300E+01  0.29781093416E+02  0.00000000000E+00 0. -1.
        -11    1    4    4    0    0 -0.15604593327E+02  0.28914833969E+02 -0.37093902169E+02  0.49553289845E+02  0.00000000000E+00 0. -1.
         11    1    4    4    0    0  0.75639972721E+02  0.26872471645E+02 -0.25722842576E+03  0.26946242451E+03  0.00000000000E+00 0.  1.
         -4    1    1    2    0  502 -0.17732187722E+02 -0.39331798110E+02 -0.34543351927E+02  0.55269014704E+02  0.00000000000E+00 0.  1.
<scales pt_clust_5="13000.00000" pt_clust_6="13000.00000" pt_clust_7="13000.00000" pt_clust_8="13000.00000" pt_clust_9="43.14419"></scales>
<clustering>
<clus scale="   43.144">  2  9  1 -1</clus>
<clus scale="   80.511">  5  6 -1 -1</clus>
<clus scale="   91.809">  7  8 -1 -1</clus>
<clus scale="   93.834">  1  5  2 -1</clus>
<clus scale="   43.144">  2  5  1 -1</clus>
</clustering>
</event>
<event>
 9    2  0.9254368E-005  0.1924460E+03  0.7546771E-02  0.1185002E+00
         21   -1    0    0  501  502  0.00000000000E+00  0.00000000000E+00  0.12791188544E+03  0.12791188544E+03  0.00000000000E+00 0.  1.
          2   -1    0    0  502    0 -0.00000000000E+00 -0.00000000000E+00 -0.66278138555E+03  0.66278138555E+03  0.00000000000E+00 0. -1.
         24    2    1    2    0    0 -0.19864881510E+02 -0.60698885985E+02 -0.20717183859E+03  0.22996378044E+03  0.76708547965E+02 0.  0.
         23    2    1    2    0    0 -0.12262511661E+03 -0.67521803705E+02 -0.41238645448E+01  0.18463914647E+03  0.12032661780E+03 0.  0.
        -13    1    3    3    0    0  0.25612074807E+02 -0.18899046579E+02 -0.36345772016E+02  0.48313222631E+02  0.00000000000E+00 0.  1.
         14    1    3    3    0    0 -0.45476956317E+02 -0.41799839406E+02 -0.17082606658E+03  0.18165055781E+03  0.00000000000E+00 0. -1.
        -13    1    4    4    0    0 -0.13462520313E+03 -0.47269287918E+02  0.27405906054E+02  0.14529079319E+03  0.00000000000E+00 0.  1.
         13    1    4    4    0    0  0.12000086519E+02 -0.20252515787E+02 -0.31529770599E+02  0.39348353285E+02  0.00000000000E+00 0. -1.
          1    1    1    2  501    0  0.14248999812E+03  0.12822068969E+03 -0.32357379697E+03  0.37609034409E+03  0.00000000000E+00 0. -1.
<scales pt_clust_5="13000.00000" pt_clust_6="13000.00000" pt_clust_7="13000.00000" pt_clust_8="13000.00000" pt_clust_9="150.18987"></scales>
<clustering>
<clus scale="   76.709">  5  6 -1 -1</clus>
<clus scale="   99.816">  2  5  1 -1</clus>
<clus scale="  120.327">  7  8 -1 -1</clus>
<clus scale="  150.190">  1  9  2 -1</clus>
<clus scale="  150.190">  1  5  2 -1</clus>
</clustering>
</event>
<event>
 9    2  0.9254368E-005  0.9509784E+02  0.7546771E-02  0.1299572E+00
         -1   -1    0    0    0  501 -0.00000000000E+00  0.00000000000E+00  0.65199474302E+03  0.65199474302E+03  0.00000000000E+00 0.  1.
         21   -1    0    0  501  502  0.00000000000E+00 -0.00000000000E+00 -0.25404302773E+02  0.25404302773E+02  0.00000000000E+00 0.  1.
         23    2    1    2    0    0  0.37301180169E+02  0.74279278039E+01  0.41420515911E+03  0.42595273635E+03  0.91778361388E+02 0.  0.
         24    2    1    2    0    0  0.12743201875E+02 -0.21272322386E+02  0.10952700604E+03  0.13622507793E+03  0.77111645752E+02 0.  0.
        -11    1    4    4    0    0 -0.10581955024E+01  0.22178280204E+02  0.77219675042E+02  0.80348454273E+02  0.00000000000E+00 0.  1.
         12    1    4    4    0    0  0.13801397377E+02 -0.43450602589E+02  0.32307331003E+02  0.55876623658E+02  0.00000000000E+00 0. -1.
        -13    1    3    3    0    0  0.53905929570E+02  0.36930737497E+02  0.28371301908E+03  0.29114052588E+03  0.00000000000E+00 0. -1.
         13    1    3    3    0    0 -0.16604749400E+02 -0.29502809693E+02  0.13049214003E+03  0.13481221047E+03  0.00000000000E+00 0.  1.
         -2    1    1    2    0  502 -0.50044382044E+02  0.13844394582E+02  0.10285827509E+03  0.11522123151E+03  0.00000000000E+00 0.  1.
<scales pt_clust_5="13000.00000" pt_clust_6="13000.00000" pt_clust_7="13000.00000" pt_clust_8="13000.00000" pt_clust_9="51.92405"></scales>
<clustering>
<clus scale="   51.924">  2  9  1 -1</clus>
<clus scale="   77.112">  5  6 -1 -1</clus>
<clus scale="   81.034">  2  5  1 -1</clus>
<clus scale="   91.778">  7  8 -1 -1</clus>
<clus scale="   51.924">  2  5  1 -1</clus>
</clustering>
</event>
<event>
 9    2  0.9254368E-005  0.1831346E+03  0.7546771E-02  0.1165971E+00
         21   -1    0    0  501  502  0.00000000000E+00  0.00000000000E+00  0.12658499942E+03  0.12658499942E+03  0.00000000000E+00 0.  1.
          2   -1    0    0  502    0 -0.00000000000E+00 -0.00000000000E+00 -0.12570096906E+04  0.12570096906E+04  0.00000000000E+00 0. -1.
         24    2    1    2    0    0  0.56370871222E+02  0.14865211965E+03 -0.99173584252E+03  0.10078451119E+04  0.83286616434E+02 0.  0.
         23    2    1    2    0    0 -0.11609909858E+03 -0.11511668173E+03 -0.20646927862E+03  0.27938426583E+03  0.93247808962E+02 0.  0.
        -13    1    3    3    0    0 -0.18381397927E+02  0.17030195625E+02 -0.87097957195E+02  0.90630886018E+02  0.00000000000E+00 0.  1.
         14    1    3    3    0    0  0.74752269149E+02  0.13162192402E+03 -0.90463788532E+03  0.91721422590E+03  0.00000000000E+00 0. -1.
        -11    1    4    4    0    0 -0.72925946712E+01 -0.26597414149E+02  0.25134902256E+01  0.27693356777E+02  0.00000000000E+00 0. -1.
         11    1    4    4    0    0 -0.10880650391E+03 -0.88519267580E+02 -0.20898276885E+03  0.25169090906E+03  0.00000000000E+00 0.  1.
          1    1    1    2  501    0  0.59728227358E+02 -0.33535437921E+02  0.67780429908E+02  0.96365312319E+02  0.00000000000E+00 0. -1.
<scales pt_clust_5="13000.00000" pt_clust_6="13000.00000" pt_clust_7="13000.00000" pt_clust_8="13000.00000" pt_clust_9="68.49881"></scales>
<clustering>
<clus scale="   68.499">  1  9  2 -1</clus>
<clus scale="   83.287">  5  6 -1 -1</clus>
<clus scale="   93.248">  7  8 -1 -1</clus>
<clus scale="  178.269">  2  5  1 -1</clus>
<clus scale="   68.499">  1  5  2 -1</clus>
</clustering>
</event>
<event>
 9    2  0.9254368E-005  0.1448363E+03  0.7546771E-02  0.1209189E+00
         21   -1    0    0  501  502  0.00000000000E+00  0.00000000000E+00  0.11375391410E+03  0.11375391410E+03  0.00000000000E+00 0.  1.
          2   -1    0    0  502    0 -0.00000000000E+00 -0.00000000000E+00 -0.42030411503E+03  0.42030411503E+03  0.00000000000E+00 0. -1.
         24    2    1    2    0    0 -0.48910793204E+02  0.11374687303E+03 -0.27006242250E+03  0.30792788158E+03  0.80964506962E+02 0.  0.
         23    2    1    2    0    0  0.38848752638E+02 -0.82393454544E+02 -0.93912726342E+02  0.15993417975E+03  0.91986057371E+02 0.  0.
        -11    1    3    3    0    0  0.22579312082E+02  0.29698656457E+02 -0.60103122668E+02  0.70740517979E+02  0.00000000000E+00 0.  1.
         12    1    3    3    0    0 -0.71490105286E+02  0.84048216569E+02 -0.20995929984E+03  0.23718736360E+03  0.00000000000E+00 0. -1.
        -13    1    4    4    0    0  0.35305694723E+02  0.10145642462E+02 -0.29767676446E+02  0.47281504860E+02  0.00000000000E+00 0. -1.
         13    1    4    4    0    0  0.35430579153E+01 -0.92539097007E+02 -0.64145049895E+02  0.11265267489E+03  0.00000000000E+00 0.  1.
          1    1    1    2  501    0  0.10062040566E+02 -0.31353418482E+02  0.57424947914E+02  0.66195967806E+02  0.00000000000E+00 0. -1.
<scales pt_clust_5="13000.00000" pt_clust_6="13000.00000" pt_clust_7="13000.00000" pt_clust_8="13000.00000" pt_clust_9="32.92843"></scales>
<clustering>
<clus scale="   32.928">  1  9  2 -1</clus>
<clus scale="   80.965">  5  6 -1 -1</clus>
<clus scale="   91.986">  7  8 -1 -1</clus>
<clus scale="  138.099">  2  5  1 -1</clus>
<clus scale="   32.928">  1  5  2 -1</clus>
</clustering>
</event>
<event>
 9    2  0.9254368E-005  0.9164766E+02  0.7546771E-02  0.1305273E+00
         21   -1    0    0  501  502  0.00000000000E+00  0.00000000000E+00  0.37822908935E+03  0.37822908935E+03  0.00000000000E+00 0. -1.
         -1   -1    0    0    0  501 -0.00000000000E+00 -0.00000000000E+00 -0.47151418318E+02  0.47151418318E+02  0.00000000000E+00 0.  1.
         23    2    1    2    0    0  0.17488682583E+02 -0.11973271143E+02  0.15897988714E+02  0.93679278198E+02  0.89854592972E+02 0.  0.
         24    2    1    2    0    0  0.32841446217E+01  0.12237306911E+02  0.21974655148E+03  0.23403310506E+03  0.79513584302E+02 0.  0.
        -11    1    4    4    0    0  0.40633050165E+02  0.14545755155E+01  0.13050758889E+03  0.13669451823E+03  0.00000000000E+00 0.  1.
         12    1    4    4    0    0 -0.37348905543E+02  0.10782731395E+02  0.89238962591E+02  0.97338586829E+02  0.00000000000E+00 0. -1.
        -13    1    3    3    0    0  0.15566610861E+02 -0.33133479923E+02 -0.27214424440E+02  0.45615477232E+02  0.00000000000E+00 0.  1.
         13    1    3    3    0    0  0.19220717212E+01  0.21160208780E+02  0.43112413154E+02  0.48063800966E+02  0.00000000000E+00 0. -1.
         -2    1    1    2    0  502 -0.20772827204E+02 -0.26403576764E+00  0.95433130832E+02  0.97668124408E+02  0.00000000000E+00 0.  1.
<scales pt_clust_5="13000.00000" pt_clust_6="13000.00000" pt_clust_7="13000.00000" pt_clust_8="13000.00000" pt_clust_9="20.77451"></scales>
<clustering>
<clus scale="   20.775">  1  9  2 -1</clus>
<clus scale="   79.514">  5  6 -1 -1</clus>
<clus scale="   81.534">  1  5  2 -1</clus>
<clus scale="   89.855">  7  8 -1 -1</clus>
<clus scale="   20.775">  1  5  2 -1</clus>
</clustering>
</event>
<event>
 9    2  0.9254368E-005  0.2410890E+03  0.7546771E-02  0.1119621E+00
          2   -1    0    0  502    0 -0.00000000000E+00  0.00000000000E+00  0.21293178026E+04  0.21293178026E+04  0.00000000000E+00 0. -1.
         21   -1    0    0  501  502  0.00000000000E+00 -0.00000000000E+00 -0.64244707242E+02  0.64244707242E+02  0.00000000000E+00 0. -1.
         23    2    1    2    0    0  0.27433918220E+03 -0.68117519596E+02  0.15753811529E+04  0.16031022588E+04  0.90604038549E+02 0.  0.
         24    2    1    2    0    0 -0.14484775948E+03  0.28065742498E+02  0.38141361452E+03  0.41697719800E+03  0.81394588156E+02 0.  0.
        -11    1    4    4    0    0 -0.10236106135E+02  0.32236307190E+02  0.75226225046E+02  0.82479950926E+02  0.00000000000E+00 0.  1.
         12    1    4    4    0    0 -0.13461165335E+03 -0.41705646919E+01  0.30618738947E+03  0.33449724707E+03  0.00000000000E+00 0. -1.
        -11    1    3    3    0    0  0.39910039226E+02 -0.42584722482E+02  0.23524227052E+03  0.24237408207E+03  0.00000000000E+00 0.  1.
         11    1    3    3    0    0  0.23442914297E+03 -0.25532797114E+02  0.13401388824E+04  0.13607281767E+04  0.00000000000E+00 0. -1.
          1    1    1    2  501    0 -0.12949142271E+03  0.40051777098E+02  0.10827832796E+03  0.17348305310E+03  0.00000000000E+00 0. -1.
<scales pt_clust_5="13000.00000" pt_clust_6="13000.00000" pt_clust_7="13000.00000" pt_clust_8="13000.00000" pt_clust_9="135.54399"></scales>
<clustering>
<clus scale="   81.395">  5  6 -1 -1</clus>
<clus scale="   90.604">  7  8 -1 -1</clus>
<clus scale="  135.544">  2  9  1 -1</clus>
<clus scale="  237.781">  2  5  1 -1</clus>
<clus scale="  135.544">  2  5  1 -1</clus>
</clustering>
</event>
<event>
 9    2  0.9254368E-005  0.4971933E+03  0.7546771E-02  0.1058295E+00
         -1   -1    0    0    0  501 -0.00000000000E+00  0.00000000000E+00  0.47805568147E+03  0.47805568147E+03  0.00000000000E+00 0.  1.
         21   -1    0    0  501  502  0.00000000000E+00 -0.00000000000E+00 -0.11756634619E+04  0.11756634619E+04  0.00000000000E+00 0.  1.
         24    2    1    2    0    0 -0.91530439800E+02 -0.55343130235E+02  0.21303624624E+03  0.25370253788E+03  0.86832321402E+02 0.  0.
         23    2    1    2    0    0 -0.22304188785E+03 -0.35575851216E+03 -0.10852140784E+03  0.44536430997E+03  0.10129496497E+03 0.  0.
        -11    1    3    3    0    0 -0.97498660240E+02 -0.27797792707E+02  0.12321911095E+03  0.15956708724E+03  0.00000000000E+00 0.  1.
         12    1    3    3    0    0  0.59682204397E+01 -0.27545337528E+02  0.89817135289E+02  0.94135450635E+02  0.00000000000E+00 0. -1.
        -11    1    4    4    0    0 -0.18272136583E+03 -0.34465755329E+03 -0.96671723116E+02  0.40189718663E+03  0.00000000000E+00 0.  1.
         11    1    4    4    0    0 -0.40320522020E+02 -0.11100958872E+02 -0.11849684724E+02  0.43467123346E+02  0.00000000000E+00 0. -1.
         -2    1    1    2    0  502  0.31457232765E+03  0.41110164239E+03 -0.80212261878E+03  0.95465229547E+03  0.00000000000E+00 0.  1.
<scales pt_clust_5="13000.00000" pt_clust_6="13000.00000" pt_clust_7="13000.00000" pt_clust_8="13000.00000" pt_clust_9="486.76531"></scales>
<clustering>
<clus scale="   86.832">  5  6 -1 -1</clus>
<clus scale="  101.295">  7  8 -1 -1</clus>
<clus scale="  137.770">  1  5  2 -1</clus>
<clus scale="  486.765">  2  9  1 -1</clus>
<clus scale="  486.765">  2  5  1 -1</clus>
</clustering>
</event>
<event>
 9    2  0.9254368E-005  0.1204899E+03  0.7546771E-02  0.1245645E+00
          2   -1    0    0  502    0 -0.00000000000E+00  0.00000000000E+00  0.94068147628E+03  0.94068147628E+03  0.00000000000E+00 0. -1.
         21   -1    0    0  501  502  0.00000000000E+00 -0.00000000000E+00 -0.45750482588E+02  0.45750482588E+02  0.00000000000E+00 0. -1.
         23    2    1    2    0    0  0.16711052508E+02 -0.72278324849E+02  0.43589359063E+03  0.45200694688E+03  0.93827725942E+02 0.  0.
         24    2    1    2    0    0 -0.11653087873E+03  0.20160994473E+02  0.35278653527E+03  0.37960427456E+03  0.75200760626E+02 0.  0.
        -11    1    4    4    0    0 -0.59926018446E+02  0.29420318766E+02  0.98922150307E+02  0.11934100161E+03  0.00000000000E+00 0.  1.
         12    1    4    4    0    0 -0.56604860281E+02 -0.92593242931E+01  0.25386438497E+03  0.26026327295E+03  0.00000000000E+00 0. -1.
        -13    1    3    3    0    0  0.41361031878E+02 -0.79775770666E+02  0.28198981690E+03  0.29596142549E+03  0.00000000000E+00 0.  1.
         13    1    3    3    0    0 -0.24649979370E+02  0.74974458175E+01  0.15390377374E+03  0.15604552139E+03  0.00000000000E+00 0. -1.
          1    1    1    2  501    0  0.99819826219E+02  0.52117330376E+02  0.10625086778E+03  0.15482073742E+03  0.00000000000E+00 0. -1.
<scales pt_clust_5="13000.00000" pt_clust_6="13000.00000" pt_clust_7="13000.00000" pt_clust_8="13000.00000" pt_clust_9="112.60646"></scales>
<clustering>
<clus scale="   75.201">  5  6 -1 -1</clus>
<clus scale="   93.828">  7  8 -1 -1</clus>
<clus scale="  112.606">  2  9  1 -1</clus>
<clus scale="  112.606">  2  5  1 -1</clus>
<clus scale="  112.606">  2  5  1 -1</clus>
</clustering>
</event>
<event>
 9    2  0.9254368E-005  0.4423230E+03  0.7546771E-02  0.1030242E+00
          2   -1    0    0  502    0 -0.00000000000E+00  0.00000000000E+00  0.15496513213E+04  0.15496513213E+04  0.00000000000E+00 0. -1.
         21   -1    0    0  501  502  0.00000000000E+00 -0.00000000000E+00 -0.25861031665E+03  0.25861031665E+03  0.00000000000E+00 0. -1.
         24    2    1    2    0    0  0.25672434567E+03  0.35011934253E+03  0.11447881325E+04  0.12268682475E+04  0.78580434137E+02 0.  0.
         23    2    1    2    0    0 -0.31627334857E+03 -0.29298377234E+03  0.34227895980E+02  0.44225262574E+03  0.92452767592E+02 0.  0.
        -11    1    3    3    0    0  0.16006689387E+03  0.22905312235E+03  0.83473697719E+03  0.88026846159E+03  0.00000000000E+00 0.  1.
         12    1    3    3    0    0  0.96657451800E+02  0.12106622018E+03  0.31005115531E+03  0.34659978587E+03  0.00000000000E+00 0. -1.
        -11    1    4    4    0    0 -0.67020738129E+02 -0.19529802328E+02  0.16989719484E+02  0.71845967781E+02  0.00000000000E+00 0.  1.
         11    1    4    4    0    0 -0.24925261045E+03 -0.27345397001E+03  0.17238176496E+02  0.37040665796E+03  0.00000000000E+00 0. -1.
          1    1    1    2  501    0  0.59549002905E+02 -0.57135570191E+02  0.11202497617E+03  0.13914076474E+03  0.00000000000E+00 0. -1.
<scales pt_clust_5="13000.00000" pt_clust_6="13000.00000" pt_clust_7="13000.00000" pt_clust_8="13000.00000" pt_clust_9="82.52614"></scales>
<clustering>
<clus scale="   78.580">  5  6 -1 -1</clus>
<clus scale="   82.526">  2  9  1 -1</clus>
<clus scale="   92.453">  7  8 -1 -1</clus>
<clus scale="  439.633">  1  5  2 -1</clus>
<clus scale="   82.526">  2  5  1 -1</clus>
</clustering>
</event>
<event>
 9    2  0.9254368E-005  0.1180689E+03  0.7546771E-02  0.1249413E+00
          2   -1    0    0  502    0 -0.00000000000E+00  0.00000000000E+00  0.71409985255E+03  0.71409985255E+03  0.00000000000E+00 0. -1.
         21   -1    0    0  501  502  0.00000000000E+00 -0.00000000000E+00 -0.44850640135E+02  0.44850640135E+02  0.00000000000E+00 0. -1.
         24    2    1    2    0    0  0.79225424200E+02  0.44017173544E+02  0.48175529985E+03  0.49740931384E+03  0.84342617660E+02 0.  0.
         23    2    1    2    0    0 -0.37137422470E+01 -0.46011171176E+02  0.12978527749E+03  0.16648184632E+03  0.93494209157E+02 0.  0.
        -13    1    3    3    0    0  0.44649038021E+02 -0.21597784484E+02  0.18692470578E+03  0.19339298468E+03  0.00000000000E+00 0.  1.
         14    1    3    3    0    0  0.34576386179E+02  0.65614958028E+02  0.29483059407E+03  0.30401632916E+03  0.00000000000E+00 0. -1.
        -13    1    4    4    0    0 -0.44725341772E+02 -0.36770423914E+02  0.97813631492E+02  0.11366585581E+03  0.00000000000E+00 0.  1.
         13    1    4    4    0    0  0.41011599525E+02 -0.92407472618E+01  0.31971646000E+02  0.52815990509E+02  0.00000000000E+00 0. -1.
          1    1    1    2  501    0 -0.75511681953E+02  0.19939976316E+01  0.57708635069E+02  0.95059332521E+02  0.00000000000E+00 0. -1.
<scales pt_clust_5="13000.00000" pt_clust_6="13000.00000" pt_clust_7="13000.00000" pt_clust_8="13000.00000" pt_clust_9="75.53800"></scales>
<clustering>
<clus scale="   75.538">  2  9  1 -1</clus>
<clus scale="   84.343">  5  6 -1 -1</clus>
<clus scale="   93.494">  7  8 -1 -1</clus>
<clus scale="  110.963">  1  5  2 -1</clus>
<clus scale="   75.538">  2  5  1 -1</clus>
</clustering>
</event>
<event>
 9    2  0.9254368E-005  0.1398521E+03  0.7546771E-02  0.1215850E+00
          2   -1    0    0  502    0 -0.00000000000E+00  0.00000000000E+00  0.88994832319E+03  0.88994832319E+03  0.00000000000E+00 0. -1.
         21   -1    0    0  501  502  0.00000000000E+00 -0.00000000000E+00 -0.67402509814E+02  0.67402509814E+02  0.00000000000E+00 0.  1.
         24    2    1    2    0    0 -0.84689476864E+02 -0.54337646430E+02  0.44202648856E+03  0.46036061978E+03  0.80122383555E+02 0.  0.
         23    2    1    2    0    0  0.12322401548E+03  0.70364873116E+02  0.67989560081E+02  0.18168617502E+03  0.90840038268E+02 0.  0.
        -13    1    3    3    0    0 -0.45365921850E+02 -0.72283314544E+02  0.28668439565E+03  0.29911684529E+03  0.00000000000E+00 0.  1.
         14    1    3    3    0    0 -0.39323555014E+02  0.17945668114E+02  0.15534209291E+03  0.16124377449E+03  0.00000000000E+00 0. -1.
        -11    1    4    4    0    0  0.20479250060E+02 -0.16800059811E+02 -0.71186804753E+01  0.27428403242E+02  0.00000000000E+00 0.  1.
         11    1    4    4    0    0  0.10274476542E+03  0.87164932928E+02  0.75108240557E+02  0.15425777178E+03  0.00000000000E+00 0. -1.
          1    1    1    2  501    0 -0.38534538618E+02 -0.16027226686E+02  0.31252976473E+03  0.31530403820E+03  0.00000000000E+00 0. -1.
<scales pt_clust_5="13000.00000" pt_clust_6="13000.00000" pt_clust_7="13000.00000" pt_clust_8="13000.00000" pt_clust_9="41.73469"></scales>
<clustering>
<clus scale="   41.735">  2  9  1 -1</clus>
<clus scale="   80.122">  5  6 -1 -1</clus>
<clus scale="   90.840">  7  8 -1 -1</clus>
<clus scale="  133.140">  1  5  2 -1</clus>
<clus scale="   41.735">  2  5  1 -1</clus>
</clustering>
</event>
<event>
 9    2  0.9254368E-005  0.1900329E+03  0.7546771E-02  0.1175233E+00
         21   -1    0    0  501  502  0.00000000000E+00  0.00000000000E+00  0.11998780998E+03  0.11998780998E+03  0.00000000000E+00 0. -1.
          2   -1    0    0  502    0 -0.00000000000E+00 -0.00000000000E+00 -0.64311975786E+03  0.64311975786E+03  0.00000000000E+00 0. -1.
         24    2    1    2    0    0 -0.89387385839E+02  0.78374531103E+01 -0.24717953775E+03  0.27887182564E+03  0.92845252106E+02 0.  0.
         23    2    1    2    0    0  0.38662514616E+02  0.15947688298E+03 -0.24213162337E+03  0.30616006941E+03  0.90435605979E+02 0.  0.
        -13    1    3    3    0    0 -0.46589784100E+02 -0.31687763774E+02 -0.57736454665E+02  0.80673543078E+02  0.00000000000E+00 0.  1.
         14    1    3    3    0    0 -0.42797601739E+02  0.39525216884E+02 -0.18944308308E+03  0.19819828257E+03  0.00000000000E+00 0. -1.
        -13    1    4    4    0    0  0.56421086761E+02  0.64611801513E+02 -0.14964612220E+03  0.17248763960E+03  0.00000000000E+00 0.  1.
         13    1    4    4    0    0 -0.17758572146E+02  0.94865081464E+02 -0.92485501171E+02  0.13367242982E+03  0.00000000000E+00 0. -1.
          1    1    1    2  501    0  0.50724871223E+02 -0.16731433609E+03 -0.33820786768E+02  0.17807567279E+03  0.00000000000E+00 0. -1.
<scales pt_clust_5="13000.00000" pt_clust_6="13000.00000" pt_clust_7="13000.00000" pt_clust_8="13000.00000" pt_clust_9="167.13443"></scales>
<clustering>
<clus scale="   90.436">  7  8 -1 -1</clus>
<clus scale="   92.845">  5  6 -1 -1</clus>
<clus scale="  129.119">  2  5  1 -1</clus>
<clus scale="  167.134">  1  9  2 -1</clus>
<clus scale="  167.134">  1  5  2 -1</clus>
</clustering>
</event>
<event>
 9    2  0.9254368E-005  0.1828590E+03  0.7546771E-02  0.1196067E+00
         -1   -1    0    0    0  501 -0.00000000000E+00  0.00000000000E+00  0.54927029687E+03  0.54927029687E+03  0.00000000000E+00 0.  1.
         21   -1    0    0  501  502  0.00000000000E+00 -0.00000000000E+00 -0.93335224247E+02  0.93335224247E+02  0.00000000000E+00 0.  1.
         23    2    1    2    0    0 -0.70700040451E+01  0.71157601953E+01  0.73771093210E+02  0.11725230491E+03  0.90583165180E+02 0.  0.
         24    2    1    2    0    0  0.16210754412E+03 -0.42398364757E+02  0.12850267945E+03  0.22597793981E+03  0.80477409638E+02 0.  0.
        -11    1    4    4    0    0  0.13129018084E+03 -0.64134586045E+02  0.11491897650E+03  0.18589439978E+03  0.00000000000E+00 0.  1.
         12    1    4    4    0    0  0.30817363276E+02  0.21736221288E+02  0.13583702954E+02  0.40083540027E+02  0.00000000000E+00 0. -1.
        -13    1    3    3    0    0 -0.14244979892E+02  0.45662874065E+02  0.22922114835E+02  0.53041878441E+02  0.00000000000E+00 0.  1.
         13    1    3    3    0    0  0.71749758473E+01 -0.38547113870E+02  0.50848978375E+02  0.64210426474E+02  0.00000000000E+00 0. -1.
         -2    1    1    2    0  502 -0.15503754007E+03  0.35282604562E+02  0.25366129997E+03  0.29937527640E+03  0.00000000000E+00 0.  1.
<scales pt_clust_5="13000.00000" pt_clust_6="13000.00000" pt_clust_7="13000.00000" pt_clust_8="13000.00000" pt_clust_9="164.19751"></scales>
<clustering>
<clus scale="   80.477">  5  6 -1 -1</clus>
<clus scale="   90.583">  7  8 -1 -1</clus>
<clus scale="   91.137">  1  7  2 -1</clus>
<clus scale="  164.198">  2  9  1 -1</clus>
<clus scale="  164.198">  2  5  1 -1</clus>
</clustering>
</event>
<event>
 9    2  0.9254368E-005  0.1123478E+03  0.7546771E-02  0.1258574E+00
         21   -1    0    0  501  502  0.00000000000E+00  0.00000000000E+00  0.39660490457E+02  0.39660490457E+02  0.00000000000E+00 0.  1.
          2   -1    0    0  502    0 -0.00000000000E+00 -0.00000000000E+00 -0.40623101581E+03  0.40623101581E+03  0.00000000000E+00 0. -1.
         24    2    1    2    0    0  0.21895810511E+02  0.55847497693E+02 -0.19052293122E+03  0.21637162480E+03  0.83182469204E+02 0.  0.
         23    2    1    2    0    0 -0.37547840280E+02 -0.73632445893E+02 -0.13286548971E+03  0.18026559677E+03  0.89503461525E+02 0.  0.
        -13    1    3    3    0    0  0.36101292844E+02 -0.81147238358E+01 -0.66141642659E+02  0.75788316920E+02  0.00000000000E+00 0.  1.
         14    1    3    3    0    0 -0.14205482334E+02  0.63962221528E+02 -0.12438128856E+03  0.14058330788E+03  0.00000000000E+00 0. -1.
        -11    1    4    4    0    0 -0.10770940329E+02 -0.89869675349E+02 -0.98331408975E+02  0.13364743804E+03  0.00000000000E+00 0.  1.
         11    1    4    4    0    0 -0.26776899951E+02  0.16237229456E+02 -0.34534080737E+02  0.46618158734E+02  0.00000000000E+00 0. -1.
          1    1    1    2  501    0  0.15652029769E+02  0.17784948200E+02 -0.43182104416E+02  0.49254284689E+02  0.00000000000E+00 0. -1.
<scales pt_clust_5="13000.00000" pt_clust_6="13000.00000" pt_clust_7="13000.00000" pt_clust_8="13000.00000" pt_clust_9="23.69158"></scales>
<clustering>
<clus scale="   23.692">  1  9  2 -1</clus>
<clus scale="   83.182">  5  6 -1 -1</clus>
<clus scale="   89.503">  7  8 -1 -1</clus>
<clus scale="  107.380">  2  5  1 -1</clus>
<clus scale="   23.692">  1  5  2 -1</clus>
</clustering>
</event>
<event>
 9    2  0.9254368E-005  0.1747093E+03  0.7546771E-02  0.1173751E+00
         21   -1    0    0  501  502  0.00000000000E+00  0.00000000000E+00  0.34953620830E+02  0.34953620830E+02  0.00000000000E+00 0.  1.
          2   -1    0    0  502    0 -0.00000000000E+00 -0.00000000000E+00 -0.12951172762E+04  0.12951172762E+04  0.00000000000E+00 0. -1.
         23    2    1    2    0    0  0.16932140611E+03  0.32001522847E+02 -0.79965175804E+03  0.82309654729E+03  0.91384659427E+02 0.  0.
         24    2    1    2    0    0 -0.10682078840E+03 -0.33615003268E+02 -0.24642917928E+03  0.28394892362E+03  0.85784623002E+02 0.  0.
        -13    1    4    4    0    0 -0.57622308929E+02 -0.18670050997E+02 -0.43412673984E+02  0.74522221874E+02  0.00000000000E+00 0.  1.
         14    1    4    4    0    0 -0.49198479474E+02 -0.14944952271E+02 -0.20301650530E+03  0.20942670175E+03  0.00000000000E+00 0. -1.
        -11    1    3    3    0    0  0.11113092615E+03 -0.22414720853E+02 -0.52627392807E+03  0.53834631031E+03  0.00000000000E+00 0.  1.
         11    1    3    3    0    0  0.58190479964E+02  0.54416243700E+02 -0.27337782998E+03  0.28475023698E+03  0.00000000000E+00 0. -1.
          1    1    1    2  501    0 -0.62500617711E+02  0.16134804209E+01 -0.21408271809E+03  0.22302542617E+03  0.00000000000E+00 0. -1.
<scales pt_clust_5="13000.00000" pt_clust_6="13000.00000" pt_clust_7="13000.00000" pt_clust_8="13000.00000" pt_clust_9="62.52147"></scales>
<clustering>
<clus scale="   62.521">  1  9  2 -1</clus>
<clus scale="   85.785">  5  6 -1 -1</clus>
<clus scale="   91.385">  7  8 -1 -1</clus>
<clus scale="  171.846">  1  5  2 -1</clus>
<clus scale="   62.521">  1  5  2 -1</clus>
</clustering>
</event>
<event>
 9    2  0.9254368E-005  0.2021312E+03  0.7546771E-02  0.1148977E+00
         21   -1    0    0  501  502  0.00000000000E+00  0.00000000000E+00  0.36851270358E+02  0.36851270358E+02  0.00000000000E+00 0.  1.
          2   -1    0    0  502    0 -0.00000000000E+00 -0.00000000000E+00 -0.16194686559E+04  0.16194686559E+04  0.00000000000E+00 0. -1.
         24    2    1    2    0    0  0.16840854767E+03 -0.12671960607E+02 -0.90173932435E+03  0.92092271524E+03  0.80267184068E+02 0.  0.
         23    2    1    2    0    0 -0.20235886391E+03 -0.15873987164E+01 -0.65140287463E+03  0.68823006223E+03  0.91560274339E+02 0.  0.
        -11    1    3    3    0    0  0.12285897874E+03 -0.98509391651E+01 -0.44010465623E+03  0.45703772065E+03  0.00000000000E+00 0.  1.
         12    1    3    3    0    0  0.45549568936E+02 -0.28210214422E+01 -0.46163466812E+03  0.46388499459E+03  0.00000000000E+00 0. -1.
        -13    1    4    4    0    0 -0.11779232470E+03 -0.41657362953E+02 -0.30991189253E+03  0.33414929116E+03  0.00000000000E+00 0.  1.
         13    1    4    4    0    0 -0.84566539213E+02  0.40069964237E+02 -0.34149098210E+03  0.35408077107E+03  0.00000000000E+00 0. -1.
          1    1    1    2  501    0  0.33950316242E+02  0.14259359324E+02 -0.29475186514E+02  0.47167148751E+02  0.00000000000E+00 0. -1.
<scales pt_clust_5="13000.00000" pt_clust_6="13000.00000" pt_clust_7="13000.00000" pt_clust_8="13000.00000" pt_clust_9="36.82327"></scales>
<clustering>
<clus scale="   36.823">  1  9  2 -1</clus>
<clus scale="   80.267">  5  6 -1 -1</clus>
<clus scale="   91.560">  7  8 -1 -1</clus>
<clus scale="  197.273">  2  5  1 -1</clus>
<clus scale="   36.823">  1  5  2 -1</clus>
</clustering>
</event>
<event>
 9    2  0.9254368E-005  0.1015457E+03  0.7546771E-02  0.1283202E+00
         21   -1    0    0  501  502  0.00000000000E+00  0.00000000000E+00  0.57787879587E+02  0.57787879587E+02  0.00000000000E+00 0. -1.
         -1   -1    0    0    0  501 -0.00000000000E+00 -0.00000000000E+00 -0.47412438753E+03  0.47412438753E+03  0.00000000000E+00 0.  1.
         24    2    1    2    0    0  0.32005544943E+02 -0.26159538598E+02 -0.36469914064E+03  0.37534448898E+03  0.78545183515E+02 0.  0.
         23    2    1    2    0    0 -0.46019783772E+02  0.47278975056E+02 -0.62793099690E+02  0.12887518254E+03  0.91174104462E+02 0.  0.
        -13    1    3    3    0    0  0.71544387172E+01 -0.52024143052E+02 -0.19945474885E+03  0.20625201646E+03  0.00000000000E+00 0.  1.
         14    1    3    3    0    0  0.24851106225E+02  0.25864604454E+02 -0.16524439179E+03  0.16909247252E+03  0.00000000000E+00 0. -1.
        -13    1    4    4    0    0 -0.30208513427E+02 -0.10365665389E+02 -0.61255823576E+02  0.69081670683E+02  0.00000000000E+00 0.  1.
         13    1    4    4    0    0 -0.15811270345E+02  0.57644640445E+02 -0.15372761141E+01  0.59793511854E+02  0.00000000000E+00 0. -1.
         -2    1    1    2    0  502  0.14014238829E+02 -0.21119436458E+02  0.11155732387E+02  0.27692595605E+02  0.00000000000E+00 0.  1.
<scales pt_clust_5="13000.00000" pt_clust_6="13000.00000" pt_clust_7="13000.00000" pt_clust_8="13000.00000" pt_clust_9="25.34619"></scales>
<clustering>
<clus scale="   25.346">  1  9  2 -1</clus>
<clus scale="   78.545">  5  6 -1 -1</clus>
<clus scale="   90.378">  2  5  1 -1</clus>
<clus scale="   91.174">  7  8 -1 -1</clus>
<clus scale="   25.346">  1  5  2 -1</clus>
</clustering>
</event>
<event>
 9    2  0.9254368E-005  0.9628706E+02  0.7546771E-02  0.1297712E+00
          4   -1    0    0  502    0 -0.00000000000E+00  0.00000000000E+00  0.52847653374E+02  0.52847653374E+02  0.00000000000E+00 0. -1.
         21   -1    0    0  501  502  0.00000000000E+00 -0.00000000000E+00 -0.24207844925E+03  0.24207844925E+03  0.00000000000E+00 0. -1.
         24    2    1    2    0    0  0.16345825477E+02 -0.22731667283E+02 -0.64731611761E+02  0.10351758679E+03  0.75774629694E+02 0.  0.
         23    2    1    2    0    0 -0.41388714020E+02 -0.12754891518E+02 -0.91401960625E+02  0.13680202973E+03  0.92112778842E+02 0.  0.
        -11    1    3    3    0    0 -0.41196457713E+01 -0.39432315052E+02 -0.73148577430E+01  0.40316077381E+02  0.00000000000E+00 0.  1.
         12    1    3    3    0    0  0.20465471248E+02  0.16700647769E+02 -0.57416754018E+02  0.63201509407E+02  0.00000000000E+00 0. -1.
        -13    1    4    4    0    0 -0.10520974396E+02  0.38156118060E+02 -0.52233023858E+02  0.65535250279E+02  0.00000000000E+00 0.  1.
         13    1    4    4    0    0 -0.30867739624E+02 -0.50911009579E+02 -0.39168936767E+02  0.71266779450E+02  0.00000000000E+00 0. -1.
          3    1    1    2  501    0  0.25042888543E+02  0.35486558801E+02 -0.33097223491E+02  0.54606486107E+02  0.00000000000E+00 0. -1.
<scales pt_clust_5="13000.00000" pt_clust_6="13000.00000" pt_clust_7="13000.00000" pt_clust_8="13000.00000" pt_clust_9="43.43321"></scales>
<clustering>
<clus scale="   43.433">  2  9  1 -1</clus>
<clus scale="   75.775">  5  6 -1 -1</clus>
<clus scale="   80.797">  1  5  2 -1</clus>
<clus scale="   92.113">  7  8 -1 -1</clus>
<clus scale="   43.433">  2  5  1 -1</clus>
</clustering>
</event>
<event>
 9    2  0.9254368E-005  0.2512981E+03  0.7546771E-02  0.1113043E+00
          2   -1    0    0  502    0 -0.00000000000E+00  0.00000000000E+00  0.88583880625E+03  0.88583880625E+03  0.00000000000E+00 0. -1.
         21   -1    0    0  501  502  0.00000000000E+00 -0.00000000000E+00 -0.16093135630E+03  0.16093135630E+03  0.00000000000E+00 0.  1.
         24    2    1    2    0    0  0.25805302481E+02 -0.23059496668E+03  0.63249444917E+03  0.67847725660E+03  0.80263361547E+02 0.  0.
         23    2    1    2    0    0 -0.47144412803E+02  0.23806879143E+03  0.15491964402E+03  0.30182264091E+03  0.90539855025E+02 0.  0.
        -13    1    3    3    0    0  0.19500743398E+02 -0.53938186215E+01  0.51387857039E+02  0.55227566699E+02  0.00000000000E+00 0.  1.
         14    1    3    3    0    0  0.63045590838E+01 -0.22520114805E+03  0.58110659213E+03  0.62324968990E+03  0.00000000000E+00 0. -1.
        -13    1    4    4    0    0 -0.30107924971E+02  0.13841309299E+03  0.36816668909E+02  0.14635620440E+03  0.00000000000E+00 0.  1.
         13    1    4    4    0    0 -0.17036487832E+02  0.99655698445E+02  0.11810297511E+03  0.15546643651E+03  0.00000000000E+00 0. -1.
          1    1    1    2  501    0  0.21339110322E+02 -0.74738247596E+01 -0.62506643239E+02  0.66470265043E+02  0.00000000000E+00 0. -1.
<scales pt_clust_5="13000.00000" pt_clust_6="13000.00000" pt_clust_7="13000.00000" pt_clust_8="13000.00000" pt_clust_9="22.61008"></scales>
<clustering>
<clus scale="   22.610">  2  9  1 -1</clus>
<clus scale="   80.263">  5  6 -1 -1</clus>
<clus scale="   90.540">  7  8 -1 -1</clus>
<clus scale="  247.781">  1  5  2 -1</clus>
<clus scale="   22.610">  2  5  1 -1</clus>
</clustering>
</event>
<event>
 9    2  0.9254368E-005  0.2122225E+03  0.7546771E-02  0.1175964E+00
         21   -1    0    0  501  502  0.00000000000E+00  0.00000000000E+00  0.87111749549E+03  0.87111749549E+03  0.00000000000E+00 0. -1.
          2   -1    0    0  502    0 -0.00000000000E+00 -0.00000000000E+00 -0.13066519834E+03  0.13066519834E+03  0.00000000000E+00 0. -1.
         23    2    1    2    0    0  0.14020198137E+02  0.58918340407E+01 -0.36330167278E+02  0.98153737135E+02  0.89905480339E+02 0.  0.
         24    2    1    2    0    0 -0.24671954185E+02 -0.19933999397E+03  0.20037503472E+03  0.29553260290E+03  0.82729839348E+02 0.  0.
        -13    1    4    4    0    0 -0.22634938335E+02 -0.57269468391E+02  0.11311708406E+03  0.12879288470E+03  0.00000000000E+00 0.  1.
         14    1    4    4    0    0 -0.20370158495E+01 -0.14207052558E+03  0.87257950659E+02  0.16673971820E+03  0.00000000000E+00 0. -1.
        -13    1    3    3    0    0 -0.33223435739E+02 -0.13912959013E+02 -0.12011297398E+01  0.36039004196E+02  0.00000000000E+00 0. -1.
         13    1    3    3    0    0  0.47243633876E+02  0.19804793054E+02 -0.35129037539E+02  0.62114732939E+02  0.00000000000E+00 0.  1.
          1    1    1    2  501    0  0.10651756048E+02  0.19344815993E+03  0.57640742971E+03  0.60809635381E+03  0.00000000000E+00 0. -1.
<scales pt_clust_5="13000.00000" pt_clust_6="13000.00000" pt_clust_7="13000.00000" pt_clust_8="13000.00000" pt_clust_9="195.43330"></scales>
<clustering>
<clus scale="   82.730">  5  6 -1 -1</clus>
<clus scale="   89.905">  7  8 -1 -1</clus>
<clus scale="   91.183">  2  7  1 -1</clus>
<clus scale="  195.433">  1  9  2 -1</clus>
<clus scale="  195.433">  1  5  2 -1</clus>
</clustering>
</event>
<event>
 9    2  0.9254368E-005  0.2454270E+03  0.7546771E-02  0.1116797E+00
         21   -1    0    0  501  502  0.00000000000E+00  0.00000000000E+00  0.10554593596E+03  0.10554593596E+03  0.00000000000E+00 0. -1.
         -1   -1    0    0    0  501 -0.00000000000E+00 -0.00000000000E+00 -0.12697438711E+04  0.12697438711E+04  0.00000000000E+00 0.  1.
         23    2    1    2    0    0  0.25257315083E+01 -0.23332513136E+03 -0.10056623841E+04  0.10363481722E+04  0.90629503649E+02 0.  0.
         24    2    1    2    0    0 -0.22429573294E+02  0.19801911939E+03 -0.46754022606E+02  0.22003920640E+03  0.80725809531E+02 0.  0.
        -11    1    4    4    0    0  0.41759957809E+01  0.37857270827E+02  0.21707439263E+02  0.43838622407E+02  0.00000000000E+00 0.  1.
         12    1    4    4    0    0 -0.26605569075E+02  0.16016184856E+03 -0.68461461868E+02  0.17620058400E+03  0.00000000000E+00 0. -1.
        -13    1    3    3    0    0 -0.30525812691E+02 -0.17507026957E+03 -0.62224198586E+03  0.64712171459E+03  0.00000000000E+00 0.  1.
         13    1    3    3    0    0  0.33051544199E+02 -0.58254861782E+02 -0.38342039824E+03  0.38922645758E+03  0.00000000000E+00 0. -1.
         -2    1    1    2    0  502  0.19903841786E+02  0.35306011969E+02 -0.11178152846E+03  0.11890242851E+03  0.00000000000E+00 0.  1.
<scales pt_clust_5="13000.00000" pt_clust_6="13000.00000" pt_clust_7="13000.00000" pt_clust_8="13000.00000" pt_clust_9="40.52998"></scales>
<clustering>
<clus scale="   40.530">  1  9  2 -1</clus>
<clus scale="   80.726">  5  6 -1 -1</clus>
<clus scale="   90.630">  7  8 -1 -1</clus>
<clus scale="  241.945">  1  5  2 -1</clus>
<clus scale="   40.530">  1  5  2 -1</clus>
</clustering>
</event>
<event>
 9    2  0.9254368E-005  0.9521996E+02  0.7546771E-02  0.1294197E+00
         21   -1    0    0  501  502  0.00000000000E+00  0.00000000000E+00  0.12206797743E+03  0.12206797743E+03  0.00000000000E+00 0. -1.
         -1   -1    0    0    0  501 -0.00000000000E+00 -0.00000000000E+00 -0.19501465540E+03  0.19501465540E+03  0.00000000000E+00 0.  1.
         23    2    1    2    0    0  0.61960374851E+02  0.30671727154E+02 -0.68998583585E+02  0.12254673266E+03  0.74007122965E+02 0.  0.
         24    2    1    2    0    0  0.15928228576E+02 -0.18994477859E+02  0.50511956999E+02  0.98781579694E+02  0.81190172018E+02 0.  0.
        -13    1    4    4    0    0 -0.20378452147E+02  0.18137342932E+02  0.14188130647E+01  0.27317714967E+02  0.00000000000E+00 0.  1.
         14    1    4    4    0    0  0.36306680723E+02 -0.37131820790E+02  0.49093143934E+02  0.71463864726E+02  0.00000000000E+00 0. -1.
        -13    1    3    3    0    0  0.32189599113E+01  0.34464878262E+02 -0.39836499569E+01  0.34843349488E+02  0.00000000000E+00 0.  1.
         13    1    3    3    0    0  0.58741414940E+02 -0.37931511082E+01 -0.65014933628E+02  0.87703383168E+02  0.00000000000E+00 0. -1.
         -2    1    1    2    0  502 -0.77888603427E+02 -0.11677249295E+02 -0.54460051386E+02  0.95754320487E+02  0.00000000000E+00 0.  1.
<scales pt_clust_5="13000.00000" pt_clust_6="13000.00000" pt_clust_7="13000.00000" pt_clust_8="13000.00000" pt_clust_9="78.75912"></scales>
<clustering>
<clus scale="   74.007">  7  8 -1 -1</clus>
<clus scale="   78.759">  1  9  2 -1</clus>
<clus scale="   81.190">  5  6 -1 -1</clus>
<clus scale="   89.174">  2  7  1 -1</clus>
<clus scale="   78.759">  1  5  2 -1</clus>
</clustering>
</event>
<event>
 9    2  0.9254368E-005  0.1607354E+03  0.7546771E-02  0.1209122E+00
         21   -1    0    0  501  502  0.00000000000E+00  0.00000000000E+00  0.30226065768E+03  0.30226065768E+03  0.00000000000E+00 0. -1.
          2   -1    0    0  502    0 -0.00000000000E+00 -0.00000000000E+00 -0.14021659401E+03  0.14021659401E+03  0.00000000000E+00 0. -1.
         23    2    1    2    0    0  0.44050038251E+02  0.70770083114E+01  0.65194740911E+02  0.12036902074E+03  0.90817713001E+02 0.  0.
         24    2    1    2    0    0 -0.43145067154E+02  0.13392588399E+03  0.77728415546E+02  0.17981190738E+03  0.80579006133E+02 0.  0.
        -13    1    4    4    0    0 -0.28339211453E+02  0.36891700781E+02  0.66298590097E+02  0.80991428813E+02  0.00000000000E+00 0.  1.
         14    1    4    4    0    0 -0.14805855701E+02  0.97034183208E+02  0.11429825449E+02  0.98820478565E+02  0.00000000000E+00 0. -1.
        -11    1    3    3    0    0  0.84850593958E+00 -0.34953888850E+02  0.52410343017E+01  0.35354812242E+02  0.00000000000E+00 0.  1.
         11    1    3    3    0    0  0.43201532311E+02  0.42030897162E+02  0.59953706609E+02  0.85014208497E+02  0.00000000000E+00 0. -1.
          1    1    1    2  501    0 -0.90497109707E+00 -0.14100289230E+03  0.19120907221E+02  0.14229632357E+03  0.00000000000E+00 0. -1.
<scales pt_clust_5="13000.00000" pt_clust_6="13000.00000" pt_clust_7="13000.00000" pt_clust_8="13000.00000" pt_clust_9="139.07882"></scales>
<clustering>
<clus scale="   80.579">  5  6 -1 -1</clus>
<clus scale="   90.818">  7  8 -1 -1</clus>
<clus scale="  101.185">  2  7  1 -1</clus>
<clus scale="  139.079">  1  9  2 -1</clus>
<clus scale="  139.079">  1  5  2 -1</clus>
</clustering>
</event>
<event>
 9    2  0.9254368E-005  0.9854365E+02  0.7546771E-02  0.1288005E+00
         -1   -1    0    0    0  501 -0.00000000000E+00  0.00000000000E+00  0.23306175842E+03  0.23306175842E+03  0.00000000000E+00 0.  1.
         21   -1    0    0  501  502  0.00000000000E+00 -0.00000000000E+00 -0.15846547619E+03  0.15846547619E+03  0.00000000000E+00 0.  1.
         23    2    1    2    0    0  0.16546485458E+02  0.38624181415E+02  0.15792227666E+03  0.18758567765E+03  0.92104980433E+02 0.  0.
         24    2    1    2    0    0  0.60380248203E+02 -0.17082205100E+02 -0.32273640823E+02  0.10913585088E+03  0.83255449981E+02 0.  0.
        -13    1    4    4    0    0  0.39591147178E+02 -0.27821129596E+01  0.24753810720E+02  0.46775530275E+02  0.00000000000E+00 0.  1.
         14    1    4    4    0    0  0.20789101025E+02 -0.14300092140E+02 -0.57027451543E+02  0.62360320606E+02  0.00000000000E+00 0. -1.
        -13    1    3    3    0    0 -0.23803432533E+02  0.22970549144E+02  0.11691833403E+02  0.35084875612E+02  0.00000000000E+00 0.  1.
         13    1    3    3    0    0  0.40349917992E+02  0.15653632270E+02  0.14623044326E+03  0.15250080203E+03  0.00000000000E+00 0. -1.
         -2    1    1    2    0  502 -0.76926733661E+02 -0.21541976315E+02 -0.51052353612E+02  0.94805706077E+02  0.00000000000E+00 0.  1.
<scales pt_clust_5="13000.00000" pt_clust_6="13000.00000" pt_clust_7="13000.00000" pt_clust_8="13000.00000" pt_clust_9="79.88604"></scales>
<clustering>
<clus scale="   79.886">  2  9  1 -1</clus>
<clus scale="   83.255">  5  6 -1 -1</clus>
<clus scale="   90.327">  2  5  1 -1</clus>
<clus scale="   92.105">  7  8 -1 -1</clus>
<clus scale="   79.886">  2  5  1 -1</clus>
</clustering>
</event>
<event>
 9    2  0.9254368E-005  0.1211690E+03  0.7546771E-02  0.1244580E+00
          4   -1    0    0  502    0 -0.00000000000E+00  0.00000000000E+00  0.10488949491E+03  0.10488949491E+03  0.00000000000E+00 0. -1.
         21   -1    0    0  501  502  0.00000000000E+00 -0.00000000000E+00 -0.37049150151E+03  0.37049150151E+03  0.00000000000E+00 0. -1.
         23    2    1    2    0    0 -0.15573685424E+01 -0.96862062794E+02  0.20338669951E+02  0.13416286866E+03  0.90561190511E+02 0.  0.
         24    2    1    2    0    0 -0.23183517874E+02  0.51680952202E+02 -0.72306561292E+02  0.12146149096E+03  0.79474893265E+02 0.  0.
        -13    1    4    4    0    0  0.27737650414E+02  0.33474993512E+02 -0.34015006786E+02  0.55199394270E+02  0.00000000000E+00 0.  1.
         14    1    4    4    0    0 -0.50921168288E+02  0.18205958690E+02 -0.38291554506E+02  0.66262096692E+02  0.00000000000E+00 0. -1.
        -13    1    3    3    0    0 -0.10763249439E+02 -0.32301165986E+02 -0.34857165468E+02  0.48726120788E+02  0.00000000000E+00 0.  1.
         13    1    3    3    0    0  0.92058808971E+01 -0.64560896808E+02  0.55195835420E+02  0.85436747874E+02  0.00000000000E+00 0. -1.
          3    1    1    2  501    0  0.24740886416E+02  0.45181110592E+02 -0.21363411526E+03  0.21975663680E+03  0.00000000000E+00 0. -1.
<scales pt_clust_5="13000.00000" pt_clust_6="13000.00000" pt_clust_7="13000.00000" pt_clust_8="13000.00000" pt_clust_9="51.51159"></scales>
<clustering>
<clus scale="   51.512">  2  9  1 -1</clus>
<clus scale="   79.475">  5  6 -1 -1</clus>
<clus scale="   90.561">  7  8 -1 -1</clus>
<clus scale="  113.123">  2  5  1 -1</clus>
<clus scale="   51.512">  2  5  1 -1</clus>
</clustering>
</event>
<event>
 9    2  0.9254368E-005  0.1505057E+03  0.7546771E-02  0.1202576E+00
          2   -1    0    0  502    0 -0.00000000000E+00  0.00000000000E+00  0.18173270030E+04  0.18173270030E+04  0.00000000000E+00 0. -1.
         21   -1    0    0  501  502  0.00000000000E+00 -0.00000000000E+00 -0.30026100820E+02  0.30026100820E+02  0.00000000000E+00 0. -1.
         24    2    1    2    0    0  0.53648235470E+02  0.76566946816E+02  0.35505463739E+03  0.37512721980E+03  0.76915570484E+02 0.  0.
         23    2    1    2    0    0 -0.16933404914E+03 -0.51585334891E+02  0.61690974531E+03  0.64834426121E+03  0.91856301983E+02 0.  0.
        -11    1    3    3    0    0  0.36470985290E+02  0.13893298138E+02  0.51076369953E+02  0.64280261891E+02  0.00000000000E+00 0.  1.
         12    1    3    3    0    0  0.17177250181E+02  0.62673648677E+02  0.30397826744E+03  0.31084695791E+03  0.00000000000E+00 0. -1.
        -11    1    4    4    0    0 -0.13071400699E+03  0.14251240065E+00  0.34649351360E+03  0.37032948425E+03  0.00000000000E+00 0. -1.
         11    1    4    4    0    0 -0.38620042153E+02 -0.51727847291E+02  0.27041623170E+03  0.27801477696E+03  0.00000000000E+00 0.  1.
          1    1    1    2  501    0  0.11568581367E+03 -0.24981611925E+02  0.81533651949E+03  0.82388162283E+03  0.00000000000E+00 0. -1.
<scales pt_clust_5="13000.00000" pt_clust_6="13000.00000" pt_clust_7="13000.00000" pt_clust_8="13000.00000" pt_clust_9="118.35245"></scales>
<clustering>
<clus scale="   76.916">  5  6 -1 -1</clus>
<clus scale="   91.856">  7  8 -1 -1</clus>
<clus scale="  118.352">  2  9  1 -1</clus>
<clus scale="  141.882">  1  5  2 -1</clus>
<clus scale="  118.352">  2  5  1 -1</clus>
</clustering>
</event>
<event>
 9    2  0.9254368E-005  0.1001577E+03  0.7546771E-02  0.1283637E+00
         21   -1    0    0  501  502  0.00000000000E+00  0.00000000000E+00  0.42165638015E+03  0.42165638015E+03  0.00000000000E+00 0. -1.
         -3   -1    0    0    0  501 -0.00000000000E+00 -0.00000000000E+00 -0.43436865682E+02  0.43436865682E+02  0.00000000000E+00 0.  1.
         23    2    1    2    0    0 -0.22835994904E+02 -0.30080489245E+02  0.89568638281E+02  0.13208492847E+03  0.89429127633E+02 0.  0.
         24    2    1    2    0    0  0.71136836979E+02  0.11989623808E+02  0.23220735964E+03  0.25654838460E+03  0.81808404924E+02 0.  0.
        -11    1    4    4    0    0  0.40479666812E+02  0.38767007659E+02  0.71962722907E+02  0.91214679719E+02  0.00000000000E+00 0.  1.
         12    1    4    4    0    0  0.30657170167E+02 -0.26777383851E+02  0.16024463673E+03  0.16533370488E+03  0.00000000000E+00 0. -1.
        -13    1    3    3    0    0 -0.22826861975E+01 -0.50526127767E+02  0.16060266693E+02  0.53066302016E+02  0.00000000000E+00 0.  1.
         13    1    3    3    0    0 -0.20553308707E+02  0.20445638523E+02  0.73508371587E+02  0.79018626455E+02  0.00000000000E+00 0. -1.
         -4    1    1    2    0  502 -0.48300842074E+02  0.18090865437E+02  0.56443516545E+02  0.76459932758E+02  0.00000000000E+00 0.  1.
<scales pt_clust_5="13000.00000" pt_clust_6="13000.00000" pt_clust_7="13000.00000" pt_clust_8="13000.00000" pt_clust_9="51.57764"></scales>
<clustering>
<clus scale="   51.578">  1  9  2 -1</clus>
<clus scale="   81.808">  5  6 -1 -1</clus>
<clus scale="   89.429">  7  8 -1 -1</clus>
<clus scale="   93.416">  1  5  2 -1</clus>
<clus scale="   51.578">  1  5  2 -1</clus>
</clustering>
</event>
<event>
 9    2  0.9729411E-005  0.1036697E+03  0.7546771E-02  0.1277515E+00
         21   -1    0    0  501  502  0.00000000000E+00  0.00000000000E+00  0.55906999831E+03  0.55906999831E+03  0.00000000000E+00 0. -1.
          2   -1    0    0  502    0 -0.00000000000E+00 -0.00000000000E+00 -0.10388807289E+03  0.10388807289E+03  0.00000000000E+00 0. -1.
         23    2    1    2    0    0 -0.47997362874E+02 -0.17987163183E+02 -0.70653019603E+02  0.12603377348E+03  0.90914124289E+02 0.  0.
         24    2    1    2    0    0  0.28284563888E+02  0.65056460546E+01  0.40096085053E+03  0.40998352746E+03  0.80464583212E+02 0.  0.
        -11    1    4    4    0    0  0.44177459937E+02  0.30730519583E+02  0.20748034512E+03  0.21434576369E+03  0.00000000000E+00 0.  1.
         12    1    4    4    0    0 -0.15892896049E+02 -0.24224873528E+02  0.19348050540E+03  0.19563776377E+03  0.00000000000E+00 0. -1.
        -13    1    3    3    0    0  0.22568713529E+02 -0.62878382769E+01  0.26940123106E+01  0.23582651311E+02  0.00000000000E+00 0.  1.
         13    1    3    3    0    0 -0.70566076403E+02 -0.11699324906E+02 -0.73347031914E+02  0.10245112216E+03  0.00000000000E+00 0. -1.
          1    1    1    2  501    0  0.19712798987E+02  0.11481517128E+02  0.12487409449E+03  0.12694077026E+03  0.00000000000E+00 0. -1.
<scales pt_clust_5="13000.00000" pt_clust_6="13000.00000" pt_clust_7="13000.00000" pt_clust_8="13000.00000" pt_clust_9="22.81271"></scales>
<clustering>
<clus scale="   22.813">  1  9  2 -1</clus>
<clus scale="   80.465">  5  6 -1 -1</clus>
<clus scale="   90.914">  7  8 -1 -1</clus>
<clus scale="   94.639">  1  5  2 -1</clus>
<clus scale="   22.813">  1  5  2 -1</clus>
</clustering>
</event>
<event>
 9    2  0.9254368E-005  0.9718798E+02  0.7546771E-02  0.1292224E+00
         21   -1    0    0  501  502  0.00000000000E+00  0.00000000000E+00  0.16722725478E+03  0.16722725478E+03  0.00000000000E+00 0. -1.
         -3   -1    0    0    0  501 -0.00000000000E+00 -0.00000000000E+00 -0.10051103955E+03  0.10051103955E+03  0.00000000000E+00 0.  1.
         24    2    1    2    0    0 -0.81266713155E+01 -0.32000922026E+02 -0.77123993006E+00  0.86145656324E+02  0.79563669443E+02 0.  0.
         23    2    1    2    0    0 -0.28703983133E+02  0.43525215505E+02  0.89116728616E+02  0.13735315431E+03  0.90585510133E+02 0.  0.
        -13    1    3    3    0    0 -0.16926247456E+01 -0.41311087832E+02  0.31480309554E+02  0.51966150964E+02  0.00000000000E+00 0.  1.
         14    1    3    3    0    0 -0.64340465699E+01  0.93101658053E+01 -0.32251549484E+02  0.34179505361E+02  0.00000000000E+00 0. -1.
        -11    1    4    4    0    0  0.14737958610E+02  0.49474569416E+02  0.19713041010E+02  0.55258885519E+02  0.00000000000E+00 0.  1.
         11    1    4    4    0    0 -0.43441941743E+02 -0.59493539112E+01  0.69403687606E+02  0.82094268787E+02  0.00000000000E+00 0. -1.
         -4    1    1    2    0  502  0.36830654448E+02 -0.11524293479E+02 -0.21629273457E+02  0.44239483694E+02  0.00000000000E+00 0.  1.
<scales pt_clust_5="13000.00000" pt_clust_6="13000.00000" pt_clust_7="13000.00000" pt_clust_8="13000.00000" pt_clust_9="38.59155"></scales>
<clustering>
<clus scale="   38.592">  1  9  2 -1</clus>
<clus scale="   79.564">  5  6 -1 -1</clus>
<clus scale="   87.007">  2  5  1 -1</clus>
<clus scale="   90.586">  7  8 -1 -1</clus>
<clus scale="   38.592">  1  5  2 -1</clus>
</clustering>
</event>
<event>
 9    2  0.9254368E-005  0.9453589E+02  0.7546771E-02  0.1295538E+00
         21   -1    0    0  501  502  0.00000000000E+00  0.00000000000E+00  0.48862096223E+03  0.48862096223E+03  0.00000000000E+00 0.  1.
         -1   -1    0    0    0  501 -0.00000000000E+00 -0.00000000000E+00 -0.45994959931E+02  0.45994959931E+02  0.00000000000E+00 0.  1.
         24    2    1    2    0    0  0.26216753605E+02  0.34209125314E+02  0.18618325060E+02  0.92438572682E+02  0.79628294388E+02 0.  0.
         23    2    1    2    0    0  0.68476030780E+01 -0.29654769906E+02  0.28477090504E+03  0.29899609174E+03  0.85894699901E+02 0.  0.
        -11    1    3    3    0    0 -0.64128750573E+01  0.36943081317E+02 -0.19437991427E+02  0.42234485133E+02  0.00000000000E+00 0.  1.
         12    1    3    3    0    0  0.32629628663E+02 -0.27339560034E+01  0.38056316487E+02  0.50204087549E+02  0.00000000000E+00 0. -1.
        -11    1    4    4    0    0 -0.17952526292E+02 -0.51696540682E+02  0.13657029867E+03  0.14712672088E+03  0.00000000000E+00 0. -1.
         11    1    4    4    0    0  0.24800129370E+02  0.22041770776E+02  0.14820060637E+03  0.15186937085E+03  0.00000000000E+00 0.  1.
         -2    1    1    2    0  502 -0.33064356683E+02 -0.45543554081E+01  0.13923677219E+03  0.14318125774E+03  0.00000000000E+00 0.  1.
<scales pt_clust_5="13000.00000" pt_clust_6="13000.00000" pt_clust_7="13000.00000" pt_clust_8="13000.00000" pt_clust_9="33.37655"></scales>
<clustering>
<clus scale="   33.377">  1  9  2 -1</clus>
<clus scale="   79.628">  5  6 -1 -1</clus>
<clus scale="   85.895">  7  8 -1 -1</clus>
<clus scale="   88.881">  2  5  1 -1</clus>
<clus scale="   33.377">  1  5  2 -1</clus>
</clustering>
</event>
<event>
 9    2  0.9254368E-005  0.1054884E+03  0.7546771E-02  0.1273736E+00
         21   -1    0    0  501  502  0.00000000000E+00  0.00000000000E+00  0.71189271356E+02  0.71189271356E+02  0.00000000000E+00 0.  1.
          2   -1    0    0  502    0 -0.00000000000E+00 -0.00000000000E+00 -0.36303214200E+03  0.36303214200E+03  0.00000000000E+00 0. -1.
         24    2    1    2    0    0  0.40323975736E+02  0.39970934578E+02 -0.26759375146E+03  0.28508660820E+03  0.80276146673E+02 0.  0.
         23    2    1    2    0    0 -0.25883567770E+02 -0.20382377422E+02  0.19991927374E+02  0.98642160600E+02  0.90803074275E+02 0.  0.
        -13    1    3    3    0    0  0.32292723079E+02  0.37965950599E+02 -0.63030486927E+02  0.80355931025E+02  0.00000000000E+00 0.  1.
         14    1    3    3    0    0  0.80312526562E+01  0.20049839787E+01 -0.20456326453E+03  0.20473067718E+03  0.00000000000E+00 0. -1.
        -13    1    4    4    0    0 -0.40000681525E+02  0.24575492478E+02 -0.12269808130E+01  0.46962909141E+02  0.00000000000E+00 0. -1.
         13    1    4    4    0    0  0.14117113755E+02 -0.44957869901E+02  0.21218908187E+02  0.51679251459E+02  0.00000000000E+00 0.  1.
          1    1    1    2  501    0 -0.14440407965E+02 -0.19588557155E+02 -0.44241046557E+02  0.50492644554E+02  0.00000000000E+00 0. -1.
<scales pt_clust_5="13000.00000" pt_clust_6="13000.00000" pt_clust_7="13000.00000" pt_clust_8="13000.00000" pt_clust_9="24.33593"></scales>
<clustering>
<clus scale="   24.336">  1  9  2 -1</clus>
<clus scale="   80.276">  5  6 -1 -1</clus>
<clus scale="   90.803">  7  8 -1 -1</clus>
<clus scale="   96.576">  2  5  1 -1</clus>
<clus scale="   24.336">  1  5  2 -1</clus>
</clustering>
</event>
<event>
 9    2  0.9254368E-005  0.2082356E+03  0.7546771E-02  0.1166141E+00
         21   -1    0    0  501  502  0.00000000000E+00  0.00000000000E+00  0.45215279473E+03  0.45215279473E+03  0.00000000000E+00 0. -1.
          2   -1    0    0  502    0 -0.00000000000E+00 -0.00000000000E+00 -0.44419004809E+03  0.44419004809E+03  0.00000000000E+00 0. -1.
         24    2    1    2    0    0 -0.68995528961E+02 -0.56210829755E+02 -0.56864415423E+02  0.13350281331E+03  0.81666388571E+02 0.  0.
         23    2    1    2    0    0 -0.48284549000E+02  0.20153146630E+03 -0.28627656181E+03  0.36516361707E+03  0.91890520761E+02 0.  0.
        -13    1    3    3    0    0 -0.40584625109E+02 -0.92936331523E+01  0.13969095120E+02  0.43916045256E+02  0.00000000000E+00 0.  1.
         14    1    3    3    0    0 -0.28410903852E+02 -0.46917196602E+02 -0.70833510543E+02  0.89586768055E+02  0.00000000000E+00 0. -1.
        -11    1    4    4    0    0  0.18732332699E+02  0.67594750627E+02 -0.13587461370E+03  0.15291128555E+03  0.00000000000E+00 0.  1.
         11    1    4    4    0    0 -0.67016881699E+02  0.13393671568E+03 -0.15040194811E+03  0.21225233151E+03  0.00000000000E+00 0. -1.
          1    1    1    2  501    0  0.11728007796E+03 -0.14532063655E+03  0.35110372387E+03  0.39767641244E+03  0.00000000000E+00 0. -1.
<scales pt_clust_5="13000.00000" pt_clust_6="13000.00000" pt_clust_7="13000.00000" pt_clust_8="13000.00000" pt_clust_9="186.86415"></scales>
<clustering>
<clus scale="   81.666">  5  6 -1 -1</clus>
<clus scale="   91.891">  7  8 -1 -1</clus>
<clus scale="  120.787">  2  5  1 -1</clus>
<clus scale="  186.864">  1  9  2 -1</clus>
<clus scale="  186.864">  1  5  2 -1</clus>
</clustering>
</event>
<event>
 9    2  0.9254368E-005  0.1602849E+03  0.7546771E-02  0.1192801E+00
         21   -1    0    0  501  502  0.00000000000E+00  0.00000000000E+00  0.71262110632E+02  0.71262110632E+02  0.00000000000E+00 0.  1.
          2   -1    0    0  502    0 -0.00000000000E+00 -0.00000000000E+00 -0.86356851032E+03  0.86356851032E+03  0.00000000000E+00 0. -1.
         23    2    1    2    0    0 -0.13149694970E+03  0.92836301931E+01 -0.49022835829E+03  0.51832035120E+03  0.10466379332E+03 0.  0.
         24    2    1    2    0    0  0.84760818585E+02  0.71276126478E+02 -0.46189401098E+02  0.14419953441E+03  0.79971009602E+02 0.  0.
        -13    1    4    4    0    0  0.86019661668E+02  0.83046792970E+02 -0.52727212659E+02  0.13067635965E+03  0.00000000000E+00 0.  1.
         14    1    4    4    0    0 -0.12588430830E+01 -0.11770666492E+02  0.65378115618E+01  0.13523174760E+02  0.00000000000E+00 0. -1.
        -13    1    3    3    0    0 -0.11058279750E+03  0.49121292239E+02 -0.31596237372E+03  0.33833958985E+03  0.00000000000E+00 0.  1.
         13    1    3    3    0    0 -0.20914152200E+02 -0.39837662046E+02 -0.17426598457E+03  0.17998076136E+03  0.00000000000E+00 0. -1.
          1    1    1    2  501    0  0.46736131112E+02 -0.80559756671E+02 -0.25588864030E+03  0.27231073534E+03  0.00000000000E+00 0. -1.
<scales pt_clust_5="13000.00000" pt_clust_6="13000.00000" pt_clust_7="13000.00000" pt_clust_8="13000.00000" pt_clust_9="93.13511"></scales>
<clustering>
<clus scale="   79.971">  5  6 -1 -1</clus>
<clus scale="   93.135">  1  9  2 -1</clus>
<clus scale="  104.664">  7  8 -1 -1</clus>
<clus scale="  145.369">  1  5  2 -1</clus>
<clus scale="   93.135">  1  5  2 -1</clus>
</clustering>
</event>
<event>
 9    2  0.9254368E-005  0.9318203E+02  0.7546771E-02  0.1302946E+00
         21   -1    0    0  501  502  0.00000000000E+00  0.00000000000E+00  0.24731932577E+03  0.24731932577E+03  0.00000000000E+00 0.  1.
          2   -1    0    0  502    0 -0.00000000000E+00 -0.00000000000E+00 -0.58100475767E+02  0.58100475767E+02  0.00000000000E+00 0. -1.
         23    2    1    2    0    0 -0.13177566808E+02 -0.46720317273E+00  0.39810700960E+02  0.10201130220E+03  0.92992189568E+02 0.  0.
         24    2    1    2    0    0 -0.35763756622E+02  0.65918262312E+01  0.10063305978E+03  0.13404155130E+03  0.80731817108E+02 0.  0.
        -11    1    4    4    0    0 -0.39890902287E+02  0.12519900126E+02  0.11257324587E+03  0.12008650078E+03  0.00000000000E+00 0.  1.
         12    1    4    4    0    0  0.41271456648E+01 -0.59280738947E+01 -0.11940186083E+02  0.13955050524E+02  0.00000000000E+00 0. -1.
        -13    1    3    3    0    0 -0.30625968616E+02  0.37527048394E+02  0.71617134362E+01  0.48964471346E+02  0.00000000000E+00 0. -1.
         13    1    3    3    0    0  0.17448401808E+02 -0.37994251567E+02  0.32648987523E+02  0.53046830858E+02  0.00000000000E+00 0.  1.
          1    1    1    2  501    0  0.48941323430E+02 -0.61246230585E+01  0.48775089259E+02  0.69366948029E+02  0.00000000000E+00 0. -1.
<scales pt_clust_5="13000.00000" pt_clust_6="13000.00000" pt_clust_7="13000.00000" pt_clust_8="13000.00000" pt_clust_9="49.32306"></scales>
<clustering>
<clus scale="   49.323">  1  9  2 -1</clus>
<clus scale="   80.732">  5  6 -1 -1</clus>
<clus scale="   80.950">  1  5  2 -1</clus>
<clus scale="   92.992">  7  8 -1 -1</clus>
<clus scale="   49.323">  1  5  2 -1</clus>
</clustering>
</event>
<event>
 9    2  0.9254368E-005  0.9833137E+02  0.7546771E-02  0.1285332E+00
          2   -1    0    0  502    0 -0.00000000000E+00  0.00000000000E+00  0.44815270167E+03  0.44815270167E+03  0.00000000000E+00 0. -1.
         21   -1    0    0  501  502  0.00000000000E+00 -0.00000000000E+00 -0.76531202551E+02  0.76531202551E+02  0.00000000000E+00 0. -1.
         23    2    1    2    0    0 -0.18595014546E+02  0.40007754559E+02  0.22665290107E+03  0.24542274536E+03  0.83152819483E+02 0.  0.
         24    2    1    2    0    0  0.84144270450E+02 -0.19594788967E+02  0.16950518850E+03  0.20635410581E+03  0.79911163491E+02 0.  0.
        -13    1    4    4    0    0  0.67731718813E+02 -0.47324630952E+02  0.99831082587E+02  0.12958955004E+03  0.00000000000E+00 0.  1.
         14    1    4    4    0    0  0.16412551636E+02  0.27729841985E+02  0.69674105913E+02  0.76764555770E+02  0.00000000000E+00 0. -1.
        -13    1    3    3    0    0  0.13893115955E+01 -0.25077177731E+02  0.77436005259E+02  0.81407186047E+02  0.00000000000E+00 0.  1.
         13    1    3    3    0    0 -0.19984326142E+02  0.65084932291E+02  0.14921689581E+03  0.16401555932E+03  0.00000000000E+00 0. -1.
          1    1    1    2  501    0 -0.65549255904E+02 -0.20412965592E+02 -0.24536590450E+02  0.72907053052E+02  0.00000000000E+00 0. -1.
<scales pt_clust_5="13000.00000" pt_clust_6="13000.00000" pt_clust_7="13000.00000" pt_clust_8="13000.00000" pt_clust_9="68.65416"></scales>
<clustering>
<clus scale="   68.654">  2  9  1 -1</clus>
<clus scale="   79.911">  5  6 -1 -1</clus>
<clus scale="   83.153">  7  8 -1 -1</clus>
<clus scale="   95.606">  2  5  1 -1</clus>
<clus scale="   68.654">  2  5  1 -1</clus>
</clustering>
</event>
<event>
 9    2  0.9254368E-005  0.1045255E+03  0.7546771E-02  0.1275099E+00
         21   -1    0    0  501  502  0.00000000000E+00  0.00000000000E+00  0.77166203873E+02  0.77166203873E+02  0.00000000000E+00 0.  1.
          2   -1    0    0  502    0 -0.00000000000E+00 -0.00000000000E+00 -0.50216086965E+03  0.50216086965E+03  0.00000000000E+00 0. -1.
         24    2    1    2    0    0  0.48153921409E+02  0.80927287305E+01 -0.36505256326E+03  0.37718301355E+03  0.81359445421E+02 0.  0.
         23    2    1    2    0    0 -0.68920544781E+02  0.11977736714E+02 -0.10055552921E+03  0.15230906567E+03  0.90515906667E+02 0.  0.
        -13    1    3    3    0    0 -0.19908436445E+02  0.86637551926E+01 -0.44886039467E+02  0.49861438355E+02  0.00000000000E+00 0.  1.
         14    1    3    3    0    0  0.68062357854E+02 -0.57102646208E+00 -0.32016652379E+03  0.32732157519E+03  0.00000000000E+00 0. -1.
        -11    1    4    4    0    0 -0.54947588947E+02  0.48657327188E+02 -0.52385052957E+02  0.90171873627E+02  0.00000000000E+00 0.  1.
         11    1    4    4    0    0 -0.13972955835E+02 -0.36679590474E+02 -0.48170476254E+02  0.62137192040E+02  0.00000000000E+00 0. -1.
          1    1    1    2  501    0  0.20766623372E+02 -0.20070465444E+02  0.40613426698E+02  0.49834994307E+02  0.00000000000E+00 0. -1.
<scales pt_clust_5="13000.00000" pt_clust_6="13000.00000" pt_clust_7="13000.00000" pt_clust_8="13000.00000" pt_clust_9="28.88038"></scales>
<clustering>
<clus scale="   28.880">  1  9  2 -1</clus>
<clus scale="   81.359">  5  6 -1 -1</clus>
<clus scale="   90.516">  7  8 -1 -1</clus>
<clus scale="   96.705">  2  5  1 -1</clus>
<clus scale="   28.880">  1  5  2 -1</clus>
</clustering>
</event>
<event>
 9    2  0.9254368E-005  0.1876235E+03  0.7546771E-02  0.1183213E+00
         21   -1    0    0  501  502  0.00000000000E+00  0.00000000000E+00  0.64937339137E+02  0.64937339137E+02  0.00000000000E+00 0.  1.
          2   -1    0    0  502    0 -0.00000000000E+00 -0.00000000000E+00 -0.86275452014E+03  0.86275452014E+03  0.00000000000E+00 0. -1.
         24    2    1    2    0    0 -0.40966252155E+02 -0.66650026200E+02 -0.19978406097E+03  0.22908499200E+03  0.80285756752E+02 0.  0.
         23    2    1    2    0    0  0.13243054085E+03  0.16089234154E+03 -0.35057721020E+03  0.41846090993E+03  0.93706771943E+02 0.  0.
        -13    1    3    3    0    0 -0.20477344961E+02 -0.42555720820E+02 -0.29048801201E+02  0.55444962642E+02  0.00000000000E+00 0.  1.
         14    1    3    3    0    0 -0.20488907195E+02 -0.24094305380E+02 -0.17073525977E+03  0.17364002936E+03  0.00000000000E+00 0. -1.
        -13    1    4    4    0    0  0.65002837696E+02  0.13945459026E+03 -0.27368883597E+03  0.31397218123E+03  0.00000000000E+00 0.  1.
         13    1    4    4    0    0  0.67427703152E+02  0.21437751283E+02 -0.76888374235E+02  0.10448872870E+03  0.00000000000E+00 0. -1.
          1    1    1    2  501    0 -0.91464288693E+02 -0.94242315338E+02 -0.24745590984E+03  0.28014595735E+03  0.00000000000E+00 0. -1.
<scales pt_clust_5="13000.00000" pt_clust_6="13000.00000" pt_clust_7="13000.00000" pt_clust_8="13000.00000" pt_clust_9="162.54726"></scales>
<clustering>
<clus scale="   80.286">  5  6 -1 -1</clus>
<clus scale="   93.707">  7  8 -1 -1</clus>
<clus scale="  112.099">  2  5  1 -1</clus>
<clus scale="  162.547">  1  9  2 -1</clus>
<clus scale="  162.547">  1  5  2 -1</clus>
</clustering>
</event>
<event>
 9    2  0.9254368E-005  0.9621237E+02  0.7546771E-02  0.1293325E+00
         21   -1    0    0  501  502  0.00000000000E+00  0.00000000000E+00  0.13095742575E+04  0.13095742575E+04  0.00000000000E+00 0. -1.
          4   -1    0    0  502    0 -0.00000000000E+00 -0.00000000000E+00 -0.14796585609E+02  0.14796585609E+02  0.00000000000E+00 0. -1.
         23    2    1    2    0    0  0.71053397400E+01  0.41410351083E+01  0.38822929672E+03  0.39872141919E+03  0.90493918392E+02 0.  0.
         24    2    1    2    0    0 -0.49083297927E+02 -0.57883557885E+02  0.67981212582E+03  0.68888005407E+03  0.81556888588E+02 0.  0.
        -11    1    4    4    0    0 -0.29922838508E+02 -0.42224702157E+02  0.15355495384E+03  0.16204143169E+03  0.00000000000E+00 0.  1.
         12    1    4    4    0    0 -0.19160459419E+02 -0.15658855729E+02  0.52625717198E+03  0.52683862238E+03  0.00000000000E+00 0. -1.
        -13    1    3    3    0    0  0.46364556591E+02 -0.93755796831E+01  0.24814018948E+03  0.25260864443E+03  0.00000000000E+00 0.  1.
         13    1    3    3    0    0 -0.39259216851E+02  0.13516614791E+02  0.14008910724E+03  0.14611277477E+03  0.00000000000E+00 0. -1.
          3    1    1    2  501    0  0.41977958187E+02  0.53742522777E+02  0.22673624935E+03  0.23676936984E+03  0.00000000000E+00 0. -1.
<scales pt_clust_5="13000.00000" pt_clust_6="13000.00000" pt_clust_7="13000.00000" pt_clust_8="13000.00000" pt_clust_9="68.19393"></scales>
<clustering>
<clus scale="   68.194">  1  9  2 -1</clus>
<clus scale="   81.557">  5  6 -1 -1</clus>
<clus scale="   87.859">  1  5  2 -1</clus>
<clus scale="   90.494">  7  8 -1 -1</clus>
<clus scale="   68.194">  1  5  2 -1</clus>
</clustering>
</event>
<event>
 9    2  0.9254368E-005  0.2915891E+03  0.7546771E-02  0.1089772E+00
          2   -1    0    0  502    0 -0.00000000000E+00  0.00000000000E+00  0.14567346423E+03  0.14567346423E+03  0.00000000000E+00 0. -1.
         21   -1    0    0  501  502  0.00000000000E+00 -0.00000000000E+00 -0.11383170744E+04  0.11383170744E+04  0.00000000000E+00 0.  1.
         24    2    1    2    0    0  0.27077011206E+03  0.60613345797E+02 -0.79125089544E+02  0.29942061216E+03  0.80009323941E+02 0.  0.
         23    2    1    2    0    0 -0.26580647148E+03 -0.98665091140E+02 -0.60573948630E+03  0.67440786073E+03  0.86704999084E+02 0.  0.
        -11    1    3    3    0    0  0.11296134806E+03  0.43611896991E+01 -0.67088457420E+02  0.13145397389E+03  0.00000000000E+00 0.  1.
         12    1    3    3    0    0  0.15780876399E+03  0.56252156098E+02 -0.12036632125E+02  0.16796663827E+03  0.00000000000E+00 0. -1.
        -13    1    4    4    0    0 -0.27397337298E+02 -0.15909642503E+02 -0.22344203835E+02  0.38768469929E+02  0.00000000000E+00 0. -1.
         13    1    4    4    0    0 -0.23840913419E+03 -0.82755448637E+02 -0.58339528246E+03  0.63563939080E+03  0.00000000000E+00 0.  1.
          1    1    1    2  501    0 -0.49636405720E+01  0.38051745343E+02 -0.30777903438E+03  0.31016206579E+03  0.00000000000E+00 0. -1.
<scales pt_clust_5="13000.00000" pt_clust_6="13000.00000" pt_clust_7="13000.00000" pt_clust_8="13000.00000" pt_clust_9="38.37412"></scales>
<clustering>
<clus scale="   38.374">  2  9  1 -1</clus>
<clus scale="   80.009">  5  6 -1 -1</clus>
<clus scale="   86.705">  7  8 -1 -1</clus>
<clus scale="  289.669">  1  5  2 -1</clus>
<clus scale="   38.374">  2  5  1 -1</clus>
</clustering>
</event>
<event>
 9    2  0.9254368E-005  0.2650300E+03  0.7546771E-02  0.1127762E+00
         21   -1    0    0  501  502  0.00000000000E+00  0.00000000000E+00  0.14114491730E+03  0.14114491730E+03  0.00000000000E+00 0. -1.
          2   -1    0    0  502    0 -0.00000000000E+00 -0.00000000000E+00 -0.93712148264E+03  0.93712148264E+03  0.00000000000E+00 0. -1.
         24    2    1    2    0    0  0.10709745759E+03 -0.59090977740E+02 -0.92894731480E+02  0.17323029658E+03  0.80110520180E+02 0.  0.
         23    2    1    2    0    0 -0.23502026916E+03 -0.13003912878E+03 -0.18245136615E+03  0.33653761890E+03  0.88455446421E+02 0.  0.
        -13    1    3    3    0    0  0.55905295033E+02 -0.49502089203E+01 -0.26307367326E+01  0.56185650809E+02  0.00000000000E+00 0.  1.
         14    1    3    3    0    0  0.51192162559E+02 -0.54140768819E+02 -0.90263994747E+02  0.11704464577E+03  0.00000000000E+00 0. -1.
        -11    1    4    4    0    0 -0.21628077638E+03 -0.13823886550E+03 -0.18430404679E+03  0.31599895543E+03  0.00000000000E+00 0.  1.
         11    1    4    4    0    0 -0.18739492772E+02  0.81997367278E+01  0.18526806434E+01  0.20538663474E+02  0.00000000000E+00 0. -1.
          1    1    1    2  501    0  0.12792281156E+03  0.18913010652E+03 -0.52063046772E+03  0.56849848445E+03  0.00000000000E+00 0. -1.
<scales pt_clust_5="13000.00000" pt_clust_6="13000.00000" pt_clust_7="13000.00000" pt_clust_8="13000.00000" pt_clust_9="249.83314"></scales>
<clustering>
<clus scale="   80.111">  5  6 -1 -1</clus>
<clus scale="   88.455">  7  8 -1 -1</clus>
<clus scale="  146.217">  2  5  1 -1</clus>
<clus scale="  249.833">  1  9  2 -1</clus>
<clus scale="  249.833">  1  5  2 -1</clus>
</clustering>
</event>
<event>
 9    2  0.9254368E-005  0.1625319E+03  0.7546771E-02  0.1212912E+00
         21   -1    0    0  501  502  0.00000000000E+00  0.00000000000E+00  0.24898043514E+03  0.24898043514E+03  0.00000000000E+00 0. -1.
          2   -1    0    0  502    0 -0.00000000000E+00 -0.00000000000E+00 -0.63980158447E+03  0.63980158447E+03  0.00000000000E+00 0. -1.
         23    2    1    2    0    0 -0.13543755457E+01 -0.34697224271E+01 -0.24336966647E+03  0.25957175463E+03  0.90193280991E+02 0.  0.
         24    2    1    2    0    0  0.88638409020E+02  0.10986293376E+03  0.19861427799E+03  0.25678640868E+03  0.81024665970E+02 0.  0.
        -11    1    4    4    0    0  0.64302142476E+02  0.16657832760E+02  0.82301726615E+02  0.10576305179E+03  0.00000000000E+00 0.  1.
         12    1    4    4    0    0  0.24336266544E+02  0.93205100996E+02  0.11631255137E+03  0.15102335689E+03  0.00000000000E+00 0. -1.
        -11    1    3    3    0    0 -0.89048819734E+01 -0.44756571206E+02 -0.15775177840E+03  0.16421958220E+03  0.00000000000E+00 0. -1.
         11    1    3    3    0    0  0.75505064277E+01  0.41286848779E+02 -0.85617888067E+02  0.95352172426E+02  0.00000000000E+00 0.  1.
          1    1    1    2  501    0 -0.87284033475E+02 -0.10639321133E+03 -0.34606576084E+03  0.37242385630E+03  0.00000000000E+00 0. -1.
<scales pt_clust_5="13000.00000" pt_clust_6="13000.00000" pt_clust_7="13000.00000" pt_clust_8="13000.00000" pt_clust_9="140.89586"></scales>
<clustering>
<clus scale="   81.025">  5  6 -1 -1</clus>
<clus scale="   90.193">  7  8 -1 -1</clus>
<clus scale="   90.270">  2  7  1 -1</clus>
<clus scale="  140.896">  1  9  2 -1</clus>
<clus scale="  140.896">  1  5  2 -1</clus>
</clustering>
</event>
<event>
 9    2  0.9254368E-005  0.2025094E+03  0.7546771E-02  0.1172018E+00
         21   -1    0    0  501  502  0.00000000000E+00  0.00000000000E+00  0.44079373544E+02  0.44079373544E+02  0.00000000000E+00 0. -1.
          2   -1    0    0  502    0 -0.00000000000E+00 -0.00000000000E+00 -0.15441406359E+04  0.15441406359E+04  0.00000000000E+00 0. -1.
         24    2    1    2    0    0 -0.80798538369E+02  0.11592062359E+02 -0.45840108370E+03  0.47255324765E+03  0.80698442475E+02 0.  0.
         23    2    1    2    0    0  0.10709861120E+03  0.16425493306E+03 -0.66062768811E+03  0.69519129464E+03  0.91718036884E+02 0.  0.
        -13    1    3    3    0    0 -0.95362475427E+02  0.19974910795E+02 -0.40582148753E+03  0.41735366121E+03  0.00000000000E+00 0.  1.
         14    1    3    3    0    0  0.14563937058E+02 -0.83828484365E+01 -0.52579596166E+02  0.55199586443E+02  0.00000000000E+00 0. -1.
        -13    1    4    4    0    0 -0.13967595387E+02  0.28208786174E+02 -0.62907684076E+02  0.70343486224E+02  0.00000000000E+00 0.  1.
         13    1    4    4    0    0  0.12106620659E+03  0.13604614688E+03 -0.59772000403E+03  0.62484780842E+03  0.00000000000E+00 0. -1.
          1    1    1    2  501    0 -0.26300072833E+02 -0.17584699542E+03 -0.38103249059E+03  0.42047546719E+03  0.00000000000E+00 0. -1.
<scales pt_clust_5="13000.00000" pt_clust_6="13000.00000" pt_clust_7="13000.00000" pt_clust_8="13000.00000" pt_clust_9="180.54882"></scales>
<clustering>
<clus scale="   80.698">  5  6 -1 -1</clus>
<clus scale="   91.718">  7  8 -1 -1</clus>
<clus scale="  114.782">  2  5  1 -1</clus>
<clus scale="  180.549">  1  9  2 -1</clus>
<clus scale="  180.549">  1  5  2 -1</clus>
</clustering>
</event>
<event>
 9    2  0.9254368E-005  0.1055874E+03  0.7546771E-02  0.1275006E+00
         21   -1    0    0  501  502  0.00000000000E+00  0.00000000000E+00  0.35972056626E+03  0.35972056626E+03  0.00000000000E+00 0. -1.
         -3   -1    0    0    0  501 -0.00000000000E+00 -0.00000000000E+00 -0.65417518797E+02  0.65417518797E+02  0.00000000000E+00 0.  1.
         24    2    1    2    0    0  0.48036849807E+02 -0.11087246282E+02 -0.64442825032E+01  0.94690911919E+02  0.80587679292E+02 0.  0.
         23    2    1    2    0    0 -0.47168857454E+02 -0.14046564425E+02  0.19704766316E+03  0.22374158402E+03  0.93863239775E+02 0.  0.
        -13    1    3    3    0    0  0.39446415211E+02 -0.42395198800E+02 -0.17335833048E+02  0.60447528169E+02  0.00000000000E+00 0.  1.
         14    1    3    3    0    0  0.85904345966E+01  0.31307952518E+02  0.10891550545E+02  0.34243383750E+02  0.00000000000E+00 0. -1.
        -11    1    4    4    0    0 -0.34209162890E+02  0.37165574823E+02  0.12125423948E+03  0.13135500512E+03  0.00000000000E+00 0. -1.
         11    1    4    4    0    0 -0.12959694563E+02 -0.51212139248E+02  0.75793423673E+02  0.92386578904E+02  0.00000000000E+00 0.  1.
         -4    1    1    2    0  502 -0.86799235392E+00  0.25133810707E+02  0.10369966681E+03  0.10670558911E+03  0.00000000000E+00 0.  1.
<scales pt_clust_5="13000.00000" pt_clust_6="13000.00000" pt_clust_7="13000.00000" pt_clust_8="13000.00000" pt_clust_9="25.14879"></scales>
<clustering>
<clus scale="   25.149">  1  9  2 -1</clus>
<clus scale="   80.588">  5  6 -1 -1</clus>
<clus scale="   93.863">  7  8 -1 -1</clus>
<clus scale="   93.983">  2  5  1 -1</clus>
<clus scale="   25.149">  1  5  2 -1</clus>
</clustering>
</event>
<event>
 9    2  0.9254368E-005  0.1012579E+03  0.7546771E-02  0.1283969E+00
         21   -1    0    0  501  502  0.00000000000E+00  0.00000000000E+00  0.53889912033E+03  0.53889912033E+03  0.00000000000E+00 0. -1.
          4   -1    0    0  502    0 -0.00000000000E+00 -0.00000000000E+00 -0.25496508223E+02  0.25496508223E+02  0.00000000000E+00 0. -1.
         23    2    1    2    0    0  0.47500329807E+02  0.57462857697E+02  0.17334429402E+03  0.19958745161E+03  0.65028034132E+02 0.  0.
         24    2    1    2    0    0 -0.13268669480E+02 -0.43502384558E+02  0.27464429976E+03  0.28967033580E+03  0.80068077270E+02 0.  0.
        -11    1    4    4    0    0 -0.25414350711E+02  0.16800452042E+02  0.97565483771E+02  0.10221138897E+03  0.00000000000E+00 0.  1.
         12    1    4    4    0    0  0.12145681231E+02 -0.60302836601E+02  0.17707881599E+03  0.18745894683E+03  0.00000000000E+00 0. -1.
        -13    1    3    3    0    0  0.22543463360E+02  0.90864667042E-01  0.99829569956E+01  0.24655129832E+02  0.00000000000E+00 0. -1.
         13    1    3    3    0    0  0.24956866447E+02  0.57371993030E+02  0.16336133703E+03  0.17493232178E+03  0.00000000000E+00 0.  1.
          3    1    1    2  501    0 -0.34231660327E+02 -0.13960473139E+02  0.65414018319E+02  0.75137841143E+02  0.00000000000E+00 0. -1.
<scales pt_clust_5="13000.00000" pt_clust_6="13000.00000" pt_clust_7="13000.00000" pt_clust_8="13000.00000" pt_clust_9="36.96894"></scales>
<clustering>
<clus scale="   36.969">  1  9  2 -1</clus>
<clus scale="   65.028">  7  8 -1 -1</clus>
<clus scale="   80.068">  5  6 -1 -1</clus>
<clus scale="   89.838">  2  7  1 -1</clus>
<clus scale="   36.969">  1  5  2 -1</clus>
</clustering>
</event>
<event>
 9    2  0.9254368E-005  0.9598648E+02  0.7546771E-02  0.1290336E+00
          2   -1    0    0  502    0 -0.00000000000E+00  0.00000000000E+00  0.29114148910E+03  0.29114148910E+03  0.00000000000E+00 0. -1.
         21   -1    0    0  501  502  0.00000000000E+00 -0.00000000000E+00 -0.15878362198E+03  0.15878362198E+03  0.00000000000E+00 0. -1.
         24    2    1    2    0    0  0.56327159023E+02  0.16974216541E+02  0.21527352626E+03  0.23575895985E+03  0.76017913492E+02 0.  0.
         23    2    1    2    0    0 -0.13719023969E+02  0.39517491835E+02 -0.10700252182E+03  0.13942029354E+03  0.78985028924E+02 0.  0.
        -11    1    3    3    0    0 -0.64728841816E+01 -0.18964709421E+02  0.24052814763E+02  0.31306490239E+02  0.00000000000E+00 0.  1.
         12    1    3    3    0    0  0.62800043205E+02  0.35938925962E+02  0.19122071150E+03  0.20445246961E+03  0.00000000000E+00 0. -1.
        -13    1    4    4    0    0 -0.37183627096E+02  0.50640967320E+02 -0.82670924939E+02  0.10383453917E+03  0.00000000000E+00 0. -1.
         13    1    4    4    0    0  0.23464603127E+02 -0.11123475485E+02 -0.24331596886E+02  0.35585754366E+02  0.00000000000E+00 0.  1.
          1    1    1    2  501    0 -0.42608135054E+02 -0.56491708376E+02  0.24086862685E+02  0.74745857691E+02  0.00000000000E+00 0. -1.
<scales pt_clust_5="13000.00000" pt_clust_6="13000.00000" pt_clust_7="13000.00000" pt_clust_8="13000.00000" pt_clust_9="70.75854"></scales>
<clustering>
<clus scale="   70.759">  2  9  1 -1</clus>
<clus scale="   76.018">  5  6 -1 -1</clus>
<clus scale="   78.985">  7  8 -1 -1</clus>
<clus scale="   93.560">  1  5  2 -1</clus>
<clus scale="   70.759">  2  5  1 -1</clus>
</clustering>
</event>
<event>
 9    2  0.9254368E-005  0.4576524E+03  0.7546771E-02  0.1025669E+00
          2   -1    0    0  502    0 -0.00000000000E+00  0.00000000000E+00  0.24081010563E+04  0.24081010563E+04  0.00000000000E+00 0. -1.
         21   -1    0    0  501  502  0.00000000000E+00 -0.00000000000E+00 -0.41598649584E+03  0.41598649584E+03  0.00000000000E+00 0. -1.
         23    2    1    2    0    0  0.36295155254E+03 -0.26979207466E+03  0.20994029841E+04  0.21495581611E+04  0.92659619980E+02 0.  0.
         24    2    1    2    0    0 -0.34251601605E+03  0.24620922053E+03  0.11977951322E+03  0.44532727474E+03  0.77672699979E+02 0.  0.
        -11    1    4    4    0    0 -0.32456904227E+03  0.22260761594E+03  0.12916761857E+03  0.41422637236E+03  0.00000000000E+00 0.  1.
         12    1    4    4    0    0 -0.17946973780E+02  0.23601604590E+02 -0.93881053484E+01  0.31100902384E+02  0.00000000000E+00 0. -1.
        -13    1    3    3    0    0  0.19067714230E+03 -0.14443715629E+03  0.13231070413E+04  0.13445564724E+04  0.00000000000E+00 0. -1.
         13    1    3    3    0    0  0.17227441024E+03 -0.12535491837E+03  0.77629594285E+03  0.80500168874E+03  0.00000000000E+00 0.  1.
          1    1    1    2  501    0 -0.20435536496E+02  0.23582854133E+02 -0.22706793687E+03  0.22920211630E+03  0.00000000000E+00 0. -1.
<scales pt_clust_5="13000.00000" pt_clust_6="13000.00000" pt_clust_7="13000.00000" pt_clust_8="13000.00000" pt_clust_9="31.20516"></scales>
<clustering>
<clus scale="   31.205">  2  9  1 -1</clus>
<clus scale="   77.673">  5  6 -1 -1</clus>
<clus scale="   92.660">  7  8 -1 -1</clus>
<clus scale="  454.855">  2  5  1 -1</clus>
<clus scale="   31.205">  2  5  1 -1</clus>
</clustering>
</event>
<event>
 9    2  0.9254368E-005  0.9971338E+02  0.7546771E-02  0.1286521E+00
          2   -1    0    0  502    0 -0.00000000000E+00  0.00000000000E+00  0.30746569611E+03  0.30746569611E+03  0.00000000000E+00 0. -1.
         21   -1    0    0  501  502  0.00000000000E+00 -0.00000000000E+00 -0.71228763963E+02  0.71228763963E+02  0.00000000000E+00 0. -1.
         24    2    1    2    0    0  0.36032336846E+02 -0.10043058323E+02  0.19828887073E+03  0.21690153217E+03  0.79552536635E+02 0.  0.
         23    2    1    2    0    0 -0.56881459950E+02 -0.69600472621E+01  0.63492337228E+02  0.12469438939E+03  0.90738476480E+02 0.  0.
        -11    1    3    3    0    0  0.52492936433E+02 -0.29746210413E+02  0.15799232378E+03  0.16912102112E+03  0.00000000000E+00 0.  1.
         12    1    3    3    0    0 -0.16460599587E+02  0.19703152090E+02  0.40296546947E+02  0.47780511057E+02  0.00000000000E+00 0. -1.
        -11    1    4    4    0    0  0.17846588663E+02  0.20190098404E+02  0.23210857125E+02  0.35565217403E+02  0.00000000000E+00 0.  1.
         11    1    4    4    0    0 -0.74728048613E+02 -0.27150145666E+02  0.40281480103E+02  0.89129171984E+02  0.00000000000E+00 0. -1.
          1    1    1    2  501    0  0.20849123104E+02  0.17003105585E+02 -0.25544275806E+02  0.37098538518E+02  0.00000000000E+00 0. -1.
<scales pt_clust_5="13000.00000" pt_clust_6="13000.00000" pt_clust_7="13000.00000" pt_clust_8="13000.00000" pt_clust_9="26.90337"></scales>
<clustering>
<clus scale="   26.903">  2  9  1 -1</clus>
<clus scale="   79.553">  5  6 -1 -1</clus>
<clus scale="   89.654">  1  5  2 -1</clus>
<clus scale="   90.738">  7  8 -1 -1</clus>
<clus scale="   26.903">  2  5  1 -1</clus>
</clustering>
</event>
<event>
 9    2  0.9254368E-005  0.9588292E+02  0.7546771E-02  0.1310551E+00
          2   -1    0    0  502    0 -0.00000000000E+00  0.00000000000E+00  0.37857768050E+03  0.37857768050E+03  0.00000000000E+00 0. -1.
         21   -1    0    0  501  502  0.00000000000E+00 -0.00000000000E+00 -0.12027204556E+03  0.12027204556E+03  0.00000000000E+00 0. -1.
         24    2    1    2    0    0 -0.10897394079E+01  0.26762457443E+02  0.33379732376E+03  0.34014221269E+03  0.59654462073E+02 0.  0.
         23    2    1    2    0    0  0.10655282248E+02  0.14196774346E+02 -0.35651905207E+02  0.10077335560E+03  0.92569581469E+02 0.  0.
        -13    1    3    3    0    0 -0.22380317693E+02 -0.40047451627E+01  0.67427336335E+02  0.71157306646E+02  0.00000000000E+00 0.  1.
         14    1    3    3    0    0  0.21290578285E+02  0.30767202605E+02  0.26636998742E+03  0.26898490604E+03  0.00000000000E+00 0. -1.
        -13    1    4    4    0    0  0.12080495884E+02 -0.38348729040E+02 -0.66943105193E+01  0.40759995008E+02  0.00000000000E+00 0.  1.
         13    1    4    4    0    0 -0.14252136364E+01  0.52545503386E+02 -0.28957594688E+02  0.60013360597E+02  0.00000000000E+00 0. -1.
          1    1    1    2  501    0 -0.95655428398E+01 -0.40959231789E+02 -0.39839783612E+02  0.57934157773E+02  0.00000000000E+00 0. -1.
<scales pt_clust_5="13000.00000" pt_clust_6="13000.00000" pt_clust_7="13000.00000" pt_clust_8="13000.00000" pt_clust_9="42.06136"></scales>
<clustering>
<clus scale="   42.061">  2  9  1 -1</clus>
<clus scale="   59.654">  5  6 -1 -1</clus>
<clus scale="   64.677">  1  5  2 -1</clus>
<clus scale="   92.570">  7  8 -1 -1</clus>
<clus scale="   42.061">  2  5  1 -1</clus>
</clustering>
</event>
<event>
 9    2  0.9254368E-005  0.1925427E+03  0.7546771E-02  0.1177110E+00
         21   -1    0    0  501  502  0.00000000000E+00  0.00000000000E+00  0.92008894182E+03  0.92008894182E+03  0.00000000000E+00 0.  1.
          2   -1    0    0  502    0 -0.00000000000E+00 -0.00000000000E+00 -0.81625849084E+02  0.81625849084E+02  0.00000000000E+00 0. -1.
         23    2    1    2    0    0 -0.12972348090E+02  0.57161049952E+02  0.15727076156E+03  0.19720205702E+03  0.10353207911E+03 0.  0.
         24    2    1    2    0    0  0.10592307087E+03 -0.15730997870E+03  0.62273755852E+03  0.65589710469E+03  0.80204855266E+02 0.  0.
        -11    1    4    4    0    0  0.74885021936E+02 -0.11452669940E+03  0.54483695623E+03  0.56175745679E+03  0.00000000000E+00 0.  1.
         12    1    4    4    0    0  0.31038048934E+02 -0.42783279305E+02  0.77900602290E+02  0.94139647901E+02  0.00000000000E+00 0. -1.
        -13    1    3    3    0    0 -0.45977535353E+02 -0.67063323675E+01  0.71716548138E+02  0.85452746754E+02  0.00000000000E+00 0.  1.
         13    1    3    3    0    0  0.33005187263E+02  0.63867382320E+02  0.85554213421E+02  0.11174931027E+03  0.00000000000E+00 0. -1.
          1    1    1    2  501    0 -0.92950722780E+02  0.10014892875E+03  0.58454772657E+02  0.14861562919E+03  0.00000000000E+00 0. -1.
<scales pt_clust_5="13000.00000" pt_clust_6="13000.00000" pt_clust_7="13000.00000" pt_clust_8="13000.00000" pt_clust_9="175.04258"></scales>
<clustering>
<clus scale="   80.205">  5  6 -1 -1</clus>
<clus scale="  103.532">  7  8 -1 -1</clus>
<clus scale="  118.973">  2  7  1 -1</clus>
<clus scale="  175.043">  1  9  2 -1</clus>
<clus scale="  175.043">  1  5  2 -1</clus>
</clustering>
</event>
<event>
 9    2  0.9254368E-005  0.1262334E+03  0.7546771E-02  0.1239896E+00
         21   -1    0    0  501  502  0.00000000000E+00  0.00000000000E+00  0.15078227233E+03  0.15078227233E+03  0.00000000000E+00 0.  1.
         -1   -1    0    0    0  501 -0.00000000000E+00 -0.00000000000E+00 -0.16249194604E+03  0.16249194604E+03  0.00000000000E+00 0.  1.
         24    2    1    2    0    0 -0.55905815057E+02 -0.23546233059E+02  0.71991202420E+01  0.10221096540E+03  0.81947354248E+02 0.  0.
         23    2    1    2    0    0  0.97890518164E+02 -0.16350295880E+02  0.15536664238E+02  0.14367677134E+03  0.10272166746E+03 0.  0.
        -13    1    3    3    0    0  0.16709533859E+01 -0.38875270227E+02 -0.10038446938E+02  0.40185185546E+02  0.00000000000E+00 0.  1.
         14    1    3    3    0    0 -0.57576768443E+02  0.15329037167E+02  0.17237567180E+02  0.62025779859E+02  0.00000000000E+00 0. -1.
        -13    1    4    4    0    0  0.10412941253E+02  0.33840040256E+02  0.23522938180E+02  0.42507720366E+02  0.00000000000E+00 0.  1.
         13    1    4    4    0    0  0.87477576910E+02 -0.50190336136E+02 -0.79862739418E+01  0.10116905097E+03  0.00000000000E+00 0. -1.
         -2    1    1    2    0  502 -0.41984703107E+02  0.39896528939E+02 -0.34445458192E+02  0.67386481630E+02  0.00000000000E+00 0.  1.
<scales pt_clust_5="13000.00000" pt_clust_6="13000.00000" pt_clust_7="13000.00000" pt_clust_8="13000.00000" pt_clust_9="57.91763"></scales>
<clustering>
<clus scale="   57.918">  1  9  2 -1</clus>
<clus scale="   81.947">  5  6 -1 -1</clus>
<clus scale="  102.722">  7  8 -1 -1</clus>
<clus scale="  109.993">  2  5  1 -1</clus>
<clus scale="   57.918">  1  5  2 -1</clus>
</clustering>
</event>
<event>
 9    2  0.9254368E-005  0.2190164E+03  0.7546771E-02  0.1135501E+00
         21   -1    0    0  501  502  0.00000000000E+00  0.00000000000E+00  0.20046563482E+03  0.20046563482E+03  0.00000000000E+00 0.  1.
         -3   -1    0    0    0  501 -0.00000000000E+00 -0.00000000000E+00 -0.43918560911E+03  0.43918560911E+03  0.00000000000E+00 0.  1.
         23    2    1    2    0    0 -0.20099498653E+03 -0.60130886096E+02 -0.15692855820E+03  0.27719135949E+03  0.90519441679E+02 0.  0.
         24    2    1    2    0    0  0.12674923521E+03  0.16586952944E+03 -0.63875783611E+02  0.23202192152E+03  0.78587447547E+02 0.  0.
        -11    1    4    4    0    0  0.63845811306E+02  0.12413085283E+03 -0.11336726361E+02  0.14004741200E+03  0.00000000000E+00 0.  1.
         12    1    4    4    0    0  0.62903423901E+02  0.41738676613E+02 -0.52539057250E+02  0.91974509515E+02  0.00000000000E+00 0. -1.
        -11    1    3    3    0    0 -0.41453265270E+02  0.24211639872E+02 -0.31421480049E+02  0.57374960699E+02  0.00000000000E+00 0. -1.
         11    1    3    3    0    0 -0.15954172126E+03 -0.84342525968E+02 -0.12550707815E+03  0.21981639879E+03  0.00000000000E+00 0.  1.
         -4    1    1    2    0  502  0.74245751327E+02 -0.10573864334E+03 -0.17915632482E+02  0.13043796293E+03  0.00000000000E+00 0.  1.
<scales pt_clust_5="13000.00000" pt_clust_6="13000.00000" pt_clust_7="13000.00000" pt_clust_8="13000.00000" pt_clust_9="129.20175"></scales>
<clustering>
<clus scale="   78.587">  5  6 -1 -1</clus>
<clus scale="   90.519">  7  8 -1 -1</clus>
<clus scale="  129.202">  1  9  2 -1</clus>
<clus scale="  214.360">  1  5  2 -1</clus>
<clus scale="  129.202">  1  5  2 -1</clus>
</clustering>
</event>
<event>
 9    2  0.9254368E-005  0.1616579E+03  0.7546771E-02  0.1188669E+00
          2   -1    0    0  502    0 -0.00000000000E+00  0.00000000000E+00  0.86017383020E+03  0.86017383020E+03  0.00000000000E+00 0. -1.
         21   -1    0    0  501  502  0.00000000000E+00 -0.00000000000E+00 -0.38175643464E+03  0.38175643464E+03  0.00000000000E+00 0. -1.
         23    2    1    2    0    0 -0.10299615732E+03 -0.85093045757E+02  0.65332346218E+03  0.67267292447E+03  0.88364485092E+02 0.  0.
         24    2    1    2    0    0  0.12516679365E+03  0.16456167259E+03 -0.32814704214E+03  0.39521827479E+03  0.75958759526E+02 0.  0.
        -13    1    4    4    0    0  0.21029498898E+02  0.40194070662E+02 -0.26007667209E+02  0.52289596422E+02  0.00000000000E+00 0.  1.
         14    1    4    4    0    0  0.10413729476E+03  0.12436760193E+03 -0.30213937493E+03  0.34292867837E+03  0.00000000000E+00 0. -1.
        -13    1    3    3    0    0 -0.28349198042E+02  0.17308601601E+02  0.12124192182E+03  0.12570945997E+03  0.00000000000E+00 0.  1.
         13    1    3    3    0    0 -0.74646959279E+02 -0.10240164736E+03  0.53208154036E+03  0.54696346450E+03  0.00000000000E+00 0. -1.
          1    1    1    2  501    0 -0.22170636332E+02 -0.79468626833E+02  0.15324097553E+03  0.17403906558E+03  0.00000000000E+00 0. -1.
<scales pt_clust_5="13000.00000" pt_clust_6="13000.00000" pt_clust_7="13000.00000" pt_clust_8="13000.00000" pt_clust_9="82.50337"></scales>
<clustering>
<clus scale="   75.959">  5  6 -1 -1</clus>
<clus scale="   82.503">  2  9  1 -1</clus>
<clus scale="   88.364">  7  8 -1 -1</clus>
<clus scale="  155.225">  2  5  1 -1</clus>
<clus scale="   82.503">  2  5  1 -1</clus>
</clustering>
</event>
<event>
 9    2  0.9254368E-005  0.1134096E+03  0.7546771E-02  0.1258133E+00
         21   -1    0    0  501  502  0.00000000000E+00  0.00000000000E+00  0.10489477091E+03  0.10489477091E+03  0.00000000000E+00 0.  1.
         -3   -1    0    0    0  501 -0.00000000000E+00 -0.00000000000E+00 -0.16453354695E+03  0.16453354695E+03  0.00000000000E+00 0.  1.
         23    2    1    2    0    0  0.39377225426E+02  0.36242837888E+02 -0.30381209958E+02  0.10979990237E+03  0.90933445225E+02 0.  0.
         24    2    1    2    0    0 -0.66125088673E+02 -0.47839545357E+02 -0.48670075216E+02  0.12460303436E+03  0.80597707776E+02 0.  0.
        -13    1    4    4    0    0  0.28453459097E+01 -0.44854314842E+02 -0.12418306030E+02  0.46628530729E+02  0.00000000000E+00 0.  1.
         14    1    4    4    0    0 -0.68970434583E+02 -0.29852305148E+01 -0.36251769186E+02  0.77974503634E+02  0.00000000000E+00 0. -1.
        -11    1    3    3    0    0 -0.20505728822E+02  0.37033266227E+02  0.67797284337E+00  0.42336832300E+02  0.00000000000E+00 0. -1.
         11    1    3    3    0    0  0.59882954248E+02 -0.79042833905E+00 -0.31059182801E+02  0.67463070066E+02  0.00000000000E+00 0.  1.
         -4    1    1    2    0  502  0.26747863247E+02  0.11596707468E+02  0.19412509139E+02  0.35025381133E+02  0.00000000000E+00 0.  1.
<scales pt_clust_5="13000.00000" pt_clust_6="13000.00000" pt_clust_7="13000.00000" pt_clust_8="13000.00000" pt_clust_9="29.15359"></scales>
<clustering>
<clus scale="   29.154">  1  9  2 -1</clus>
<clus scale="   80.598">  5  6 -1 -1</clus>
<clus scale="   90.933">  7  8 -1 -1</clus>
<clus scale="  105.304">  1  5  2 -1</clus>
<clus scale="   29.154">  1  5  2 -1</clus>
</clustering>
</event>
<event>
 9    2  0.9254368E-005  0.9400148E+02  0.7546771E-02  0.1298155E+00
         21   -1    0    0  501  502  0.00000000000E+00  0.00000000000E+00  0.55669805294E+03  0.55669805294E+03  0.00000000000E+00 0. -1.
         -1   -1    0    0    0  501 -0.00000000000E+00 -0.00000000000E+00 -0.27222215873E+02  0.27222215873E+02  0.00000000000E+00 0.  1.
         23    2    1    2    0    0 -0.14579317518E+02 -0.18528794420E+02  0.97303117261E+02  0.13372624175E+03  0.88650653587E+02 0.  0.
         24    2    1    2    0    0  0.34165616639E+02  0.37077777818E+02  0.27885731259E+03  0.29452353536E+03  0.80253729673E+02 0.  0.
        -13    1    4    4    0    0 -0.19207526485E+02  0.26993799286E+02  0.16601819008E+03  0.16929156420E+03  0.00000000000E+00 0.  1.
         14    1    4    4    0    0  0.53373143124E+02  0.10083978532E+02  0.11283912251E+03  0.12523197116E+03  0.00000000000E+00 0. -1.
        -11    1    3    3    0    0 -0.91660431735E+01 -0.54051279940E+02  0.68086371055E+02  0.87414593370E+02  0.00000000000E+00 0.  1.
         11    1    3    3    0    0 -0.54132743448E+01  0.35522485520E+02  0.29216746205E+02  0.46311648378E+02  0.00000000000E+00 0. -1.
         -2    1    1    2    0  502 -0.19586299121E+02 -0.18548983398E+02  0.15331540721E+03  0.15567049170E+03  0.00000000000E+00 0.  1.
<scales pt_clust_5="13000.00000" pt_clust_6="13000.00000" pt_clust_7="13000.00000" pt_clust_8="13000.00000" pt_clust_9="26.97569"></scales>
<clustering>
<clus scale="   26.976">  1  9  2 -1</clus>
<clus scale="   80.254">  5  6 -1 -1</clus>
<clus scale="   86.128">  1  5  2 -1</clus>
<clus scale="   88.651">  7  8 -1 -1</clus>
<clus scale="   26.976">  1  5  2 -1</clus>
</clustering>
</event>
<event>
 9    2  0.9254368E-005  0.4808229E+03  0.7546771E-02  0.1018909E+00
         21   -1    0    0  501  502  0.00000000000E+00  0.00000000000E+00  0.42640731493E+03  0.42640731493E+03  0.00000000000E+00 0.  1.
         -1   -1    0    0    0  501 -0.00000000000E+00 -0.00000000000E+00 -0.47944819052E+03  0.47944819052E+03  0.00000000000E+00 0.  1.
         24    2    1    2    0    0  0.49983442246E+02  0.12772323034E+03  0.27783465372E+02  0.16085029169E+03  0.79305279287E+02 0.  0.
         23    2    1    2    0    0 -0.46933682643E+02  0.29197905929E+03 -0.97281655961E+02  0.32496931508E+03  0.93202969505E+02 0.  0.
        -11    1    3    3    0    0 -0.29724738469E+00  0.81464423899E+02  0.41094008709E+02  0.91242853248E+02  0.00000000000E+00 0.  1.
         12    1    3    3    0    0  0.50280689630E+02  0.46258806442E+02 -0.13310543337E+02  0.69607438446E+02  0.00000000000E+00 0. -1.
        -11    1    4    4    0    0 -0.45955329502E+01  0.23512238523E+03 -0.51985193821E+02  0.24084458752E+03  0.00000000000E+00 0.  1.
         11    1    4    4    0    0 -0.42338149692E+02  0.56856674059E+02 -0.45296462140E+02  0.84124727559E+02  0.00000000000E+00 0. -1.
         -2    1    1    2    0  502 -0.30497596031E+01 -0.41970228963E+03  0.16457314994E+02  0.42003589867E+03  0.00000000000E+00 0.  1.
<scales pt_clust_5="13000.00000" pt_clust_6="13000.00000" pt_clust_7="13000.00000" pt_clust_8="13000.00000" pt_clust_9="419.71337"></scales>
<clustering>
<clus scale="   79.305">  5  6 -1 -1</clus>
<clus scale="   93.203">  7  8 -1 -1</clus>
<clus scale="  138.976">  5  7 -1 -1</clus>
<clus scale="  419.713">  1  9  2 -1</clus>
<clus scale="  419.713">  1  5  2 -1</clus>
</clustering>
</event>
<event>
 9    2  0.9254368E-005  0.2162787E+03  0.7546771E-02  0.1137757E+00
         -1   -1    0    0    0  501 -0.00000000000E+00  0.00000000000E+00  0.36389510901E+03  0.36389510901E+03  0.00000000000E+00 0.  1.
         21   -1    0    0  501  502  0.00000000000E+00 -0.00000000000E+00 -0.36684941350E+03  0.36684941350E+03  0.00000000000E+00 0.  1.
         24    2    1    2    0    0  0.14523859084E+03 -0.17759905204E+03  0.25178674674E+03  0.34988791025E+03  0.79933174275E+02 0.  0.
         23    2    1    2    0    0 -0.38917306152E+02  0.10309298045E+03 -0.86890385217E+02  0.16865572547E+03  0.93552634129E+02 0.  0.
        -11    1    3    3    0    0  0.69919121193E+02 -0.41860583644E+02  0.12614599855E+03  0.15017924264E+03  0.00000000000E+00 0.  1.
         12    1    3    3    0    0  0.75319469652E+02 -0.13573846839E+03  0.12564074819E+03  0.19970866760E+03  0.00000000000E+00 0. -1.
        -13    1    4    4    0    0 -0.39321880486E+01  0.10845815806E+03 -0.72097703498E+02  0.13029471594E+03  0.00000000000E+00 0. -1.
         13    1    4    4    0    0 -0.34985118103E+02 -0.53651776045E+01 -0.14792681719E+02  0.38361009526E+02  0.00000000000E+00 0.  1.
         -2    1    1    2    0  502 -0.10632128469E+03  0.74506071583E+02 -0.16785066601E+03  0.21220088680E+03  0.00000000000E+00 0.  1.
<scales pt_clust_5="13000.00000" pt_clust_6="13000.00000" pt_clust_7="13000.00000" pt_clust_8="13000.00000" pt_clust_9="129.82823"></scales>
<clustering>
<clus scale="   79.933">  5  6 -1 -1</clus>
<clus scale="   93.553">  7  8 -1 -1</clus>
<clus scale="  129.828">  2  9  1 -1</clus>
<clus scale="  210.746">  1  5  2 -1</clus>
<clus scale="  129.828">  2  5  1 -1</clus>
</clustering>
</event>
<event>
 9    2  0.9254368E-005  0.1264948E+03  0.7546771E-02  0.1235683E+00
         21   -1    0    0  501  502  0.00000000000E+00  0.00000000000E+00  0.11656525967E+03  0.11656525967E+03  0.00000000000E+00 0.  1.
         -1   -1    0    0    0  501 -0.00000000000E+00 -0.00000000000E+00 -0.30617038803E+03  0.30617038803E+03  0.00000000000E+00 0.  1.
         24    2    1    2    0    0  0.24601297081E+02  0.11398988344E+03 -0.19589299185E+03  0.24155898200E+03  0.79860880191E+02 0.  0.
         23    2    1    2    0    0 -0.73547135360E+01 -0.33969866728E+02 -0.10830470437E+02  0.97548410461E+02  0.90500550478E+02 0.  0.
        -13    1    3    3    0    0  0.11362170367E+02  0.11246599661E+03 -0.19807004516E+03  0.22805578726E+03  0.00000000000E+00 0.  1.
         14    1    3    3    0    0  0.13239126714E+02  0.15238868242E+01  0.21770533126E+01  0.13503194746E+02  0.00000000000E+00 0. -1.
        -13    1    4    4    0    0 -0.35954233047E+02  0.16012807631E+02 -0.44345883065E+01  0.39607858509E+02  0.00000000000E+00 0.  1.
         13    1    4    4    0    0  0.28599519511E+02 -0.49982674359E+02 -0.63958821305E+01  0.57940551952E+02  0.00000000000E+00 0. -1.
         -2    1    1    2    0  502 -0.17246583545E+02 -0.80020016710E+02  0.17118333930E+02  0.83628255242E+02  0.00000000000E+00 0.  1.
<scales pt_clust_5="13000.00000" pt_clust_6="13000.00000" pt_clust_7="13000.00000" pt_clust_8="13000.00000" pt_clust_9="81.85748"></scales>
<clustering>
<clus scale="   79.861">  5  6 -1 -1</clus>
<clus scale="   81.857">  1  9  2 -1</clus>
<clus scale="   90.501">  7  8 -1 -1</clus>
<clus scale="  119.115">  2  5  1 -1</clus>
<clus scale="   81.857">  1  5  2 -1</clus>
</clustering>
</event>
<event>
 9    2  0.9254368E-005  0.1226970E+03  0.7546771E-02  0.1243759E+00
         21   -1    0    0  501  502  0.00000000000E+00  0.00000000000E+00  0.13784896073E+03  0.13784896073E+03  0.00000000000E+00 0.  1.
          2   -1    0    0  502    0 -0.00000000000E+00 -0.00000000000E+00 -0.66040982676E+03  0.66040982676E+03  0.00000000000E+00 0. -1.
         24    2    1    2    0    0  0.75065181695E+02 -0.33529601606E+02 -0.61677297012E+03  0.62668840656E+03  0.74635424334E+02 0.  0.
         23    2    1    2    0    0 -0.74335401654E+02  0.12153825071E+02  0.92177640692E+02  0.15008560857E+03  0.91408451769E+02 0.  0.
        -13    1    3    3    0    0  0.85029090272E+02 -0.27067197014E+02 -0.41110840912E+03  0.42068123728E+03  0.00000000000E+00 0.  1.
         14    1    3    3    0    0 -0.99639085770E+01 -0.64624045921E+01 -0.20566456100E+03  0.20600716928E+03  0.00000000000E+00 0. -1.
        -11    1    4    4    0    0 -0.93196574844E+02 -0.13400571670E+01  0.84065670781E+02  0.12551666949E+03  0.00000000000E+00 0.  1.
         11    1    4    4    0    0  0.18861173190E+02  0.13493882238E+02  0.81119699112E+01  0.24568939086E+02  0.00000000000E+00 0. -1.
          1    1    1    2  501    0 -0.72978004129E+00  0.21375776535E+02  0.20344633978E+01  0.21484772345E+02  0.00000000000E+00 0. -1.
<scales pt_clust_5="13000.00000" pt_clust_6="13000.00000" pt_clust_7="13000.00000" pt_clust_8="13000.00000" pt_clust_9="21.38823"></scales>
<clustering>
<clus scale="   21.388">  1  9  2 -1</clus>
<clus scale="   74.635">  5  6 -1 -1</clus>
<clus scale="   91.408">  7  8 -1 -1</clus>
<clus scale="  110.768">  2  5  1 -1</clus>
<clus scale="   21.388">  1  5  2 -1</clus>
</clustering>
</event>
<event>
 9    2  0.9254368E-005  0.1182755E+03  0.7546771E-02  0.1260084E+00
         -1   -1    0    0    0  501 -0.00000000000E+00  0.00000000000E+00  0.13209993046E+03  0.13209993046E+03  0.00000000000E+00 0.  1.
         21   -1    0    0  501  502  0.00000000000E+00 -0.00000000000E+00 -0.23353949072E+03  0.23353949072E+03  0.00000000000E+00 0.  1.
         24    2    1    2    0    0 -0.44183242456E+02 -0.58997800540E+02  0.54985704214E+02  0.10831876012E+03  0.57241826864E+02 0.  0.
         23    2    1    2    0    0  0.27528129340E+02  0.18447509303E+02 -0.18052421686E+03  0.20729588302E+03  0.96356015588E+02 0.  0.
        -13    1    3    3    0    0 -0.39668122369E+02 -0.79291985622E+01  0.34292946585E+02  0.53032426944E+02  0.00000000000E+00 0.  1.
         14    1    3    3    0    0 -0.45151200876E+01 -0.51068601978E+02  0.20692757629E+02  0.55286333173E+02  0.00000000000E+00 0. -1.
        -13    1    4    4    0    0 -0.25175431485E+01  0.49677229578E+02 -0.13753779660E+03  0.14625597648E+03  0.00000000000E+00 0.  1.
         13    1    4    4    0    0  0.30045672489E+02 -0.31229720275E+02 -0.42986420253E+02  0.61039906536E+02  0.00000000000E+00 0. -1.
         -2    1    1    2    0  502  0.16655113116E+02  0.40550291237E+02  0.24098952384E+02  0.50024778044E+02  0.00000000000E+00 0.  1.
<scales pt_clust_5="13000.00000" pt_clust_6="13000.00000" pt_clust_7="13000.00000" pt_clust_8="13000.00000" pt_clust_9="43.83744"></scales>
<clustering>
<clus scale="   43.837">  2  9  1 -1</clus>
<clus scale="   57.242">  5  6 -1 -1</clus>
<clus scale="   89.338">  1  5  2 -1</clus>
<clus scale="   96.356">  7  8 -1 -1</clus>
<clus scale="   43.837">  2  5  1 -1</clus>
</clustering>
</event>
<event>
 9    2  0.9254368E-005  0.1068404E+03  0.7546771E-02  0.1271065E+00
         21   -1    0    0  501  502  0.00000000000E+00  0.00000000000E+00  0.33710428230E+02  0.33710428230E+02  0.00000000000E+00 0.  1.
         -1   -1    0    0    0  501 -0.00000000000E+00 -0.00000000000E+00 -0.63253925078E+03  0.63253925078E+03  0.00000000000E+00 0.  1.
         24    2    1    2    0    0  0.27350513105E+01  0.40378401795E+02 -0.27963853838E+03  0.29355356283E+03  0.79612098709E+02 0.  0.
         23    2    1    2    0    0 -0.26963742726E+02 -0.89329940427E+02 -0.26800691565E+03  0.29784279405E+03  0.90419806746E+02 0.  0.
        -13    1    3    3    0    0 -0.23103229794E+02 -0.13554243080E+02 -0.12310485635E+03  0.12598524671E+03  0.00000000000E+00 0.  1.
         14    1    3    3    0    0  0.25838281105E+02  0.53932644875E+02 -0.15653368204E+03  0.16756831611E+03  0.00000000000E+00 0. -1.
        -11    1    4    4    0    0 -0.60412327584E+02 -0.59984491542E+02 -0.18546141060E+03  0.20406793812E+03  0.00000000000E+00 0.  1.
         11    1    4    4    0    0  0.33448584858E+02 -0.29345448884E+02 -0.82545505056E+02  0.93774855927E+02  0.00000000000E+00 0. -1.
         -2    1    1    2    0  502  0.24228691416E+02  0.48951538631E+02 -0.51183368512E+02  0.74853322133E+02  0.00000000000E+00 0.  1.
<scales pt_clust_5="13000.00000" pt_clust_6="13000.00000" pt_clust_7="13000.00000" pt_clust_8="13000.00000" pt_clust_9="54.61943"></scales>
<clustering>
<clus scale="   54.619">  1  9  2 -1</clus>
<clus scale="   79.612">  5  6 -1 -1</clus>
<clus scale="   90.420">  7  8 -1 -1</clus>
<clus scale="   97.863">  2  5  1 -1</clus>
<clus scale="   54.619">  1  5  2 -1</clus>
</clustering>
</event>
<event>
 9    2  0.9254368E-005  0.1023060E+03  0.7546771E-02  0.1280565E+00
          2   -1    0    0  502    0 -0.00000000000E+00  0.00000000000E+00  0.28344963724E+03  0.28344963724E+03  0.00000000000E+00 0. -1.
         21   -1    0    0  501  502  0.00000000000E+00 -0.00000000000E+00 -0.54059501040E+02  0.54059501040E+02  0.00000000000E+00 0. -1.
         24    2    1    2    0    0 -0.16757452172E+02 -0.51807437185E+02  0.15022326711E+03  0.17899689543E+03  0.80672398255E+02 0.  0.
         23    2    1    2    0    0  0.10420703813E+02  0.23174436536E+02  0.26839742956E+02  0.98527817915E+02  0.91332981581E+02 0.  0.
        -13    1    3    3    0    0  0.31834806238E+02 -0.11040329774E+02  0.46681089608E+02  0.57571415622E+02  0.00000000000E+00 0.  1.
         14    1    3    3    0    0 -0.48592258409E+02 -0.40767107411E+02  0.10354217750E+03  0.12142547981E+03  0.00000000000E+00 0. -1.
        -11    1    4    4    0    0 -0.31887093573E+02  0.27789794278E+02  0.35352679860E+02  0.55125959182E+02  0.00000000000E+00 0.  1.
         11    1    4    4    0    0  0.42307797386E+02 -0.46153577412E+01 -0.85129369036E+01  0.43401858733E+02  0.00000000000E+00 0. -1.
          1    1    1    2  501    0  0.63367483588E+01  0.28633000648E+02  0.52327126136E+02  0.59984424941E+02  0.00000000000E+00 0. -1.
<scales pt_clust_5="13000.00000" pt_clust_6="13000.00000" pt_clust_7="13000.00000" pt_clust_8="13000.00000" pt_clust_9="29.32582"></scales>
<clustering>
<clus scale="   29.326">  2  9  1 -1</clus>
<clus scale="   80.672">  5  6 -1 -1</clus>
<clus scale="   91.333">  7  8 -1 -1</clus>
<clus scale="   92.913">  1  5  2 -1</clus>
<clus scale="   29.326">  2  5  1 -1</clus>
</clustering>
</event>
<event>
 9    2  0.9254368E-005  0.9203592E+02  0.7546771E-02  0.1302990E+00
         21   -1    0    0  501  502  0.00000000000E+00  0.00000000000E+00  0.24309208465E+03  0.24309208465E+03  0.00000000000E+00 0. -1.
          4   -1    0    0  502    0 -0.00000000000E+00 -0.00000000000E+00 -0.11442280364E+03  0.11442280364E+03  0.00000000000E+00 0. -1.
         23    2    1    2    0    0 -0.14504850773E+02 -0.14237298323E+02 -0.77029015426E+02  0.12033546863E+03  0.90189048301E+02 0.  0.
         24    2    1    2    0    0 -0.14706868926E+02  0.19717138510E+02  0.12756478322E+03  0.15358397060E+03  0.81915838283E+02 0.  0.
        -13    1    4    4    0    0 -0.93117040567E+01  0.51425789981E+02  0.90524983938E+02  0.10452795045E+03  0.00000000000E+00 0.  1.
         14    1    4    4    0    0 -0.53951648698E+01 -0.31708651471E+02  0.37039799286E+02  0.49056020153E+02  0.00000000000E+00 0. -1.
        -11    1    3    3    0    0  0.24890675593E+02  0.12080463547E+02  0.24829311002E+01  0.27778557879E+02  0.00000000000E+00 0.  1.
         11    1    3    3    0    0 -0.39395526366E+02 -0.26317761870E+02 -0.79511946526E+02  0.92556910751E+02  0.00000000000E+00 0. -1.
          3    1    1    2  501    0  0.29211719699E+02 -0.54798401867E+01  0.78133513211E+02  0.83595449056E+02  0.00000000000E+00 0. -1.
<scales pt_clust_5="13000.00000" pt_clust_6="13000.00000" pt_clust_7="13000.00000" pt_clust_8="13000.00000" pt_clust_9="29.72126"></scales>
<clustering>
<clus scale="   29.721">  1  9  2 -1</clus>
<clus scale="   81.916">  5  6 -1 -1</clus>
<clus scale="   83.945">  1  5  2 -1</clus>
<clus scale="   90.189">  7  8 -1 -1</clus>
<clus scale="   29.721">  1  5  2 -1</clus>
</clustering>
</event>
<event>
 9    2  0.9254368E-005  0.1294230E+03  0.7546771E-02  0.1249779E+00
          2   -1    0    0  502    0 -0.00000000000E+00  0.00000000000E+00  0.46257652960E+03  0.46257652960E+03  0.00000000000E+00 0. -1.
         21   -1    0    0  501  502  0.00000000000E+00 -0.00000000000E+00 -0.75664589992E+02  0.75664589992E+02  0.00000000000E+00 0. -1.
         24    2    1    2    0    0 -0.80660400285E+01  0.19260966792E+02  0.15128409647E+03  0.17286166906E+03  0.80982917596E+02 0.  0.
         23    2    1    2    0    0 -0.42571764169E+02  0.75749956698E+02  0.24096479051E+02  0.12802574656E+03  0.90882013816E+02 0.  0.
        -11    1    3    3    0    0  0.48128507070E+01  0.27464561439E+02  0.83390449849E+01  0.29103356134E+02  0.00000000000E+00 0.  1.
         12    1    3    3    0    0 -0.12878890736E+02 -0.82035946476E+01  0.14294505148E+03  0.14375831293E+03  0.00000000000E+00 0. -1.
        -13    1    4    4    0    0 -0.17174651238E+02 -0.20179635258E+02  0.46490531320E+01  0.26903531726E+02  0.00000000000E+00 0.  1.
         13    1    4    4    0    0 -0.25397112930E+02  0.95929591956E+02  0.19447425919E+02  0.10112221483E+03  0.00000000000E+00 0. -1.
          1    1    1    2  501    0  0.50637804197E+02 -0.95010923490E+02  0.21153136409E+03  0.23735370397E+03  0.00000000000E+00 0. -1.
<scales pt_clust_5="13000.00000" pt_clust_6="13000.00000" pt_clust_7="13000.00000" pt_clust_8="13000.00000" pt_clust_9="92.14540"></scales>
<clustering>
<clus scale="   80.983">  5  6 -1 -1</clus>
<clus scale="   83.632">  1  5  2 -1</clus>
<clus scale="   90.882">  7  8 -1 -1</clus>
<clus scale="   92.145">  2  9  1 -1</clus>
<clus scale="   92.145">  2  5  1 -1</clus>
</clustering>
</event>
<event>
 9    2  0.9254368E-005  0.2167700E+03  0.7546771E-02  0.1136990E+00
         21   -1    0    0  501  502  0.00000000000E+00  0.00000000000E+00  0.38386241580E+02  0.38386241580E+02  0.00000000000E+00 0. -1.
          2   -1    0    0  502    0 -0.00000000000E+00 -0.00000000000E+00 -0.14879330032E+04  0.14879330032E+04  0.00000000000E+00 0. -1.
         24    2    1    2    0    0  0.16708422585E+03 -0.10061990466E+03 -0.70385899695E+03  0.73481425877E+03  0.80579175706E+02 0.  0.
         23    2    1    2    0    0 -0.19186176142E+03  0.66261585601E+02 -0.59627013392E+03  0.63619867984E+03  0.89493879163E+02 0.  0.
        -11    1    3    3    0    0  0.70552464148E+02 -0.77391083649E+02 -0.26674181852E+03  0.28656278155E+03  0.00000000000E+00 0.  1.
         12    1    3    3    0    0  0.96531761706E+02 -0.23228821013E+02 -0.43711717844E+03  0.44825147722E+03  0.00000000000E+00 0. -1.
        -11    1    4    4    0    0 -0.14622413331E+03  0.13086149380E+02 -0.46167023336E+03  0.48445035745E+03  0.00000000000E+00 0. -1.
         11    1    4    4    0    0 -0.45637628115E+02  0.53175436222E+02 -0.13459990057E+03  0.15174832239E+03  0.00000000000E+00 0.  1.
          1    1    1    2  501    0  0.24777535565E+02  0.34358319061E+02 -0.14941763077E+03  0.15530630619E+03  0.00000000000E+00 0. -1.
<scales pt_clust_5="13000.00000" pt_clust_6="13000.00000" pt_clust_7="13000.00000" pt_clust_8="13000.00000" pt_clust_9="42.36062"></scales>
<clustering>
<clus scale="   42.361">  1  9  2 -1</clus>
<clus scale="   80.579">  5  6 -1 -1</clus>
<clus scale="   89.494">  7  8 -1 -1</clus>
<clus scale="  213.244">  2  5  1 -1</clus>
<clus scale="   42.361">  1  5  2 -1</clus>
</clustering>
</event>
<event>
 9    2  0.9254368E-005  0.1016003E+03  0.7546771E-02  0.1278120E+00
          4   -1    0    0  502    0 -0.00000000000E+00  0.00000000000E+00  0.19880887947E+03  0.19880887947E+03  0.00000000000E+00 0. -1.
         21   -1    0    0  501  502  0.00000000000E+00 -0.00000000000E+00 -0.20182060604E+03  0.20182060604E+03  0.00000000000E+00 0. -1.
         24    2    1    2    0    0  0.45401403425E+02  0.42775028060E+02  0.13485564033E+03  0.16877432728E+03  0.80048356398E+02 0.  0.
         23    2    1    2    0    0 -0.22746193224E+02 -0.45486886039E+02 -0.52604085530E+01  0.97299526141E+02  0.82783330335E+02 0.  0.
        -13    1    3    3    0    0  0.34428237760E+02 -0.34284699952E+01  0.11284459782E+02  0.36392265584E+02  0.00000000000E+00 0.  1.
         14    1    3    3    0    0  0.10973165665E+02  0.46203498056E+02  0.12357118055E+03  0.13238206170E+03  0.00000000000E+00 0. -1.
        -13    1    4    4    0    0 -0.25794886878E+02 -0.13027599163E+02  0.35068343902E+02  0.45440986708E+02  0.00000000000E+00 0. -1.
         13    1    4    4    0    0  0.30486936538E+01 -0.32459286876E+02 -0.40328752455E+02  0.51858539432E+02  0.00000000000E+00 0.  1.
          3    1    1    2  501    0 -0.22655210201E+02  0.27118579788E+01 -0.13260695835E+03  0.13455563209E+03  0.00000000000E+00 0. -1.
<scales pt_clust_5="13000.00000" pt_clust_6="13000.00000" pt_clust_7="13000.00000" pt_clust_8="13000.00000" pt_clust_9="22.81694"></scales>
<clustering>
<clus scale="   22.817">  2  9  1 -1</clus>
<clus scale="   80.048">  5  6 -1 -1</clus>
<clus scale="   82.783">  7  8 -1 -1</clus>
<clus scale="   99.385">  1  5  2 -1</clus>
<clus scale="   22.817">  2  5  1 -1</clus>
</clustering>
</event>
<event>
 9    2  0.9254368E-005  0.1483392E+03  0.7546771E-02  0.1220872E+00
          2   -1    0    0  502    0 -0.00000000000E+00  0.00000000000E+00  0.66096481046E+03  0.66096481046E+03  0.00000000000E+00 0. -1.
         21   -1    0    0  501  502  0.00000000000E+00 -0.00000000000E+00 -0.88561094883E+02  0.88561094883E+02  0.00000000000E+00 0.  1.
         23    2    1    2    0    0  0.35250109086E+01  0.31410896456E+02  0.18701327777E+03  0.21224747153E+03  0.95267796175E+02 0.  0.
         24    2    1    2    0    0  0.11012183994E+03 -0.53308534267E+02  0.16548694516E+02  0.15070457950E+03  0.86425641656E+02 0.  0.
        -11    1    4    4    0    0  0.10004630944E+03 -0.62000047396E+01  0.20695867005E+02  0.10235244502E+03  0.00000000000E+00 0.  1.
         12    1    4    4    0    0  0.10075530499E+02 -0.47108529527E+02 -0.41471724890E+01  0.48352134480E+02  0.00000000000E+00 0. -1.
        -11    1    3    3    0    0 -0.34489009867E+02  0.24425893161E+02  0.33459516973E+02  0.53904130959E+02  0.00000000000E+00 0. -1.
         11    1    3    3    0    0  0.38014020776E+02  0.69850032954E+01  0.15355376080E+03  0.15834334057E+03  0.00000000000E+00 0.  1.
          1    1    1    2  501    0 -0.11364685084E+03  0.21897637811E+02  0.36884174329E+03  0.38657385431E+03  0.00000000000E+00 0. -1.
<scales pt_clust_5="13000.00000" pt_clust_6="13000.00000" pt_clust_7="13000.00000" pt_clust_8="13000.00000" pt_clust_9="120.56172"></scales>
<clustering>
<clus scale="   86.426">  5  6 -1 -1</clus>
<clus scale="   95.268">  7  8 -1 -1</clus>
<clus scale="  100.374">  1  7  2 -1</clus>
<clus scale="  120.562">  2  9  1 -1</clus>
<clus scale="  120.562">  2  5  1 -1</clus>
</clustering>
</event>
<event>
 9    2  0.9254368E-005  0.1484958E+03  0.7546771E-02  0.1223923E+00
         -3   -1    0    0    0  501 -0.00000000000E+00  0.00000000000E+00  0.45932085793E+02  0.45932085793E+02  0.00000000000E+00 0.  1.
         21   -1    0    0  501  502  0.00000000000E+00 -0.00000000000E+00 -0.77594839759E+03  0.77594839759E+03  0.00000000000E+00 0.  1.
         23    2    1    2    0    0 -0.23115043214E+02 -0.60784912092E+01 -0.22547351525E+03  0.24423441064E+03  0.90779336767E+02 0.  0.
         24    2    1    2    0    0  0.10969408275E+03  0.86060390143E+02 -0.24929509459E+03  0.29649767136E+03  0.79521332948E+02 0.  0.
        -13    1    4    4    0    0  0.93200672402E+02  0.47308526166E+02 -0.11337567062E+03  0.15420280371E+03  0.00000000000E+00 0.  1.
         14    1    4    4    0    0  0.16493410348E+02  0.38751863977E+02 -0.13591942397E+03  0.14229486765E+03  0.00000000000E+00 0. -1.
        -11    1    3    3    0    0 -0.43440624192E+02  0.28013361236E+02 -0.15448609404E+03  0.16290423411E+03  0.00000000000E+00 0.  1.
         11    1    3    3    0    0  0.20325580978E+02 -0.34091852445E+02 -0.70987421208E+02  0.81330176533E+02  0.00000000000E+00 0. -1.
         -4    1    1    2    0  502 -0.86579039536E+02 -0.79981898933E+02 -0.25524770196E+03  0.28114840138E+03  0.00000000000E+00 0.  1.
<scales pt_clust_5="13000.00000" pt_clust_6="13000.00000" pt_clust_7="13000.00000" pt_clust_8="13000.00000" pt_clust_9="125.40879"></scales>
<clustering>
<clus scale="   79.521">  5  6 -1 -1</clus>
<clus scale="   90.779">  7  8 -1 -1</clus>
<clus scale="   93.873">  1  7  2 -1</clus>
<clus scale="  125.409">  2  9  1 -1</clus>
<clus scale="  125.409">  2  5  1 -1</clus>
</clustering>
</event>
<event>
 9    2  0.9254368E-005  0.1779478E+03  0.7546771E-02  0.1172011E+00
         21   -1    0    0  501  502  0.00000000000E+00  0.00000000000E+00  0.24807848364E+02  0.24807848364E+02  0.00000000000E+00 0. -1.
          2   -1    0    0  502    0 -0.00000000000E+00 -0.00000000000E+00 -0.14640594622E+04  0.14640594622E+04  0.00000000000E+00 0. -1.
         24    2    1    2    0    0  0.86570936500E+01 -0.14170884420E+03 -0.65991866967E+03  0.67984790588E+03  0.80896123232E+02 0.  0.
         23    2    1    2    0    0 -0.36999900724E+02  0.15403962359E+03 -0.66483359362E+03  0.69042149531E+03  0.97882254194E+02 0.  0.
        -13    1    3    3    0    0  0.35029845217E+02 -0.24298164648E+02 -0.15167013267E+03  0.15754783402E+03  0.00000000000E+00 0.  1.
         14    1    3    3    0    0 -0.26372751567E+02 -0.11741067955E+03 -0.50824853700E+03  0.52230007186E+03  0.00000000000E+00 0. -1.
        -11    1    4    4    0    0  0.13805427770E+02  0.12048121982E+03 -0.50569404807E+03  0.52003152252E+03  0.00000000000E+00 0. -1.
         11    1    4    4    0    0 -0.50805328494E+02  0.33558403771E+02 -0.15913954555E+03  0.17038997279E+03  0.00000000000E+00 0.  1.
          1    1    1    2  501    0  0.28342807074E+02 -0.12330779388E+02 -0.11449935053E+03  0.11859790936E+03  0.00000000000E+00 0. -1.
<scales pt_clust_5="13000.00000" pt_clust_6="13000.00000" pt_clust_7="13000.00000" pt_clust_8="13000.00000" pt_clust_9="30.90894"></scales>
<clustering>
<clus scale="   30.909">  1  9  2 -1</clus>
<clus scale="   80.896">  5  6 -1 -1</clus>
<clus scale="   97.882">  7  8 -1 -1</clus>
<clus scale="  169.200">  2  5  1 -1</clus>
<clus scale="   30.909">  1  5  2 -1</clus>
</clustering>
</event>
<event>
 9    2  0.9254368E-005  0.1345008E+03  0.7546771E-02  0.1224545E+00
         21   -1    0    0  501  502  0.00000000000E+00  0.00000000000E+00  0.96476107301E+02  0.96476107301E+02  0.00000000000E+00 0.  1.
          2   -1    0    0  502    0 -0.00000000000E+00 -0.00000000000E+00 -0.52175710689E+03  0.52175710689E+03  0.00000000000E+00 0. -1.
         23    2    1    2    0    0 -0.12577448065E+02 -0.98218774999E+02 -0.17979223860E+03  0.22612181426E+03  0.94872049962E+02 0.  0.
         24    2    1    2    0    0  0.10893493166E+03  0.57304650887E+02 -0.26488107213E+02  0.14937694306E+03  0.80381645569E+02 0.  0.
        -13    1    4    4    0    0  0.91827219373E+02  0.11218965462E+02  0.20546459126E+01  0.92532831869E+02  0.00000000000E+00 0.  1.
         14    1    4    4    0    0  0.17107712287E+02  0.46085685425E+02 -0.28542753126E+02  0.56844111188E+02  0.00000000000E+00 0. -1.
        -11    1    3    3    0    0  0.38144545124E+02 -0.68175303573E+02 -0.99104584356E+02  0.12619269781E+03  0.00000000000E+00 0. -1.
         11    1    3    3    0    0 -0.50721993189E+02 -0.30043471426E+02 -0.80687654240E+02  0.99929116454E+02  0.00000000000E+00 0.  1.
          1    1    1    2  501    0 -0.96357483595E+02  0.40914124112E+02 -0.21900065378E+03  0.24273445687E+03  0.00000000000E+00 0. -1.
<scales pt_clust_5="13000.00000" pt_clust_6="13000.00000" pt_clust_7="13000.00000" pt_clust_8="13000.00000" pt_clust_9="104.68401"></scales>
<clustering>
<clus scale="   80.382">  5  6 -1 -1</clus>
<clus scale="   94.872">  7  8 -1 -1</clus>
<clus scale="  104.684">  1  9  2 -1</clus>
<clus scale="  124.704">  1  5  2 -1</clus>
<clus scale="  104.684">  1  5  2 -1</clus>
</clustering>
</event>
<event>
 9    2  0.9254368E-005  0.9268282E+02  0.7546771E-02  0.1302670E+00
         -1   -1    0    0    0  501 -0.00000000000E+00  0.00000000000E+00  0.28591683582E+02  0.28591683582E+02  0.00000000000E+00 0.  1.
         21   -1    0    0  501  502  0.00000000000E+00 -0.00000000000E+00 -0.82641548039E+03  0.82641548039E+03  0.00000000000E+00 0.  1.
         23    2    1    2    0    0  0.11152174556E+02 -0.24243537674E+01 -0.87683383626E+02  0.12691693185E+03  0.91045501465E+02 0.  0.
         24    2    1    2    0    0 -0.50193197910E+02 -0.28849728155E+02 -0.58379359614E+03  0.59220135149E+03  0.80844380610E+02 0.  0.
        -11    1    4    4    0    0 -0.80920563249E+01 -0.47726766713E+02 -0.20655359241E+03  0.21215021134E+03  0.00000000000E+00 0.  1.
         12    1    4    4    0    0 -0.42101141585E+02  0.18877038558E+02 -0.37724000374E+03  0.38005114015E+03  0.00000000000E+00 0. -1.
        -11    1    3    3    0    0 -0.24137707132E+02  0.16307863442E+02 -0.81421741161E+02  0.86475865127E+02  0.00000000000E+00 0.  1.
         11    1    3    3    0    0  0.35289881688E+02 -0.18732217210E+02 -0.62616424641E+01  0.40441066721E+02  0.00000000000E+00 0. -1.
         -2    1    1    2    0  502  0.39041023354E+02  0.31274081923E+02 -0.12634681704E+03  0.13588888064E+03  0.00000000000E+00 0.  1.
<scales pt_clust_5="13000.00000" pt_clust_6="13000.00000" pt_clust_7="13000.00000" pt_clust_8="13000.00000" pt_clust_9="50.02272"></scales>
<clustering>
<clus scale="   50.023">  2  9  1 -1</clus>
<clus scale="   80.844">  5  6 -1 -1</clus>
<clus scale="   82.684">  2  5  1 -1</clus>
<clus scale="   91.046">  7  8 -1 -1</clus>
<clus scale="   50.023">  2  5  1 -1</clus>
</clustering>
</event>
<event>
 9    2  0.9254368E-005  0.1273788E+03  0.7546771E-02  0.1231619E+00
          2   -1    0    0  502    0 -0.00000000000E+00  0.00000000000E+00  0.46912231902E+03  0.46912231902E+03  0.00000000000E+00 0. -1.
         21   -1    0    0  501  502  0.00000000000E+00 -0.00000000000E+00 -0.48431546162E+02  0.48431546162E+02  0.00000000000E+00 0. -1.
         24    2    1    2    0    0  0.11793128856E+02  0.93277705524E+02  0.15479173638E+03  0.19833032440E+03  0.80837044048E+02 0.  0.
         23    2    1    2    0    0  0.23281676625E+02 -0.10372720593E+03  0.16522553529E+03  0.21210403798E+03  0.79920433560E+02 0.  0.
        -13    1    3    3    0    0  0.31625726795E+02  0.76454751038E+01  0.64934867447E+02  0.72630413018E+02  0.00000000000E+00 0.  1.
         14    1    3    3    0    0 -0.19832597939E+02  0.85632230421E+02  0.89856868934E+02  0.12569991139E+03  0.00000000000E+00 0. -1.
        -11    1    4    4    0    0  0.27459866143E+02 -0.65415529233E+02  0.40786382107E+02  0.81833762463E+02  0.00000000000E+00 0. -1.
         11    1    4    4    0    0 -0.41781895179E+01 -0.38311676692E+02  0.12443915318E+03  0.13027027552E+03  0.00000000000E+00 0.  1.
          1    1    1    2  501    0 -0.35074805481E+02  0.10449500401E+02  0.10067350118E+03  0.10711950279E+03  0.00000000000E+00 0. -1.
<scales pt_clust_5="13000.00000" pt_clust_6="13000.00000" pt_clust_7="13000.00000" pt_clust_8="13000.00000" pt_clust_9="36.59830"></scales>
<clustering>
<clus scale="   36.598">  2  9  1 -1</clus>
<clus scale="   79.920">  7  8 -1 -1</clus>
<clus scale="   80.837">  5  6 -1 -1</clus>
<clus scale="  126.799">  2  7  1 -1</clus>
<clus scale="   36.598">  2  5  1 -1</clus>
</clustering>
</event>
<event>
 9    2  0.9254368E-005  0.1489972E+03  0.7546771E-02  0.1204095E+00
         21   -1    0    0  501  502  0.00000000000E+00  0.00000000000E+00  0.24926313979E+03  0.24926313979E+03  0.00000000000E+00 0. -1.
          2   -1    0    0  502    0 -0.00000000000E+00 -0.00000000000E+00 -0.18985631399E+03  0.18985631399E+03  0.00000000000E+00 0. -1.
         24    2    1    2    0    0 -0.79779803439E+02  0.47041625943E+02  0.32413218298E+01  0.12277018415E+03  0.80525029279E+02 0.  0.
         23    2    1    2    0    0  0.65696603659E+02 -0.15775402832E+03  0.78515207178E+01  0.19473589235E+03  0.93048612081E+02 0.  0.
        -13    1    3    3    0    0 -0.15010162593E+02  0.43939853418E+02  0.26998147667E+02  0.53711411049E+02  0.00000000000E+00 0.  1.
         14    1    3    3    0    0 -0.64769640845E+02  0.31017725250E+01 -0.23756825837E+02  0.69058773099E+02  0.00000000000E+00 0. -1.
        -13    1    4    4    0    0  0.73467916562E+01 -0.90065657057E+02  0.41246810382E+02  0.99333263791E+02  0.00000000000E+00 0.  1.
         13    1    4    4    0    0  0.58349812003E+02 -0.67688371259E+02 -0.33395289664E+02  0.95402628560E+02  0.00000000000E+00 0. -1.
          1    1    1    2  501    0  0.14083199780E+02  0.11071240237E+03  0.48313983256E+02  0.12161337728E+03  0.00000000000E+00 0. -1.
<scales pt_clust_5="13000.00000" pt_clust_6="13000.00000" pt_clust_7="13000.00000" pt_clust_8="13000.00000" pt_clust_9="111.60454"></scales>
<clustering>
<clus scale="   80.525">  5  6 -1 -1</clus>
<clus scale="   93.049">  7  8 -1 -1</clus>
<clus scale="  111.605">  1  9  2 -1</clus>
<clus scale="  141.515">  2  5  1 -1</clus>
<clus scale="  111.605">  1  5  2 -1</clus>
</clustering>
</event>
<event>
 9    2  0.9254368E-005  0.2948898E+03  0.7546771E-02  0.1117336E+00
          2   -1    0    0  502    0 -0.00000000000E+00  0.00000000000E+00  0.12275436877E+04  0.12275436877E+04  0.00000000000E+00 0. -1.
         21   -1    0    0  501  502  0.00000000000E+00 -0.00000000000E+00 -0.13908153077E+03  0.13908153077E+03  0.00000000000E+00 0. -1.
         23    2    1    2    0    0 -0.35524929467E+02  0.10529646093E+03  0.13401970640E+03  0.19208226089E+03  0.81147692176E+02 0.  0.
         24    2    1    2    0    0  0.51928466127E+02 -0.36350090622E+03  0.77025610325E+03  0.85695325041E+03  0.79024897247E+02 0.  0.
        -11    1    4    4    0    0 -0.20124085534E+02 -0.50413148747E+02  0.10669733656E+03  0.11971126102E+03  0.00000000000E+00 0.  1.
         12    1    4    4    0    0  0.72052551661E+02 -0.31308775747E+03  0.66355876668E+03  0.73724198939E+03  0.00000000000E+00 0. -1.
        -11    1    3    3    0    0 -0.41915060466E+02  0.62873229310E+02  0.12816566545E+03  0.14878290580E+03  0.00000000000E+00 0. -1.
         11    1    3    3    0    0  0.63901309991E+01  0.42423231624E+02  0.58540409498E+01  0.43299355088E+02  0.00000000000E+00 0.  1.
          1    1    1    2  501    0 -0.16403536661E+02  0.25820444529E+03  0.18418634730E+03  0.31758970719E+03  0.00000000000E+00 0. -1.
<scales pt_clust_5="13000.00000" pt_clust_6="13000.00000" pt_clust_7="13000.00000" pt_clust_8="13000.00000" pt_clust_9="284.10396"></scales>
<clustering>
<clus scale="   79.025">  5  6 -1 -1</clus>
<clus scale="   81.148">  7  8 -1 -1</clus>
<clus scale="  137.602">  1  7  2 -1</clus>
<clus scale="  284.104">  2  9  1 -1</clus>
<clus scale="  284.104">  2  5  1 -1</clus>
</clustering>
</event>
<event>
 9    2  0.9254368E-005  0.1096297E+03  0.7546771E-02  0.1265593E+00
         21   -1    0    0  501  502  0.00000000000E+00  0.00000000000E+00  0.70586857247E+02  0.70586857247E+02  0.00000000000E+00 0.  1.
          2   -1    0    0  502    0 -0.00000000000E+00 -0.00000000000E+00 -0.33518100584E+03  0.33518100584E+03  0.00000000000E+00 0. -1.
         23    2    1    2    0    0  0.23649373896E+01  0.50930953004E+02 -0.15330476513E+03  0.18533216458E+03  0.90808068547E+02 0.  0.
         24    2    1    2    0    0  0.20966529344E+02 -0.72668622993E+02 -0.13965793106E+03  0.17775481135E+03  0.79825504248E+02 0.  0.
        -13    1    4    4    0    0  0.39667886257E+02 -0.70732106736E+02 -0.13638020789E+03  0.15866988759E+03  0.00000000000E+00 0.  1.
         14    1    4    4    0    0 -0.18701356914E+02 -0.19365162568E+01 -0.32777231696E+01  0.19084923757E+02  0.00000000000E+00 0. -1.
        -11    1    3    3    0    0  0.36777422538E+02  0.27571613179E+02 -0.29229654142E+02  0.54471509462E+02  0.00000000000E+00 0.  1.
         11    1    3    3    0    0 -0.34412485148E+02  0.23359339826E+02 -0.12407511098E+03  0.13086065511E+03  0.00000000000E+00 0. -1.
          1    1    1    2  501    0 -0.23331466733E+02  0.21737669989E+02  0.28368547594E+02  0.42680887164E+02  0.00000000000E+00 0. -1.
<scales pt_clust_5="13000.00000" pt_clust_6="13000.00000" pt_clust_7="13000.00000" pt_clust_8="13000.00000" pt_clust_9="31.88861"></scales>
<clustering>
<clus scale="   31.889">  1  9  2 -1</clus>
<clus scale="   79.826">  5  6 -1 -1</clus>
<clus scale="   90.808">  7  8 -1 -1</clus>
<clus scale="  100.721">  1  5  2 -1</clus>
<clus scale="   31.889">  1  5  2 -1</clus>
</clustering>
</event>
<event>
 9    2  0.9254368E-005  0.9167276E+02  0.7546771E-02  0.1305679E+00
          2   -1    0    0  502    0 -0.00000000000E+00  0.00000000000E+00  0.13900673361E+03  0.13900673361E+03  0.00000000000E+00 0. -1.
         21   -1    0    0  501  502  0.00000000000E+00 -0.00000000000E+00 -0.10319384548E+03  0.10319384548E+03  0.00000000000E+00 0. -1.
         24    2    1    2    0    0  0.19278208243E+01 -0.76407048649E+01  0.69679400473E+02  0.10635665952E+03  0.79965138097E+02 0.  0.
         23    2    1    2    0    0 -0.34684821410E+02  0.48737340158E+01 -0.16901114815E+02  0.98850650876E+02  0.90879114087E+02 0.  0.
        -13    1    3    3    0    0  0.38142211542E+02 -0.12389023871E+02  0.20333413405E+02  0.44964029118E+02  0.00000000000E+00 0.  1.
         14    1    3    3    0    0 -0.36214390718E+02  0.47483190057E+01  0.49345987068E+02  0.61392630406E+02  0.00000000000E+00 0. -1.
        -11    1    4    4    0    0  0.31063452773E+02  0.56095988323E+01 -0.73242689650E+01  0.32404484460E+02  0.00000000000E+00 0.  1.
         11    1    4    4    0    0 -0.65748274183E+02 -0.73586481645E+00 -0.95768458496E+01  0.66446166416E+02  0.00000000000E+00 0. -1.
          1    1    1    2  501    0  0.32757000586E+02  0.27669708491E+01 -0.16965397523E+02  0.36993268687E+02  0.00000000000E+00 0. -1.
<scales pt_clust_5="13000.00000" pt_clust_6="13000.00000" pt_clust_7="13000.00000" pt_clust_8="13000.00000" pt_clust_9="32.87366"></scales>
<clustering>
<clus scale="   32.874">  2  9  1 -1</clus>
<clus scale="   79.965">  5  6 -1 -1</clus>
<clus scale="   80.866">  1  5  2 -1</clus>
<clus scale="   90.879">  7  8 -1 -1</clus>
<clus scale="   32.874">  2  5  1 -1</clus>
</clustering>
</event>
<event>
 9    2  0.9254368E-005  0.1013812E+03  0.7546771E-02  0.1282891E+00
         21   -1    0    0  501  502  0.00000000000E+00  0.00000000000E+00  0.28828227620E+03  0.28828227620E+03  0.00000000000E+00 0.  1.
          2   -1    0    0  502    0 -0.00000000000E+00 -0.00000000000E+00 -0.70162937105E+02  0.70162937105E+02  0.00000000000E+00 0. -1.
         23    2    1    2    0    0 -0.31872189905E+02  0.32064723315E+02 -0.74630585422E+01  0.10178635338E+03  0.90888841569E+02 0.  0.
         24    2    1    2    0    0  0.48419329955E+02 -0.11313415304E+02  0.15411674351E+03  0.18042393126E+03  0.79551237969E+02 0.  0.
        -11    1    4    4    0    0  0.47961729969E+02 -0.40884637367E+02  0.90655730080E+02  0.11040988412E+03  0.00000000000E+00 0.  1.
         12    1    4    4    0    0  0.45759998556E+00  0.29571222063E+02  0.63461013427E+02  0.70014047142E+02  0.00000000000E+00 0. -1.
        -11    1    3    3    0    0 -0.22454433443E+02 -0.10510886402E+02 -0.40220567021E+02  0.47248008696E+02  0.00000000000E+00 0. -1.
         11    1    3    3    0    0 -0.94177564618E+01  0.42575609717E+02  0.32757508479E+02  0.54538344688E+02  0.00000000000E+00 0.  1.
          1    1    1    2  501    0 -0.16547140050E+02 -0.20751308011E+02  0.71465654133E+02  0.76234928665E+02  0.00000000000E+00 0. -1.
<scales pt_clust_5="13000.00000" pt_clust_6="13000.00000" pt_clust_7="13000.00000" pt_clust_8="13000.00000" pt_clust_9="26.54100"></scales>
<clustering>
<clus scale="   26.541">  1  9  2 -1</clus>
<clus scale="   79.551">  5  6 -1 -1</clus>
<clus scale="   90.889">  7  8 -1 -1</clus>
<clus scale="   91.355">  1  5  2 -1</clus>
<clus scale="   26.541">  1  5  2 -1</clus>
</clustering>
</event>
<event>
 9    2  0.9254368E-005  0.1235350E+03  0.7546771E-02  0.1240345E+00
         21   -1    0    0  501  502  0.00000000000E+00  0.00000000000E+00  0.59169467414E+03  0.59169467414E+03  0.00000000000E+00 0. -1.
          4   -1    0    0  502    0 -0.00000000000E+00 -0.00000000000E+00 -0.65832808571E+03  0.65832808571E+03  0.00000000000E+00 0. -1.
         24    2    1    2    0    0 -0.67220229475E+02 -0.87522336834E+02 -0.51268285074E+03  0.53054259250E+03  0.80330681076E+02 0.  0.
         23    2    1    2    0    0  0.30700263894E+02  0.16777796361E+02 -0.11633804775E+03  0.15148528767E+03  0.90494477039E+02 0.  0.
        -13    1    3    3    0    0  0.11542562649E+02 -0.45650247764E+02 -0.16338002061E+03  0.17003001797E+03  0.00000000000E+00 0.  1.
         14    1    3    3    0    0 -0.78762792124E+02 -0.41872089070E+02 -0.34930283012E+03  0.36051257454E+03  0.00000000000E+00 0. -1.
        -13    1    4    4    0    0 -0.19962042343E+02 -0.16990438456E+02 -0.70674394040E+02  0.75379228614E+02  0.00000000000E+00 0. -1.
         13    1    4    4    0    0  0.50662306238E+02  0.33768234817E+02 -0.45663653705E+02  0.76106059060E+02  0.00000000000E+00 0.  1.
          3    1    1    2  501    0  0.36519965580E+02  0.70744540473E+02  0.56238748692E+03  0.56799487967E+03  0.00000000000E+00 0. -1.
<scales pt_clust_5="13000.00000" pt_clust_6="13000.00000" pt_clust_7="13000.00000" pt_clust_8="13000.00000" pt_clust_9="79.61468"></scales>
<clustering>
<clus scale="   79.615">  1  9  2 -1</clus>
<clus scale="   80.331">  5  6 -1 -1</clus>
<clus scale="   90.494">  7  8 -1 -1</clus>
<clus scale="  116.296">  2  5  1 -1</clus>
<clus scale="   79.615">  1  5  2 -1</clus>
</clustering>
</event>
<event>
 9    2  0.9254368E-005  0.1138105E+03  0.7546771E-02  0.1261721E+00
          2   -1    0    0  502    0 -0.00000000000E+00  0.00000000000E+00  0.78005222247E+03  0.78005222247E+03  0.00000000000E+00 0. -1.
         21   -1    0    0  501  502  0.00000000000E+00 -0.00000000000E+00 -0.18340538969E+02  0.18340538969E+02  0.00000000000E+00 0. -1.
         24    2    1    2    0    0  0.19196893742E+02  0.51824157403E+02  0.39606071036E+03  0.40808997256E+03  0.81357700258E+02 0.  0.
         23    2    1    2    0    0  0.36006195250E+01 -0.52096703461E+02  0.31305895048E+03  0.33298157343E+03  0.10071638794E+03 0.  0.
        -11    1    3    3    0    0 -0.20545413716E+02  0.32387719104E+02  0.77495718182E+02  0.86467709060E+02  0.00000000000E+00 0.  1.
         12    1    3    3    0    0  0.39742307458E+02  0.19436438299E+02  0.31856499218E+03  0.32162226350E+03  0.00000000000E+00 0. -1.
        -11    1    4    4    0    0 -0.36995957594E+02 -0.27234026918E+02  0.60443751186E+02  0.75919958890E+02  0.00000000000E+00 0. -1.
         11    1    4    4    0    0  0.40596577118E+02 -0.24862676543E+02  0.25261519929E+03  0.25706161454E+03  0.00000000000E+00 0.  1.
          1    1    1    2  501    0 -0.22797513267E+02  0.27254605823E+00  0.52592022663E+02  0.57321215447E+02  0.00000000000E+00 0. -1.
<scales pt_clust_5="13000.00000" pt_clust_6="13000.00000" pt_clust_7="13000.00000" pt_clust_8="13000.00000" pt_clust_9="22.79914"></scales>
<clustering>
<clus scale="   22.799">  2  9  1 -1</clus>
<clus scale="   81.358">  5  6 -1 -1</clus>
<clus scale="   97.099">  1  5  2 -1</clus>
<clus scale="  100.716">  7  8 -1 -1</clus>
<clus scale="   22.799">  2  5  1 -1</clus>
</clustering>
</event>
<event>
 9    2  0.9254368E-005  0.1734412E+03  0.7546771E-02  0.1174346E+00
          2   -1    0    0  502    0 -0.00000000000E+00  0.00000000000E+00  0.17721654161E+03  0.17721654161E+03  0.00000000000E+00 0. -1.
         21   -1    0    0  501  502  0.00000000000E+00 -0.00000000000E+00 -0.43689761537E+03  0.43689761537E+03  0.00000000000E+00 0. -1.
         23    2    1    2    0    0 -0.12418166715E+03 -0.10298170266E+03  0.45834939350E+02  0.18736614401E+03  0.83539886972E+02 0.  0.
         24    2    1    2    0    0  0.13210901946E+03  0.50732261520E+02 -0.58713713733E+02  0.17435105976E+03  0.83213198939E+02 0.  0.
        -13    1    4    4    0    0  0.44013764035E+02  0.52710992907E+02 -0.37470092111E+00  0.68671687023E+02  0.00000000000E+00 0.  1.
         14    1    4    4    0    0  0.88095255427E+02 -0.19787313871E+01 -0.58339012812E+02  0.10567937274E+03  0.00000000000E+00 0. -1.
        -13    1    3    3    0    0  0.58622106677E+01 -0.25940471890E+02 -0.65590087614E+01  0.27391498530E+02  0.00000000000E+00 0.  1.
         13    1    3    3    0    0 -0.13004387782E+03 -0.77041230775E+02  0.52393948111E+02  0.15997464548E+03  0.00000000000E+00 0. -1.
          1    1    1    2  501    0 -0.79273523119E+01  0.52249441145E+02 -0.24680229938E+03  0.25239695322E+03  0.00000000000E+00 0. -1.
<scales pt_clust_5="13000.00000" pt_clust_6="13000.00000" pt_clust_7="13000.00000" pt_clust_8="13000.00000" pt_clust_9="52.84739"></scales>
<clustering>
<clus scale="   52.847">  2  9  1 -1</clus>
<clus scale="   83.213">  5  6 -1 -1</clus>
<clus scale="   83.540">  7  8 -1 -1</clus>
<clus scale="  173.284">  2  5  1 -1</clus>
<clus scale="   52.847">  2  5  1 -1</clus>
</clustering>
</event>
<event>
 9    2  0.9254368E-005  0.1738628E+03  0.7546771E-02  0.1174320E+00
          2   -1    0    0  502    0 -0.00000000000E+00  0.00000000000E+00  0.61693503262E+03  0.61693503262E+03  0.00000000000E+00 0. -1.
         21   -1    0    0  501  502  0.00000000000E+00 -0.00000000000E+00 -0.75983591038E+02  0.75983591038E+02  0.00000000000E+00 0. -1.
         24    2    1    2    0    0 -0.12202434955E+03 -0.83482581570E+02  0.33630599812E+03  0.37983796354E+03  0.96518759147E+02 0.  0.
         23    2    1    2    0    0  0.79491821209E+02  0.12175918115E+03  0.11799576448E+03  0.20924289767E+03  0.93355995825E+02 0.  0.
        -11    1    3    3    0    0 -0.77063585437E+02 -0.70992259185E+02  0.12342438564E+03  0.16190205692E+03  0.00000000000E+00 0.  1.
         12    1    3    3    0    0 -0.44960764113E+02 -0.12490322385E+02  0.21288161247E+03  0.21793590661E+03  0.00000000000E+00 0. -1.
        -13    1    4    4    0    0  0.24686887435E+02 -0.11823603828E+02  0.10857269253E+02  0.29446906703E+02  0.00000000000E+00 0.  1.
         13    1    4    4    0    0  0.54804933773E+02  0.13358278498E+03  0.10713849523E+03  0.17979599097E+03  0.00000000000E+00 0. -1.
          1    1    1    2  501    0  0.42532528342E+02 -0.38276599579E+02  0.86649678989E+02  0.10383776245E+03  0.00000000000E+00 0. -1.
<scales pt_clust_5="13000.00000" pt_clust_6="13000.00000" pt_clust_7="13000.00000" pt_clust_8="13000.00000" pt_clust_9="57.21990"></scales>
<clustering>
<clus scale="   57.220">  2  9  1 -1</clus>
<clus scale="   93.356">  7  8 -1 -1</clus>
<clus scale="   96.519">  5  6 -1 -1</clus>
<clus scale="  172.127">  2  7  1 -1</clus>
<clus scale="   57.220">  2  5  1 -1</clus>
</clustering>
</event>
<event>
 9    2  0.9254368E-005  0.1112096E+03  0.7546771E-02  0.1262191E+00
         21   -1    0    0  501  502  0.00000000000E+00  0.00000000000E+00  0.13752159292E+03  0.13752159292E+03  0.00000000000E+00 0.  1.
          2   -1    0    0  502    0 -0.00000000000E+00 -0.00000000000E+00 -0.40629675452E+03  0.40629675452E+03  0.00000000000E+00 0. -1.
         23    2    1    2    0    0  0.16162329277E+01 -0.65682893002E+02 -0.36302754526E+03  0.37974273281E+03  0.89992721160E+02 0.  0.
         24    2    1    2    0    0 -0.30286745504E+02  0.59946891208E+02  0.65991012168E+02  0.12341107078E+03  0.79778204958E+02 0.  0.
        -13    1    4    4    0    0 -0.71735377120E+01  0.42994513333E+02  0.80304939171E+02  0.91372157002E+02  0.00000000000E+00 0.  1.
         14    1    4    4    0    0 -0.23113207792E+02  0.16952377876E+02 -0.14313927003E+02  0.32038913782E+02  0.00000000000E+00 0. -1.
        -13    1    3    3    0    0  0.34760312054E+01 -0.88222340384E+02 -0.30277781884E+03  0.31538812869E+03  0.00000000000E+00 0. -1.
         13    1    3    3    0    0 -0.18597982777E+01  0.22539447382E+02 -0.60249726422E+02  0.64354604123E+02  0.00000000000E+00 0.  1.
          1    1    1    2  501    0  0.28670512576E+02  0.57360017939E+01  0.28261371485E+02  0.40664543846E+02  0.00000000000E+00 0. -1.
<scales pt_clust_5="13000.00000" pt_clust_6="13000.00000" pt_clust_7="13000.00000" pt_clust_8="13000.00000" pt_clust_9="29.23867"></scales>
<clustering>
<clus scale="   29.239">  1  9  2 -1</clus>
<clus scale="   79.778">  5  6 -1 -1</clus>
<clus scale="   89.993">  7  8 -1 -1</clus>
<clus scale="  103.119">  1  5  2 -1</clus>
<clus scale="   29.239">  1  5  2 -1</clus>
</clustering>
</event>
<event>
 9    2  0.9254368E-005  0.2206124E+03  0.7546771E-02  0.1134212E+00
          2   -1    0    0  502    0 -0.00000000000E+00  0.00000000000E+00  0.63313151968E+03  0.63313151968E+03  0.00000000000E+00 0. -1.
         21   -1    0    0  501  502  0.00000000000E+00 -0.00000000000E+00 -0.15343436855E+03  0.15343436855E+03  0.00000000000E+00 0.  1.
         24    2    1    2    0    0 -0.82524454757E+02  0.22019120764E+03  0.18543699745E+03  0.31001505263E+03  0.80174804511E+02 0.  0.
         23    2    1    2    0    0  0.92634904189E+02 -0.12901698494E+03  0.16139850389E+02  0.18369274167E+03  0.90862097126E+02 0.  0.
        -11    1    3    3    0    0 -0.67428508928E+02  0.80218018479E+02  0.10265532934E+03  0.14669577686E+03  0.00000000000E+00 0.  1.
         12    1    3    3    0    0 -0.15095945829E+02  0.13997318916E+03  0.82781668108E+02  0.16331927577E+03  0.00000000000E+00 0. -1.
        -13    1    4    4    0    0  0.32075889371E+02 -0.36950616154E+02 -0.37005956748E+02  0.61348606732E+02  0.00000000000E+00 0. -1.
         13    1    4    4    0    0  0.60559014819E+02 -0.92066368789E+02  0.53145807137E+02  0.12234413494E+03  0.00000000000E+00 0.  1.
          1    1    1    2  501    0 -0.10110449433E+02 -0.91174222697E+02  0.27812030330E+03  0.29285809393E+03  0.00000000000E+00 0. -1.
<scales pt_clust_5="13000.00000" pt_clust_6="13000.00000" pt_clust_7="13000.00000" pt_clust_8="13000.00000" pt_clust_9="91.73314"></scales>
<clustering>
<clus scale="   80.175">  5  6 -1 -1</clus>
<clus scale="   90.862">  7  8 -1 -1</clus>
<clus scale="   91.733">  2  9  1 -1</clus>
<clus scale="  216.430">  1  5  2 -1</clus>
<clus scale="   91.733">  2  5  1 -1</clus>
</clustering>
</event>
<event>
 9    2  0.9254368E-005  0.1090797E+03  0.7546771E-02  0.1266739E+00
         21   -1    0    0  501  502  0.00000000000E+00  0.00000000000E+00  0.21064530102E+03  0.21064530102E+03  0.00000000000E+00 0. -1.
          4   -1    0    0  502    0 -0.00000000000E+00 -0.00000000000E+00 -0.12574754299E+03  0.12574754299E+03  0.00000000000E+00 0. -1.
         23    2    1    2    0    0  0.57196039229E+02  0.30475517827E+02 -0.41869234094E+02  0.11990833054E+03  0.91786877493E+02 0.  0.
         24    2    1    2    0    0 -0.81795954037E+01 -0.55779915375E+02  0.12774018200E+03  0.16131322202E+03  0.80784260604E+02 0.  0.
        -13    1    4    4    0    0  0.19836121270E+02 -0.12877192916E+02 -0.32270804547E-01  0.23649415338E+02  0.00000000000E+00 0.  1.
         14    1    4    4    0    0 -0.28015716673E+02 -0.42902722459E+02  0.12777245280E+03  0.13766380668E+03  0.00000000000E+00 0. -1.
        -13    1    3    3    0    0 -0.23560337479E+02  0.82613244026E-01  0.95440168899E+00  0.23579805124E+02  0.00000000000E+00 0.  1.
         13    1    3    3    0    0  0.80756376708E+02  0.30392904583E+02 -0.42823635783E+02  0.96328525420E+02  0.00000000000E+00 0. -1.
          3    1    1    2  501    0 -0.49016443825E+02  0.25304397548E+02 -0.97318987166E+00  0.55171291439E+02  0.00000000000E+00 0. -1.
<scales pt_clust_5="13000.00000" pt_clust_6="13000.00000" pt_clust_7="13000.00000" pt_clust_8="13000.00000" pt_clust_9="55.16274"></scales>
<clustering>
<clus scale="   55.163">  1  9  2 -1</clus>
<clus scale="   80.784">  5  6 -1 -1</clus>
<clus scale="   91.787">  7  8 -1 -1</clus>
<clus scale="   99.998">  1  5  2 -1</clus>
<clus scale="   55.163">  1  5  2 -1</clus>
</clustering>
</event>
<event>
 9    2  0.9254368E-005  0.1030512E+03  0.7546771E-02  0.1280152E+00
          4   -1    0    0  502    0 -0.00000000000E+00  0.00000000000E+00  0.16447122220E+03  0.16447122220E+03  0.00000000000E+00 0. -1.
         21   -1    0    0  501  502  0.00000000000E+00 -0.00000000000E+00 -0.12969933480E+03  0.12969933480E+03  0.00000000000E+00 0.  1.
         24    2    1    2    0    0 -0.33847619849E+02 -0.35132631906E+02  0.11469194642E+03  0.14752756280E+03  0.78931464056E+02 0.  0.
         23    2    1    2    0    0  0.30837193543E+02  0.15032272992E+02 -0.79525952260E+02  0.12631462941E+03  0.91946216793E+02 0.  0.
        -13    1    3    3    0    0  0.13590173378E+02 -0.36833917134E+02  0.78725480867E+02  0.87972334297E+02  0.00000000000E+00 0.  1.
         14    1    3    3    0    0 -0.47437793227E+02  0.17012852276E+01  0.35966465553E+02  0.59555228503E+02  0.00000000000E+00 0. -1.
        -11    1    4    4    0    0  0.29669194691E+02 -0.12429399548E+02 -0.91008459067E+02  0.96526114127E+02  0.00000000000E+00 0.  1.
         11    1    4    4    0    0  0.11679988516E+01  0.27461672541E+02  0.11482506807E+02  0.29788515281E+02  0.00000000000E+00 0. -1.
          3    1    1    2  501    0  0.30104263059E+01  0.20100358914E+02 -0.39410676576E+00  0.20328364793E+02  0.00000000000E+00 0. -1.
<scales pt_clust_5="13000.00000" pt_clust_6="13000.00000" pt_clust_7="13000.00000" pt_clust_8="13000.00000" pt_clust_9="20.32454"></scales>
<clustering>
<clus scale="   20.325">  2  9  1 -1</clus>
<clus scale="   78.931">  5  6 -1 -1</clus>
<clus scale="   91.628">  1  5  2 -1</clus>
<clus scale="   91.946">  7  8 -1 -1</clus>
<clus scale="   20.325">  2  5  1 -1</clus>
</clustering>
</event>
<event>
 9    2  0.9254368E-005  0.1951107E+03  0.7546771E-02  0.1154855E+00
         21   -1    0    0  501  502  0.00000000000E+00  0.00000000000E+00  0.17777146646E+03  0.17777146646E+03  0.00000000000E+00 0. -1.
          2   -1    0    0  502    0 -0.00000000000E+00 -0.00000000000E+00 -0.38866833908E+03  0.38866833908E+03  0.00000000000E+00 0. -1.
         23    2    1    2    0    0  0.77829272722E+02  0.20195093138E+03 -0.18849662832E+03  0.30134606203E+03  0.91852576626E+02 0.  0.
         24    2    1    2    0    0 -0.29715278288E+02 -0.99712670382E+02  0.36380012215E+02  0.13772523473E+03  0.82577966767E+02 0.  0.
        -13    1    4    4    0    0 -0.35520610556E+02 -0.16642402045E+02 -0.12495970357E+02  0.41168344578E+02  0.00000000000E+00 0.  1.
         14    1    4    4    0    0  0.58053322682E+01 -0.83070268337E+02  0.48875982572E+02  0.96556890156E+02  0.00000000000E+00 0. -1.
        -11    1    3    3    0    0 -0.19292651426E+02  0.15000509195E+02 -0.20025578321E+02  0.31595022745E+02  0.00000000000E+00 0.  1.
         11    1    3    3    0    0  0.97121924148E+02  0.18695042219E+03 -0.16847105000E+03  0.26975103928E+03  0.00000000000E+00 0. -1.
          1    1    1    2  501    0 -0.48113994433E+02 -0.10223826100E+03 -0.58780256511E+02  0.12736850878E+03  0.00000000000E+00 0. -1.
<scales pt_clust_5="13000.00000" pt_clust_6="13000.00000" pt_clust_7="13000.00000" pt_clust_8="13000.00000" pt_clust_9="112.99394"></scales>
<clustering>
<clus scale="   82.578">  5  6 -1 -1</clus>
<clus scale="   91.853">  7  8 -1 -1</clus>
<clus scale="  112.994">  1  9  2 -1</clus>
<clus scale="  190.920">  1  5  2 -1</clus>
<clus scale="  112.994">  1  5  2 -1</clus>
</clustering>
</event>
<event>
 9    2  0.9254368E-005  0.1026984E+03  0.7546771E-02  0.1275368E+00
         21   -1    0    0  501  502  0.00000000000E+00  0.00000000000E+00  0.27180784546E+02  0.27180784546E+02  0.00000000000E+00 0.  1.
          2   -1    0    0  502    0 -0.00000000000E+00 -0.00000000000E+00 -0.91336314921E+03  0.91336314921E+03  0.00000000000E+00 0. -1.
         23    2    1    2    0    0  0.40930597032E+02 -0.59131684321E+02 -0.32112301934E+03  0.33990411049E+03  0.85105469350E+02 0.  0.
         24    2    1    2    0    0 -0.42802603680E+02 -0.19113191871E+01 -0.13360649794E+03  0.16488609442E+03  0.86608381922E+02 0.  0.
        -11    1    4    4    0    0 -0.32773180378E+02  0.18558464766E+02 -0.96887074648E+01  0.38889188972E+02  0.00000000000E+00 0.  1.
         12    1    4    4    0    0 -0.10029423302E+02 -0.20469783953E+02 -0.12391779047E+03  0.12599690545E+03  0.00000000000E+00 0. -1.
        -11    1    3    3    0    0  0.63073564873E+00 -0.51582675013E+02 -0.26735867609E+03  0.27228997754E+03  0.00000000000E+00 0.  1.
         11    1    3    3    0    0  0.40299861384E+02 -0.75490093086E+01 -0.53764343246E+02  0.67614132944E+02  0.00000000000E+00 0. -1.
          1    1    1    2  501    0  0.18720066477E+01  0.61043003508E+02 -0.43145284739E+03  0.43575372885E+03  0.00000000000E+00 0. -1.
<scales pt_clust_5="13000.00000" pt_clust_6="13000.00000" pt_clust_7="13000.00000" pt_clust_8="13000.00000" pt_clust_9="61.07173"></scales>
<clustering>
<clus scale="   61.072">  1  9  2 -1</clus>
<clus scale="   85.105">  7  8 -1 -1</clus>
<clus scale="   86.608">  5  6 -1 -1</clus>
<clus scale="  101.434">  2  7  1 -1</clus>
<clus scale="   61.072">  1  5  2 -1</clus>
</clustering>
</event>
<event>
 9    2  0.1822759E-004  0.1743569E+03  0.7546771E-02  0.1204914E+00
         21   -1    0    0  501  502  0.00000000000E+00  0.00000000000E+00  0.19351846915E+03  0.19351846915E+03  0.00000000000E+00 0.  1.
         -1   -1    0    0    0  501 -0.00000000000E+00 -0.00000000000E+00 -0.22735786216E+03  0.22735786216E+03  0.00000000000E+00 0.  1.
         24    2    1    2    0    0 -0.31724347431E+02  0.10854642489E+02 -0.34277063477E+02  0.93291832643E+02  0.80026192423E+02 0.  0.
         23    2    1    2    0    0  0.14130273318E+03  0.21183367770E+02  0.67466203532E+02  0.19519612694E+03  0.11460646526E+03 0.  0.
        -13    1    3    3    0    0 -0.13581007369E+02  0.37144144810E+02 -0.44707118578E+02  0.59689678391E+02  0.00000000000E+00 0.  1.
         14    1    3    3    0    0 -0.18143340062E+02 -0.26289502322E+02  0.10430055102E+02  0.33602154251E+02  0.00000000000E+00 0. -1.
        -11    1    4    4    0    0  0.85377085572E+02 -0.13335236744E+02 -0.17107159239E+02  0.88089330665E+02  0.00000000000E+00 0.  1.
         11    1    4    4    0    0  0.55925647607E+02  0.34518604514E+02  0.84573362771E+02  0.10710679628E+03  0.00000000000E+00 0. -1.
         -2    1    1    2    0  502 -0.10957838575E+03 -0.32038010258E+02 -0.67028533066E+02  0.13238837173E+03  0.00000000000E+00 0.  1.
<scales pt_clust_5="13000.00000" pt_clust_6="13000.00000" pt_clust_7="13000.00000" pt_clust_8="13000.00000" pt_clust_9="131.39903"></scales>
<clustering>
<clus scale="   80.026">  5  6 -1 -1</clus>
<clus scale="   86.767">  2  5  1 -1</clus>
<clus scale="  114.606">  7  8 -1 -1</clus>
<clus scale="  131.399">  1  9  2 -1</clus>
<clus scale="  131.399">  1  5  2 -1</clus>
</clustering>
</event>
<event>
 9    2  0.9254368E-005  0.1340964E+03  0.7546771E-02  0.1226173E+00
          4   -1    0    0  502    0 -0.00000000000E+00  0.00000000000E+00  0.20580571706E+03  0.20580571706E+03  0.00000000000E+00 0. -1.
         21   -1    0    0  501  502  0.00000000000E+00 -0.00000000000E+00 -0.13286220104E+03  0.13286220104E+03  0.00000000000E+00 0.  1.
         23    2    1    2    0    0 -0.73676231753E+02  0.61471657898E+02  0.12252696217E+03  0.18275427198E+03  0.95808745005E+02 0.  0.
         24    2    1    2    0    0  0.83935964222E+02 -0.35026481904E+02 -0.40835679285E+02  0.12622976381E+03  0.77422865124E+02 0.  0.
        -13    1    4    4    0    0  0.49232762603E+02 -0.46572475778E+01 -0.58718584273E+02  0.76768659018E+02  0.00000000000E+00 0.  1.
         14    1    4    4    0    0  0.34703201620E+02 -0.30369234326E+02  0.17882904988E+02  0.49461104790E+02  0.00000000000E+00 0. -1.
        -11    1    3    3    0    0 -0.77357989994E+02  0.14019832942E+02  0.10682552437E+03  0.13263674826E+03  0.00000000000E+00 0.  1.
         11    1    3    3    0    0  0.36817582402E+01  0.47451824956E+02  0.15701437800E+02  0.50117523725E+02  0.00000000000E+00 0. -1.
          3    1    1    2  501    0 -0.10259732469E+02 -0.26445175994E+02 -0.87477668624E+01  0.29683882306E+02  0.00000000000E+00 0. -1.
<scales pt_clust_5="13000.00000" pt_clust_6="13000.00000" pt_clust_7="13000.00000" pt_clust_8="13000.00000" pt_clust_9="28.36564"></scales>
<clustering>
<clus scale="   28.366">  2  9  1 -1</clus>
<clus scale="   77.423">  5  6 -1 -1</clus>
<clus scale="   95.809">  7  8 -1 -1</clus>
<clus scale="  121.642">  2  5  1 -1</clus>
<clus scale="   28.366">  2  5  1 -1</clus>
</clustering>
</event>
<event>
 9    2  0.9254368E-005  0.2372451E+03  0.7546771E-02  0.1164150E+00
          2   -1    0    0  502    0 -0.00000000000E+00  0.00000000000E+00  0.52241501601E+03  0.52241501601E+03  0.00000000000E+00 0. -1.
         21   -1    0    0  501  502  0.00000000000E+00 -0.00000000000E+00 -0.21094723564E+03  0.21094723564E+03  0.00000000000E+00 0. -1.
         24    2    1    2    0    0  0.17337172634E+02  0.22405417025E+02  0.20542855820E+03  0.22251680092E+03  0.80686144397E+02 0.  0.
         23    2    1    2    0    0 -0.30033756510E+02 -0.23490554189E+03  0.14869770386E+03  0.29373429863E+03  0.89923250172E+02 0.  0.
        -11    1    3    3    0    0 -0.10683251078E+02  0.45303705712E+02  0.86811523471E+02  0.98502782764E+02  0.00000000000E+00 0.  1.
         12    1    3    3    0    0  0.28020423711E+02 -0.22898288687E+02  0.11861703473E+03  0.12401401815E+03  0.00000000000E+00 0. -1.
        -11    1    4    4    0    0 -0.79103444457E+01 -0.24479581802E+02  0.58152425175E+02  0.63588741364E+02  0.00000000000E+00 0.  1.
         11    1    4    4    0    0 -0.22123412064E+02 -0.21042596008E+03  0.90545278681E+02  0.23014555727E+03  0.00000000000E+00 0. -1.
          1    1    1    2  501    0  0.12696583877E+02  0.21250012486E+03 -0.42658481685E+02  0.21711115210E+03  0.00000000000E+00 0. -1.
<scales pt_clust_5="13000.00000" pt_clust_6="13000.00000" pt_clust_7="13000.00000" pt_clust_8="13000.00000" pt_clust_9="219.54285"></scales>
<clustering>
<clus scale="   80.686">  5  6 -1 -1</clus>
<clus scale="   85.515">  1  5  2 -1</clus>
<clus scale="   89.923">  7  8 -1 -1</clus>
<clus scale="  219.543">  2  9  1 -1</clus>
<clus scale="  219.543">  2  5  1 -1</clus>
</clustering>
</event>
<event>
 9    2  0.9254368E-005  0.1921803E+03  0.7546771E-02  0.1158033E+00
         21   -1    0    0  501  502  0.00000000000E+00  0.00000000000E+00  0.13251551100E+03  0.13251551100E+03  0.00000000000E+00 0. -1.
          2   -1    0    0  502    0 -0.00000000000E+00 -0.00000000000E+00 -0.74670999364E+03  0.74670999364E+03  0.00000000000E+00 0. -1.
         24    2    1    2    0    0 -0.12681301972E+03 -0.11017379157E+03 -0.59094794616E+03  0.61935624219E+03  0.78503970252E+02 0.  0.
         23    2    1    2    0    0  0.15334177600E+03  0.78641340678E+02 -0.59695076043E+02  0.20485502425E+03  0.93294791518E+02 0.  0.
        -11    1    3    3    0    0 -0.14067255478E+02 -0.43377946472E+02 -0.82206824658E+02  0.94007956776E+02  0.00000000000E+00 0.  1.
         12    1    3    3    0    0 -0.11274576424E+03 -0.66795845100E+02 -0.50874112150E+03  0.52534828541E+03  0.00000000000E+00 0. -1.
        -13    1    4    4    0    0  0.98276922860E+02 -0.45683513883E+00 -0.41952768923E+02  0.10685783586E+03  0.00000000000E+00 0. -1.
         13    1    4    4    0    0  0.55064853144E+02  0.79098175817E+02 -0.17742307119E+02  0.97997188384E+02  0.00000000000E+00 0.  1.
          1    1    1    2  501    0 -0.26528756286E+02  0.31532450894E+02  0.36448539564E+02  0.55014238210E+02  0.00000000000E+00 0. -1.
<scales pt_clust_5="13000.00000" pt_clust_6="13000.00000" pt_clust_7="13000.00000" pt_clust_8="13000.00000" pt_clust_9="41.20765"></scales>
<clustering>
<clus scale="   41.208">  1  9  2 -1</clus>
<clus scale="   78.504">  5  6 -1 -1</clus>
<clus scale="   93.295">  7  8 -1 -1</clus>
<clus scale="  185.451">  2  5  1 -1</clus>
<clus scale="   41.208">  1  5  2 -1</clus>
</clustering>
</event>
<event>
 9    2  0.9254368E-005  0.1522697E+03  0.7546771E-02  0.1218942E+00
          2   -1    0    0  502    0 -0.00000000000E+00  0.00000000000E+00  0.13112270576E+04  0.13112270576E+04  0.00000000000E+00 0. -1.
         21   -1    0    0  501  502  0.00000000000E+00 -0.00000000000E+00 -0.35244012556E+02  0.35244012556E+02  0.00000000000E+00 0.  1.
         24    2    1    2    0    0 -0.26277314303E+01 -0.57763286836E+02  0.24930803721E+03  0.26738284491E+03  0.77431169811E+02 0.  0.
         23    2    1    2    0    0 -0.11676237266E+03 -0.33269434501E+02  0.26936238077E+03  0.30703682254E+03  0.83517730327E+02 0.  0.
        -11    1    3    3    0    0 -0.64768003947E+01 -0.72274831692E+02  0.14652326835E+03  0.16350739557E+03  0.00000000000E+00 0.  1.
         12    1    3    3    0    0  0.38490689644E+01  0.14511544856E+02  0.10278476886E+03  0.10387544934E+03  0.00000000000E+00 0. -1.
        -13    1    4    4    0    0 -0.42647557872E+02 -0.12198124502E+02  0.25224198931E+02  0.51028116225E+02  0.00000000000E+00 0.  1.
         13    1    4    4    0    0 -0.74114814787E+02 -0.21071309999E+02  0.24413818184E+03  0.25600870631E+03  0.00000000000E+00 0. -1.
          1    1    1    2  501    0  0.11939010409E+03  0.91032721338E+02  0.75731262708E+03  0.77205140272E+03  0.00000000000E+00 0. -1.
<scales pt_clust_5="13000.00000" pt_clust_6="13000.00000" pt_clust_7="13000.00000" pt_clust_8="13000.00000" pt_clust_9="127.32190"></scales>
<clustering>
<clus scale="   77.431">  5  6 -1 -1</clus>
<clus scale="   83.518">  7  8 -1 -1</clus>
<clus scale="   96.639">  1  5  2 -1</clus>
<clus scale="  127.322">  2  9  1 -1</clus>
<clus scale="  127.322">  2  5  1 -1</clus>
</clustering>
</event>
<event>
 9    2  0.9254368E-005  0.1198341E+03  0.7546771E-02  0.1244761E+00
         21   -1    0    0  501  502  0.00000000000E+00  0.00000000000E+00  0.31485452616E+03  0.31485452616E+03  0.00000000000E+00 0.  1.
          2   -1    0    0  502    0 -0.00000000000E+00 -0.00000000000E+00 -0.69100110737E+02  0.69100110737E+02  0.00000000000E+00 0. -1.
         23    2    1    2    0    0 -0.40612035532E+02  0.54725359553E+02  0.59013104421E+02  0.12714264360E+03  0.89657698606E+02 0.  0.
         24    2    1    2    0    0  0.73161945589E+02 -0.62914665846E+02  0.97508106912E+02  0.16147508495E+03  0.85178909856E+02 0.  0.
        -13    1    4    4    0    0  0.66226755410E+02 -0.57787548174E+01  0.73525575598E+02  0.99123092196E+02  0.00000000000E+00 0.  1.
         14    1    4    4    0    0  0.69351901784E+01 -0.57135911028E+02  0.23982531313E+02  0.62351992751E+02  0.00000000000E+00 0. -1.
        -11    1    3    3    0    0  0.24502265289E+02  0.37829695356E+02  0.19349081917E+02  0.49049299955E+02  0.00000000000E+00 0. -1.
         11    1    3    3    0    0 -0.65114300821E+02  0.16895664197E+02  0.39664022504E+02  0.78093343642E+02  0.00000000000E+00 0.  1.
          1    1    1    2  501    0 -0.32549910057E+02  0.81893062922E+01  0.89233204094E+02  0.95336908357E+02  0.00000000000E+00 0. -1.
<scales pt_clust_5="13000.00000" pt_clust_6="13000.00000" pt_clust_7="13000.00000" pt_clust_8="13000.00000" pt_clust_9="33.56429"></scales>
<clustering>
<clus scale="   33.564">  1  9  2 -1</clus>
<clus scale="   85.179">  5  6 -1 -1</clus>
<clus scale="   89.658">  7  8 -1 -1</clus>
<clus scale="  116.521">  1  5  2 -1</clus>
<clus scale="   33.564">  1  5  2 -1</clus>
</clustering>
</event>
<event>
 9    2  0.9254368E-005  0.1256391E+03  0.7546771E-02  0.1248087E+00
         21   -1    0    0  501  502  0.00000000000E+00  0.00000000000E+00  0.21564971705E+03  0.21564971705E+03  0.00000000000E+00 0. -1.
          2   -1    0    0  502    0 -0.00000000000E+00 -0.00000000000E+00 -0.54426808995E+03  0.54426808995E+03  0.00000000000E+00 0. -1.
         23    2    1    2    0    0  0.16930439724E+02  0.17953541691E+02 -0.74678383106E+02  0.12049852635E+03  0.91291097595E+02 0.  0.
         24    2    1    2    0    0 -0.11264789372E+03 -0.23120547082E+02 -0.42265394434E+03  0.44537565823E+03  0.80616453765E+02 0.  0.
        -11    1    4    4    0    0 -0.30799100017E+02 -0.16746546857E+02 -0.36569544634E+02  0.50659283337E+02  0.00000000000E+00 0.  1.
         12    1    4    4    0    0 -0.81848793701E+02 -0.63740002254E+01 -0.38608439971E+03  0.39471637489E+03  0.00000000000E+00 0. -1.
        -13    1    3    3    0    0  0.11407511841E+02 -0.33610888713E+02 -0.54102762878E+02  0.64706507536E+02  0.00000000000E+00 0.  1.
         13    1    3    3    0    0  0.55229278828E+01  0.51564430404E+02 -0.20575620228E+02  0.55792018811E+02  0.00000000000E+00 0. -1.
          1    1    1    2  501    0  0.95717453994E+02  0.51670053914E+01  0.16871395454E+03  0.19404362242E+03  0.00000000000E+00 0. -1.
<scales pt_clust_5="13000.00000" pt_clust_6="13000.00000" pt_clust_7="13000.00000" pt_clust_8="13000.00000" pt_clust_9="96.36480"></scales>
<clustering>
<clus scale="   80.616">  5  6 -1 -1</clus>
<clus scale="   91.291">  7  8 -1 -1</clus>
<clus scale="   94.568">  2  7  1 -1</clus>
<clus scale="   96.365">  1  9  2 -1</clus>
<clus scale="   96.365">  1  5  2 -1</clus>
</clustering>
</event>
<event>
 9    2  0.9254368E-005  0.1141591E+03  0.7546771E-02  0.1257291E+00
         21   -1    0    0  501  502  0.00000000000E+00  0.00000000000E+00  0.94232793987E+02  0.94232793987E+02  0.00000000000E+00 0.  1.
          2   -1    0    0  502    0 -0.00000000000E+00 -0.00000000000E+00 -0.40811469202E+03  0.40811469202E+03  0.00000000000E+00 0. -1.
         24    2    1    2    0    0  0.65546059387E+02 -0.24641866259E+02 -0.36608720497E+01  0.10503670057E+03  0.78203574140E+02 0.  0.
         23    2    1    2    0    0  0.48940886817E+02  0.47803524137E+02 -0.65074674567E+02  0.12575884407E+03  0.83067359836E+02 0.  0.
        -13    1    3    3    0    0  0.76682316350E+01  0.19667754108E+02  0.19311905540E+02  0.28610697713E+02  0.00000000000E+00 0.  1.
         14    1    3    3    0    0  0.57877827752E+02 -0.44309620367E+02 -0.22972777589E+02  0.76426002856E+02  0.00000000000E+00 0. -1.
        -11    1    4    4    0    0  0.71826697840E+02  0.28419282895E+02 -0.51496858845E+02  0.92836720287E+02  0.00000000000E+00 0. -1.
         11    1    4    4    0    0 -0.22885811023E+02  0.19384241242E+02 -0.13577815722E+02  0.32922123785E+02  0.00000000000E+00 0.  1.
          1    1    1    2  501    0 -0.11448694620E+03 -0.23161657878E+02 -0.24514635142E+03  0.27155194137E+03  0.00000000000E+00 0. -1.
<scales pt_clust_5="13000.00000" pt_clust_6="13000.00000" pt_clust_7="13000.00000" pt_clust_8="13000.00000" pt_clust_9="78.30783"></scales>
<clustering>
<clus scale="   78.204">  5  6 -1 -1</clus>
<clus scale="   83.067">  7  8 -1 -1</clus>
<clus scale="  104.973">  2  5  1 -1</clus>
<clus scale="   78.308">  1  9  2 -1</clus>
<clus scale="   78.308">  1  5  2 -1</clus>
</clustering>
</event>
<event>
 9    2  0.9254368E-005  0.1516780E+03  0.7546771E-02  0.1222277E+00
          2   -1    0    0  502    0 -0.00000000000E+00  0.00000000000E+00  0.20104918508E+04  0.20104918508E+04  0.00000000000E+00 0. -1.
         21   -1    0    0  501  502  0.00000000000E+00 -0.00000000000E+00 -0.22902175375E+02  0.22902175375E+02  0.00000000000E+00 0. -1.
         24    2    1    2    0    0  0.36855767111E+02 -0.26287637414E+02  0.97918622069E+03  0.98342132025E+03  0.79135648630E+02 0.  0.
         23    2    1    2    0    0  0.45551450930E+02 -0.77388819466E+02  0.73466247335E+03  0.74587751986E+03  0.92414072663E+02 0.  0.
        -11    1    3    3    0    0  0.16979968406E+02 -0.26077205897E+02  0.11887325892E+03  0.12287876823E+03  0.00000000000E+00 0.  1.
         12    1    3    3    0    0  0.19875798705E+02 -0.21043151673E+00  0.86031296177E+03  0.86054255203E+03  0.00000000000E+00 0. -1.
        -11    1    4    4    0    0  0.12530308030E+02  0.21053417873E+02  0.11560495374E+03  0.11817258714E+03  0.00000000000E+00 0.  1.
         11    1    4    4    0    0  0.33021142900E+02 -0.98442237338E+02  0.61905751961E+03  0.62770493272E+03  0.00000000000E+00 0. -1.
          1    1    1    2  501    0 -0.82407218041E+02  0.10367645688E+03  0.27374098137E+03  0.30409518605E+03  0.00000000000E+00 0. -1.
<scales pt_clust_5="13000.00000" pt_clust_6="13000.00000" pt_clust_7="13000.00000" pt_clust_8="13000.00000" pt_clust_9="120.27412"></scales>
<clustering>
<clus scale="   79.136">  5  6 -1 -1</clus>
<clus scale="   91.169">  1  5  2 -1</clus>
<clus scale="   92.414">  7  8 -1 -1</clus>
<clus scale="  120.274">  2  9  1 -1</clus>
<clus scale="  120.274">  2  5  1 -1</clus>
</clustering>
</event>
<event>
 9    2  0.9254368E-005  0.1766688E+03  0.7546771E-02  0.1172220E+00
          2   -1    0    0  502    0 -0.00000000000E+00  0.00000000000E+00  0.14635740579E+04  0.14635740579E+04  0.00000000000E+00 0. -1.
         21   -1    0    0  501  502  0.00000000000E+00 -0.00000000000E+00 -0.31521344023E+02  0.31521344023E+02  0.00000000000E+00 0. -1.
         24    2    1    2    0    0 -0.56798019238E+02 -0.14930893898E+03  0.10141682058E+04  0.10296885693E+04  0.78754210557E+02 0.  0.
         23    2    1    2    0    0  0.39546045246E+02  0.12763945456E+03  0.26203379573E+03  0.30711393425E+03  0.88326317998E+02 0.  0.
        -13    1    3    3    0    0 -0.45200479403E+02 -0.33405918798E+02  0.22210723011E+03  0.22910840320E+03  0.00000000000E+00 0.  1.
         14    1    3    3    0    0 -0.11597539834E+02 -0.11590302018E+03  0.79206097574E+03  0.80058016607E+03  0.00000000000E+00 0. -1.
        -13    1    4    4    0    0  0.38603272347E+02  0.65060328795E+02  0.21755376513E+03  0.23033171675E+03  0.00000000000E+00 0.  1.
         13    1    4    4    0    0  0.94277289894E+00  0.62579125765E+02  0.44480030604E+02  0.76782217504E+02  0.00000000000E+00 0. -1.
          1    1    1    2  501    0  0.17251973991E+02  0.21669484417E+02  0.15585071234E+03  0.15829289845E+03  0.00000000000E+00 0. -1.
<scales pt_clust_5="13000.00000" pt_clust_6="13000.00000" pt_clust_7="13000.00000" pt_clust_8="13000.00000" pt_clust_9="27.69834"></scales>
<clustering>
<clus scale="   27.698">  2  9  1 -1</clus>
<clus scale="   78.754">  5  6 -1 -1</clus>
<clus scale="   88.326">  7  8 -1 -1</clus>
<clus scale="  172.083">  1  5  2 -1</clus>
<clus scale="   27.698">  2  5  1 -1</clus>
</clustering>
</event>
<event>
 9    2  0.9254368E-005  0.9772304E+02  0.7546771E-02  0.1290687E+00
         21   -1    0    0  501  502  0.00000000000E+00  0.00000000000E+00  0.15834258621E+03  0.15834258621E+03  0.00000000000E+00 0.  1.
         -1   -1    0    0    0  501 -0.00000000000E+00 -0.00000000000E+00 -0.10875412873E+03  0.10875412873E+03  0.00000000000E+00 0.  1.
         24    2    1    2    0    0  0.38763418105E+02  0.23025596535E+02  0.52387273560E+00  0.91163844501E+02  0.79232514933E+02 0.  0.
         23    2    1    2    0    0 -0.24348243512E+02 -0.28215812603E+01  0.89068940503E+02  0.12885476543E+03  0.89830262879E+02 0.  0.
        -11    1    3    3    0    0 -0.24062717590E+02  0.99486802840E+01 -0.58125052308E+01  0.26679127314E+02  0.00000000000E+00 0.  1.
         12    1    3    3    0    0  0.62826135694E+02  0.13076916251E+02  0.63363779664E+01  0.64484717187E+02  0.00000000000E+00 0. -1.
        -13    1    4    4    0    0  0.24090841356E+02 -0.25969753095E+01  0.74394774341E+02  0.78241263840E+02  0.00000000000E+00 0.  1.
         13    1    4    4    0    0 -0.48439084868E+02 -0.22460595081E+00  0.14674166161E+02  0.50613501590E+02  0.00000000000E+00 0. -1.
         -2    1    1    2    0  502 -0.14415174593E+02 -0.20204015275E+02 -0.40004355757E+02  0.47078105010E+02  0.00000000000E+00 0.  1.
<scales pt_clust_5="13000.00000" pt_clust_6="13000.00000" pt_clust_7="13000.00000" pt_clust_8="13000.00000" pt_clust_9="24.81935"></scales>
<clustering>
<clus scale="   24.819">  1  9  2 -1</clus>
<clus scale="   79.233">  5  6 -1 -1</clus>
<clus scale="   88.080">  2  5  1 -1</clus>
<clus scale="   89.830">  7  8 -1 -1</clus>
<clus scale="   24.819">  1  5  2 -1</clus>
</clustering>
</event>
<event>
 9    2  0.9254368E-005  0.9235260E+02  0.7546771E-02  0.1303008E+00
         21   -1    0    0  501  502  0.00000000000E+00  0.00000000000E+00  0.11511029498E+03  0.11511029498E+03  0.00000000000E+00 0. -1.
          2   -1    0    0  502    0 -0.00000000000E+00 -0.00000000000E+00 -0.20986808801E+03  0.20986808801E+03  0.00000000000E+00 0. -1.
         24    2    1    2    0    0  0.26325764630E+02 -0.40956985404E+01 -0.11265752122E+03  0.14151581173E+03  0.81395253256E+02 0.  0.
         23    2    1    2    0    0  0.35372580212E+02 -0.27502746050E+02  0.42563830004E+02  0.10988631575E+03  0.90860895288E+02 0.  0.
        -13    1    3    3    0    0  0.14840943922E+02 -0.42522631345E+02 -0.67176123188E+02  0.80876815711E+02  0.00000000000E+00 0.  1.
         14    1    3    3    0    0  0.11484820707E+02  0.38426932804E+02 -0.45481398035E+02  0.60638996023E+02  0.00000000000E+00 0. -1.
        -13    1    4    4    0    0  0.33293746706E+02  0.11324181347E+02  0.58182054032E+02  0.67984278067E+02  0.00000000000E+00 0. -1.
         13    1    4    4    0    0  0.20788335067E+01 -0.38826927398E+02 -0.15618224028E+02  0.41902037679E+02  0.00000000000E+00 0.  1.
          1    1    1    2  501    0 -0.61698344842E+02  0.31598444591E+02 -0.24664101816E+02  0.73576255512E+02  0.00000000000E+00 0. -1.
<scales pt_clust_5="13000.00000" pt_clust_6="13000.00000" pt_clust_7="13000.00000" pt_clust_8="13000.00000" pt_clust_9="69.31921"></scales>
<clustering>
<clus scale="   69.319">  1  9  2 -1</clus>
<clus scale="   81.395">  5  6 -1 -1</clus>
<clus scale="   83.057">  2  5  1 -1</clus>
<clus scale="   90.861">  7  8 -1 -1</clus>
<clus scale="   69.319">  1  5  2 -1</clus>
</clustering>
</event>
<event>
 9    2  0.9254368E-005  0.9641844E+02  0.7546771E-02  0.1293201E+00
         -1   -1    0    0    0  501 -0.00000000000E+00  0.00000000000E+00  0.97798370657E+02  0.97798370657E+02  0.00000000000E+00 0.  1.
         21   -1    0    0  501  502  0.00000000000E+00 -0.00000000000E+00 -0.40407215561E+03  0.40407215561E+03  0.00000000000E+00 0.  1.
         23    2    1    2    0    0  0.41273976373E+02  0.16104095177E+01  0.35926873793E+02  0.10614052259E+03  0.90933688648E+02 0.  0.
         24    2    1    2    0    0 -0.82574381534E+01 -0.26494173785E+02 -0.47728803533E+02  0.98370007993E+02  0.81415559055E+02 0.  0.
        -13    1    4    4    0    0 -0.19286912769E+02 -0.53115365396E+02 -0.25595256103E+02  0.62035023819E+02  0.00000000000E+00 0.  1.
         14    1    4    4    0    0  0.11029474615E+02  0.26621191610E+02 -0.22133547431E+02  0.36334984174E+02  0.00000000000E+00 0. -1.
        -13    1    3    3    0    0 -0.10940697777E+02  0.35042382382E+02  0.56519393490E+01  0.37143126541E+02  0.00000000000E+00 0. -1.
         13    1    3    3    0    0  0.52214674150E+02 -0.33431972864E+02  0.30274934444E+02  0.68997396051E+02  0.00000000000E+00 0.  1.
         -2    1    1    2    0  502 -0.33016538220E+02  0.24883764268E+02 -0.29447185521E+03  0.29735999568E+03  0.00000000000E+00 0.  1.
<scales pt_clust_5="13000.00000" pt_clust_6="13000.00000" pt_clust_7="13000.00000" pt_clust_8="13000.00000" pt_clust_9="41.34360"></scales>
<clustering>
<clus scale="   41.344">  2  9  1 -1</clus>
<clus scale="   81.416">  5  6 -1 -1</clus>
<clus scale="   87.499">  2  5  1 -1</clus>
<clus scale="   90.934">  7  8 -1 -1</clus>
<clus scale="   41.344">  2  5  1 -1</clus>
</clustering>
</event>
<event>
 9    2  0.9254368E-005  0.1992980E+03  0.7546771E-02  0.1151067E+00
         21   -1    0    0  501  502  0.00000000000E+00  0.00000000000E+00  0.40432221013E+03  0.40432221013E+03  0.00000000000E+00 0.  1.
         -1   -1    0    0    0  501 -0.00000000000E+00 -0.00000000000E+00 -0.30545083396E+03  0.30545083396E+03  0.00000000000E+00 0.  1.
         24    2    1    2    0    0 -0.21732966168E+02 -0.17446006404E+03 -0.19300754243E+03  0.27343789567E+03  0.81287979384E+02 0.  0.
         23    2    1    2    0    0  0.64132217302E+02  0.19208727250E+03  0.31496625621E+03  0.38494020574E+03  0.89245492300E+02 0.  0.
        -11    1    3    3    0    0 -0.18354962595E+02 -0.18153917822E+03 -0.19299444191E+03  0.26559411231E+03  0.00000000000E+00 0.  1.
         12    1    3    3    0    0 -0.33780035727E+01  0.70791141883E+01 -0.13100514068E-01  0.78437833634E+01  0.00000000000E+00 0. -1.
        -13    1    4    4    0    0  0.28599449397E+02  0.38070651039E+01  0.30704075022E+02  0.42132677027E+02  0.00000000000E+00 0. -1.
         13    1    4    4    0    0  0.35532767905E+02  0.18828020739E+03  0.28426218119E+03  0.34280752872E+03  0.00000000000E+00 0.  1.
         -2    1    1    2    0  502 -0.42399251134E+02 -0.17627208463E+02 -0.23087337613E+02  0.51394942679E+02  0.00000000000E+00 0.  1.
<scales pt_clust_5="13000.00000" pt_clust_6="13000.00000" pt_clust_7="13000.00000" pt_clust_8="13000.00000" pt_clust_9="45.91750"></scales>
<clustering>
<clus scale="   45.918">  1  9  2 -1</clus>
<clus scale="   81.288">  5  6 -1 -1</clus>
<clus scale="   89.245">  7  8 -1 -1</clus>
<clus scale="  195.864">  2  5  1 -1</clus>
<clus scale="   45.918">  1  5  2 -1</clus>
</clustering>
</event>
<event>
 9    2  0.9254368E-005  0.1851565E+03  0.7546771E-02  0.1163923E+00
          2   -1    0    0  502    0 -0.00000000000E+00  0.00000000000E+00  0.74208674733E+03  0.74208674733E+03  0.00000000000E+00 0. -1.
         21   -1    0    0  501  502  0.00000000000E+00 -0.00000000000E+00 -0.79906591062E+02  0.79906591062E+02  0.00000000000E+00 0. -1.
         24    2    1    2    0    0 -0.13475457880E+03  0.90908467774E+02  0.42159558371E+03  0.45914459268E+03  0.81533887245E+02 0.  0.
         23    2    1    2    0    0  0.86066436063E+02 -0.14698192039E+03  0.20122441995E+03  0.27880120591E+03  0.90706829371E+02 0.  0.
        -13    1    3    3    0    0 -0.73390046269E+02  0.75816892030E+02  0.17298206957E+03  0.20262550778E+03  0.00000000000E+00 0.  1.
         14    1    3    3    0    0 -0.61364532534E+02  0.15091575744E+02  0.24861351413E+03  0.25651908491E+03  0.00000000000E+00 0. -1.
        -11    1    4    4    0    0  0.41775639630E+02 -0.52077950335E+02  0.14568793751E+03  0.16025695652E+03  0.00000000000E+00 0.  1.
         11    1    4    4    0    0  0.44290796433E+02 -0.94903970059E+02  0.55536482440E+02  0.11854424939E+03  0.00000000000E+00 0. -1.
          1    1    1    2  501    0  0.48688142739E+02  0.56073452621E+02  0.39360152612E+02  0.84047539797E+02  0.00000000000E+00 0. -1.
<scales pt_clust_5="13000.00000" pt_clust_6="13000.00000" pt_clust_7="13000.00000" pt_clust_8="13000.00000" pt_clust_9="74.26148"></scales>
<clustering>
<clus scale="   74.261">  2  9  1 -1</clus>
<clus scale="   81.534">  5  6 -1 -1</clus>
<clus scale="   90.707">  7  8 -1 -1</clus>
<clus scale="  180.840">  1  5  2 -1</clus>
<clus scale="   74.261">  2  5  1 -1</clus>
</clustering>
</event>
<event>
 9    2  0.9254368E-005  0.9559133E+02  0.7546771E-02  0.1296621E+00
          2   -1    0    0  502    0 -0.00000000000E+00  0.00000000000E+00  0.15552933158E+03  0.15552933158E+03  0.00000000000E+00 0. -1.
         21   -1    0    0  501  502  0.00000000000E+00 -0.00000000000E+00 -0.11154248097E+03  0.11154248097E+03  0.00000000000E+00 0. -1.
         24    2    1    2    0    0  0.25304617422E+02 -0.32003793879E+01  0.76547761235E+02  0.11252706963E+03  0.78436060320E+02 0.  0.
         23    2    1    2    0    0 -0.44572650176E+02 -0.21059526505E+02  0.81609625871E+01  0.10337765312E+03  0.90499243387E+02 0.  0.
        -11    1    3    3    0    0  0.48870363546E+02  0.14320635078E+02  0.35586948856E+02  0.62127481448E+02  0.00000000000E+00 0.  1.
         12    1    3    3    0    0 -0.23565746124E+02 -0.17521014466E+02  0.40960812379E+02  0.50399588184E+02  0.00000000000E+00 0. -1.
        -11    1    4    4    0    0  0.10936348351E+02 -0.30015823957E+02 -0.22745625481E+02  0.39216283373E+02  0.00000000000E+00 0.  1.
         11    1    4    4    0    0 -0.55508998527E+02  0.89562974519E+01  0.30906588068E+02  0.64161369745E+02  0.00000000000E+00 0. -1.
          1    1    1    2  501    0  0.19268032753E+02  0.24259905893E+02 -0.40721873218E+02  0.51167089799E+02  0.00000000000E+00 0. -1.
<scales pt_clust_5="13000.00000" pt_clust_6="13000.00000" pt_clust_7="13000.00000" pt_clust_8="13000.00000" pt_clust_9="30.98064"></scales>
<clustering>
<clus scale="   30.981">  2  9  1 -1</clus>
<clus scale="   78.436">  5  6 -1 -1</clus>
<clus scale="   84.260">  1  5  2 -1</clus>
<clus scale="   90.499">  7  8 -1 -1</clus>
<clus scale="   30.981">  2  5  1 -1</clus>
</clustering>
</event>
<event>
 9    2  0.9254368E-005  0.1418459E+03  0.7546771E-02  0.1226102E+00
          2   -1    0    0  502    0 -0.00000000000E+00  0.00000000000E+00  0.12639779263E+03  0.12639779263E+03  0.00000000000E+00 0. -1.
         21   -1    0    0  501  502  0.00000000000E+00 -0.00000000000E+00 -0.27211447450E+03  0.27211447450E+03  0.00000000000E+00 0. -1.
         23    2    1    2    0    0 -0.76627252484E+01  0.71612825432E+02  0.46706714617E+02  0.15351533901E+03  0.12727265219E+03 0.  0.
         24    2    1    2    0    0  0.32876132996E+02 -0.27315115976E+02 -0.15978290428E+03  0.18447086163E+03  0.81682107030E+02 0.  0.
        -13    1    4    4    0    0  0.41145836131E+02 -0.16481747650E+02 -0.28974174076E+02  0.52954042338E+02  0.00000000000E+00 0.  1.
         14    1    4    4    0    0 -0.82697031349E+01 -0.10833368326E+02 -0.13080873021E+03  0.13151681929E+03  0.00000000000E+00 0. -1.
        -13    1    3    3    0    0  0.32871843542E+02  0.72634832785E+02  0.70564808669E+02  0.10646956962E+03  0.00000000000E+00 0. -1.
         13    1    3    3    0    0 -0.40534568791E+02 -0.10220073535E+01 -0.23858094052E+02  0.47045769394E+02  0.00000000000E+00 0.  1.
          1    1    1    2  501    0 -0.25213407747E+02 -0.44297709456E+02 -0.32640492206E+02  0.60526066490E+02  0.00000000000E+00 0. -1.
<scales pt_clust_5="13000.00000" pt_clust_6="13000.00000" pt_clust_7="13000.00000" pt_clust_8="13000.00000" pt_clust_9="50.97061"></scales>
<clustering>
<clus scale="   50.971">  2  9  1 -1</clus>
<clus scale="   81.682">  5  6 -1 -1</clus>
<clus scale="  102.927">  2  5  1 -1</clus>
<clus scale="  127.273">  7  8 -1 -1</clus>
<clus scale="   50.971">  2  5  1 -1</clus>
</clustering>
</event>
<event>
 9    2  0.9254368E-005  0.1014804E+03  0.7546771E-02  0.1282683E+00
          2   -1    0    0  502    0 -0.00000000000E+00  0.00000000000E+00  0.13194412024E+03  0.13194412024E+03  0.00000000000E+00 0. -1.
         21   -1    0    0  501  502  0.00000000000E+00 -0.00000000000E+00 -0.46236074185E+03  0.46236074185E+03  0.00000000000E+00 0.  1.
         23    2    1    2    0    0  0.29923730833E+02  0.34160930242E+02  0.10075684315E+03  0.14343275824E+03  0.91425466222E+02 0.  0.
         24    2    1    2    0    0  0.58417690477E+01 -0.31078682444E+02 -0.37039930656E+03  0.38028761875E+03  0.80143720287E+02 0.  0.
        -11    1    4    4    0    0  0.15083918701E+02 -0.53380354092E+02 -0.31514841293E+03  0.31999298270E+03  0.00000000000E+00 0.  1.
         12    1    4    4    0    0 -0.92421496528E+01  0.22301671648E+02 -0.55250893635E+02  0.60294636046E+02  0.00000000000E+00 0. -1.
        -13    1    3    3    0    0 -0.53842815690E+01  0.49500333851E+02  0.90980492281E+02  0.10371462537E+03  0.00000000000E+00 0. -1.
         13    1    3    3    0    0  0.35308012402E+02 -0.15339403610E+02  0.97763508698E+01  0.39718132877E+02  0.00000000000E+00 0.  1.
          1    1    1    2  501    0 -0.35765499881E+02 -0.30822477974E+01 -0.60774158195E+02  0.70584485105E+02  0.00000000000E+00 0. -1.
<scales pt_clust_5="13000.00000" pt_clust_6="13000.00000" pt_clust_7="13000.00000" pt_clust_8="13000.00000" pt_clust_9="35.89807"></scales>
<clustering>
<clus scale="   35.898">  2  9  1 -1</clus>
<clus scale="   80.144">  5  6 -1 -1</clus>
<clus scale="   91.425">  7  8 -1 -1</clus>
<clus scale="   91.448">  2  5  1 -1</clus>
<clus scale="   35.898">  2  5  1 -1</clus>
</clustering>
</event>
<event>
 9    2  0.9254368E-005  0.1159131E+03  0.7546771E-02  0.1262443E+00
          2   -1    0    0  502    0 -0.00000000000E+00  0.00000000000E+00  0.43203005806E+03  0.43203005806E+03  0.00000000000E+00 0. -1.
         21   -1    0    0  501  502  0.00000000000E+00 -0.00000000000E+00 -0.57832195059E+02  0.57832195059E+02  0.00000000000E+00 0.  1.
         24    2    1    2    0    0 -0.75525114199E+02 -0.28971862159E+02  0.30927488764E+03  0.32387178321E+03  0.51947706061E+02 0.  0.
         23    2    1    2    0    0  0.32734770738E+02  0.43141607680E+02  0.61031159875E+02  0.12074733330E+03  0.89007597966E+02 0.  0.
        -13    1    3    3    0    0 -0.54582585283E+02 -0.37668675196E+01  0.25212526787E+03  0.25799340806E+03  0.00000000000E+00 0.  1.
         14    1    3    3    0    0 -0.20942528915E+02 -0.25204994640E+02  0.57149619776E+02  0.65878375152E+02  0.00000000000E+00 0. -1.
        -13    1    4    4    0    0  0.53503177478E+02  0.31087894491E+02  0.71494106086E+02  0.94553976062E+02  0.00000000000E+00 0. -1.
         13    1    4    4    0    0 -0.20768406739E+02  0.12053713190E+02 -0.10462946211E+02  0.26193357241E+02  0.00000000000E+00 0.  1.
          1    1    1    2  501    0  0.42790343461E+02 -0.14169745521E+02  0.38918154831E+01  0.45243136600E+02  0.00000000000E+00 0. -1.
<scales pt_clust_5="13000.00000" pt_clust_6="13000.00000" pt_clust_7="13000.00000" pt_clust_8="13000.00000" pt_clust_9="45.07544"></scales>
<clustering>
<clus scale="   45.075">  2  9  1 -1</clus>
<clus scale="   51.948">  5  6 -1 -1</clus>
<clus scale="   89.008">  7  8 -1 -1</clus>
<clus scale="   90.620">  1  5  2 -1</clus>
<clus scale="   45.075">  2  5  1 -1</clus>
</clustering>
</event>
<event>
 9    2  0.9254368E-005  0.9400849E+02  0.7546771E-02  0.1300127E+00
          2   -1    0    0  502    0 -0.00000000000E+00  0.00000000000E+00  0.14094855836E+03  0.14094855836E+03  0.00000000000E+00 0. -1.
         21   -1    0    0  501  502  0.00000000000E+00 -0.00000000000E+00 -0.11467311006E+03  0.11467311006E+03  0.00000000000E+00 0.  1.
         23    2    1    2    0    0  0.24440217327E+02 -0.11651217498E+02  0.73893170474E+02  0.12090764768E+03  0.91789887967E+02 0.  0.
         24    2    1    2    0    0  0.56851133575E+01  0.44166554599E+01 -0.60699204624E+02  0.10108368295E+03  0.80508944579E+02 0.  0.
        -13    1    4    4    0    0  0.37469351677E+02 -0.11961819147E+01 -0.57511033082E+02  0.68650579695E+02  0.00000000000E+00 0.  1.
         14    1    4    4    0    0 -0.31784238320E+02  0.56128373746E+01 -0.31881715421E+01  0.32433103255E+02  0.00000000000E+00 0. -1.
        -11    1    3    3    0    0  0.17401104553E+02  0.32208582099E+02  0.23351039630E+01  0.36683019383E+02  0.00000000000E+00 0.  1.
         11    1    3    3    0    0  0.70391127734E+01 -0.43859799597E+02  0.71558066511E+02  0.84224628299E+02  0.00000000000E+00 0. -1.
          1    1    1    2  501    0 -0.30125330684E+02  0.72345620379E+01  0.13081482453E+02  0.33630337790E+02  0.00000000000E+00 0. -1.
<scales pt_clust_5="13000.00000" pt_clust_6="13000.00000" pt_clust_7="13000.00000" pt_clust_8="13000.00000" pt_clust_9="30.98186"></scales>
<clustering>
<clus scale="   30.982">  2  9  1 -1</clus>
<clus scale="   80.509">  5  6 -1 -1</clus>
<clus scale="   83.030">  2  5  1 -1</clus>
<clus scale="   91.790">  7  8 -1 -1</clus>
<clus scale="   30.982">  2  5  1 -1</clus>
</clustering>
</event>
<event>
 9    2  0.9254368E-005  0.1707108E+03  0.7546771E-02  0.1178656E+00
         21   -1    0    0  501  502  0.00000000000E+00  0.00000000000E+00  0.13635761827E+03  0.13635761827E+03  0.00000000000E+00 0. -1.
          2   -1    0    0  502    0 -0.00000000000E+00 -0.00000000000E+00 -0.79630981760E+03  0.79630981760E+03  0.00000000000E+00 0. -1.
         24    2    1    2    0    0 -0.78647423876E+02 -0.13002678179E+03 -0.69709857820E+03  0.71796910531E+03  0.80254764240E+02 0.  0.
         23    2    1    2    0    0  0.33316558049E+02  0.94042056198E+02 -0.15596327988E+02  0.13639391819E+03  0.91685081107E+02 0.  0.
        -13    1    3    3    0    0  0.87043277462E+01 -0.47849697301E+02 -0.27028698853E+03  0.27462777540E+03  0.00000000000E+00 0.  1.
         14    1    3    3    0    0 -0.87351751623E+02 -0.82177084489E+02 -0.42681158966E+03  0.44334132990E+03  0.00000000000E+00 0. -1.
        -11    1    4    4    0    0  0.52694772674E+02  0.18743968564E+02 -0.17548985604E+02  0.58617764547E+02  0.00000000000E+00 0.  1.
         11    1    4    4    0    0 -0.19378214625E+02  0.75298087634E+02  0.19526576165E+01  0.77776153641E+02  0.00000000000E+00 0. -1.
          1    1    1    2  501    0  0.45330865827E+02  0.35984725592E+02  0.52742706847E+02  0.78304412380E+02  0.00000000000E+00 0. -1.
<scales pt_clust_5="13000.00000" pt_clust_6="13000.00000" pt_clust_7="13000.00000" pt_clust_8="13000.00000" pt_clust_9="57.87735"></scales>
<clustering>
<clus scale="   57.877">  1  9  2 -1</clus>
<clus scale="   80.255">  5  6 -1 -1</clus>
<clus scale="   91.685">  7  8 -1 -1</clus>
<clus scale="  164.854">  2  5  1 -1</clus>
<clus scale="   57.877">  1  5  2 -1</clus>
</clustering>
</event>
<event>
 9    2  0.9254368E-005  0.1876960E+03  0.7546771E-02  0.1165719E+00
         21   -1    0    0  501  502  0.00000000000E+00  0.00000000000E+00  0.14126969322E+04  0.14126969322E+04  0.00000000000E+00 0.  1.
         -3   -1    0    0    0  501 -0.00000000000E+00 -0.00000000000E+00 -0.60205262429E+02  0.60205262429E+02  0.00000000000E+00 0.  1.
         23    2    1    2    0    0 -0.10043850607E+03 -0.91029759778E+02  0.26160774711E+03  0.31012501167E+03  0.96770857430E+02 0.  0.
         24    2    1    2    0    0  0.78745974533E+02 -0.13174316444E+03  0.57289926823E+03  0.59850203384E+03  0.80211739099E+02 0.  0.
        -13    1    4    4    0    0  0.68567177030E+02 -0.76114128450E+02  0.24177629685E+03  0.26258445505E+03  0.00000000000E+00 0.  1.
         14    1    4    4    0    0  0.10178797503E+02 -0.55629035985E+02  0.33112297137E+03  0.33591757878E+03  0.00000000000E+00 0. -1.
        -13    1    3    3    0    0 -0.10092919723E+03 -0.53211925228E+02  0.24194349145E+03  0.26749741100E+03  0.00000000000E+00 0.  1.
         13    1    3    3    0    0  0.49069115328E+00 -0.37817834550E+02  0.19664255661E+02  0.42627600666E+02  0.00000000000E+00 0. -1.
         -4    1    1    2    0  502  0.21692531542E+02  0.22277292421E+03  0.51798465441E+03  0.56427514910E+03  0.00000000000E+00 0.  1.
<scales pt_clust_5="13000.00000" pt_clust_6="13000.00000" pt_clust_7="13000.00000" pt_clust_8="13000.00000" pt_clust_9="169.69352"></scales>
<clustering>
<clus scale="   80.212">  5  6 -1 -1</clus>
<clus scale="   96.771">  7  8 -1 -1</clus>
<clus scale="  166.550">  2  7  1 -1</clus>
<clus scale="  169.694">  1  9  2 -1</clus>
<clus scale="  169.694">  1  5  2 -1</clus>
</clustering>
</event>
<event>
 9    2  0.1328307E-004  0.1963799E+03  0.7546771E-02  0.1153914E+00
         21   -1    0    0  501  502  0.00000000000E+00  0.00000000000E+00  0.23146073321E+03  0.23146073321E+03  0.00000000000E+00 0.  1.
         -1   -1    0    0    0  501 -0.00000000000E+00 -0.00000000000E+00 -0.48035126543E+03  0.48035126543E+03  0.00000000000E+00 0.  1.
         24    2    1    2    0    0 -0.27140091069E+02  0.14310193479E+03 -0.10048047862E+03  0.19491494323E+03  0.81735917602E+02 0.  0.
         23    2    1    2    0    0  0.88435687635E+02 -0.25574149554E+03  0.40157231298E+02  0.28885661660E+03  0.92741351828E+02 0.  0.
        -11    1    3    3    0    0 -0.55446079748E+00  0.13799437089E+03 -0.94323958689E+02  0.16715191595E+03  0.00000000000E+00 0.  1.
         12    1    3    3    0    0 -0.26585630272E+02  0.51075639027E+01 -0.61565199336E+01  0.27763027278E+02  0.00000000000E+00 0. -1.
        -11    1    4    4    0    0  0.19465470210E+02 -0.18351777030E+03  0.11243070086E+02  0.18488938091E+03  0.00000000000E+00 0.  1.
         11    1    4    4    0    0  0.68970217425E+02 -0.72223725238E+02  0.28914161212E+02  0.10396723569E+03  0.00000000000E+00 0. -1.
         -2    1    1    2    0  502 -0.61295596566E+02  0.11263956074E+03 -0.18856728489E+03  0.22804043881E+03  0.00000000000E+00 0.  1.
<scales pt_clust_5="13000.00000" pt_clust_6="13000.00000" pt_clust_7="13000.00000" pt_clust_8="13000.00000" pt_clust_9="128.23743"></scales>
<clustering>
<clus scale="   81.736">  5  6 -1 -1</clus>
<clus scale="   92.741">  7  8 -1 -1</clus>
<clus scale="  128.237">  1  9  2 -1</clus>
<clus scale="  191.428">  2  5  1 -1</clus>
<clus scale="  128.237">  1  5  2 -1</clus>
</clustering>
</event>
<event>
 9    2  0.9254368E-005  0.1766851E+03  0.7546771E-02  0.1200871E+00
          2   -1    0    0  502    0 -0.00000000000E+00  0.00000000000E+00  0.56898856588E+03  0.56898856588E+03  0.00000000000E+00 0. -1.
         21   -1    0    0  501  502  0.00000000000E+00 -0.00000000000E+00 -0.15134590276E+03  0.15134590276E+03  0.00000000000E+00 0.  1.
         24    2    1    2    0    0 -0.20462973975E+01 -0.41730196968E+02 -0.47397962501E+02  0.10259893563E+03  0.80835500073E+02 0.  0.
         23    2    1    2    0    0 -0.21045680439E+02 -0.14038226868E+03  0.70492966462E+02  0.18257344260E+03  0.90629474217E+02 0.  0.
        -13    1    3    3    0    0 -0.87475806891E+01 -0.28444772851E+02 -0.69700778161E+02  0.75788018490E+02  0.00000000000E+00 0.  1.
         14    1    3    3    0    0  0.67012832916E+01 -0.13285424118E+02  0.22302815660E+02  0.26810917144E+02  0.00000000000E+00 0. -1.
        -11    1    4    4    0    0  0.44800555201E+01 -0.10719674490E+03  0.83126109720E+01  0.10761186048E+03  0.00000000000E+00 0.  1.
         11    1    4    4    0    0 -0.25525735960E+02 -0.33185523779E+02  0.62180355490E+02  0.74961582118E+02  0.00000000000E+00 0. -1.
          1    1    1    2  501    0  0.23091977837E+02  0.18211246565E+03  0.39454765916E+03  0.43516209041E+03  0.00000000000E+00 0. -1.
<scales pt_clust_5="13000.00000" pt_clust_6="13000.00000" pt_clust_7="13000.00000" pt_clust_8="13000.00000" pt_clust_9="151.67055"></scales>
<clustering>
<clus scale="   80.836">  5  6 -1 -1</clus>
<clus scale="   90.629">  7  8 -1 -1</clus>
<clus scale="   90.994">  1  5  2 -1</clus>
<clus scale="  151.671">  2  9  1 -1</clus>
<clus scale="  151.671">  2  5  1 -1</clus>
</clustering>
</event>
<event>
 9    2  0.9254368E-005  0.2211270E+03  0.7546771E-02  0.1133666E+00
         21   -1    0    0  501  502  0.00000000000E+00  0.00000000000E+00  0.10971160840E+03  0.10971160840E+03  0.00000000000E+00 0. -1.
         -1   -1    0    0    0  501 -0.00000000000E+00 -0.00000000000E+00 -0.65838602567E+03  0.65838602567E+03  0.00000000000E+00 0.  1.
         23    2    1    2    0    0 -0.12731567590E+03  0.13177743480E+03 -0.30456463925E+03  0.36653334042E+03  0.89512549428E+02 0.  0.
         24    2    1    2    0    0  0.17375546358E+03 -0.15689943979E+03 -0.24548289946E+03  0.34874711389E+03  0.80958632582E+02 0.  0.
        -11    1    4    4    0    0  0.11675262824E+03 -0.14129249652E+03 -0.21406990466E+03  0.28181673098E+03  0.00000000000E+00 0.  1.
         12    1    4    4    0    0  0.57002835342E+02 -0.15606943268E+02 -0.31412994791E+02  0.66930382913E+02  0.00000000000E+00 0. -1.
        -13    1    3    3    0    0 -0.51624464564E+02  0.38227739688E+02 -0.39443527283E+02  0.75380615995E+02  0.00000000000E+00 0. -1.
         13    1    3    3    0    0 -0.75691211333E+02  0.93549695114E+02 -0.26512111197E+03  0.29115272443E+03  0.00000000000E+00 0.  1.
         -2    1    1    2    0  502 -0.46439787683E+02  0.25122004990E+02  0.13731214335E+01  0.52817179755E+02  0.00000000000E+00 0.  1.
<scales pt_clust_5="13000.00000" pt_clust_6="13000.00000" pt_clust_7="13000.00000" pt_clust_8="13000.00000" pt_clust_9="52.79933"></scales>
<clustering>
<clus scale="   52.799">  1  9  2 -1</clus>
<clus scale="   80.959">  5  6 -1 -1</clus>
<clus scale="   89.513">  7  8 -1 -1</clus>
<clus scale="  217.805">  1  5  2 -1</clus>
<clus scale="   52.799">  1  5  2 -1</clus>
</clustering>
</event>
<event>
 9    2  0.9254368E-005  0.1358519E+03  0.7546771E-02  0.1235032E+00
         21   -1    0    0  501  502  0.00000000000E+00  0.00000000000E+00  0.13258843127E+03  0.13258843127E+03  0.00000000000E+00 0. -1.
          4   -1    0    0  502    0 -0.00000000000E+00 -0.00000000000E+00 -0.45775965999E+03  0.45775965999E+03  0.00000000000E+00 0. -1.
         23    2    1    2    0    0  0.28672792231E+02  0.19940420717E+02  0.23013550074E+02  0.10012948249E+03  0.90975493318E+02 0.  0.
         24    2    1    2    0    0  0.66678877941E+02  0.41198181642E+02 -0.35912794233E+03  0.37642220051E+03  0.81101363373E+02 0.  0.
        -13    1    4    4    0    0  0.36045953012E+02 -0.21433968804E+02 -0.16149639002E+03  0.16685265876E+03  0.00000000000E+00 0.  1.
         14    1    4    4    0    0  0.30632924929E+02  0.62632150446E+02 -0.19763155231E+03  0.20956954175E+03  0.00000000000E+00 0. -1.
        -13    1    3    3    0    0 -0.22576174565E+02  0.64173856567E+01 -0.20800898582E+02  0.31361503128E+02  0.00000000000E+00 0.  1.
         13    1    3    3    0    0  0.51248966796E+02  0.13523035061E+02  0.43814448656E+02  0.68767979365E+02  0.00000000000E+00 0. -1.
          3    1    1    2  501    0 -0.95351670172E+02 -0.61138602359E+02  0.10943163546E+02  0.11379640825E+03  0.00000000000E+00 0. -1.
<scales pt_clust_5="13000.00000" pt_clust_6="13000.00000" pt_clust_7="13000.00000" pt_clust_8="13000.00000" pt_clust_9="108.98765"></scales>
<clustering>
<clus scale="   81.101">  5  6 -1 -1</clus>
<clus scale="   90.975">  7  8 -1 -1</clus>
<clus scale="   97.449">  2  7  1 -1</clus>
<clus scale="  108.988">  1  9  2 -1</clus>
<clus scale="  108.988">  1  5  2 -1</clus>
</clustering>
</event>
<event>
 9    2  0.9254368E-005  0.2475508E+03  0.7546771E-02  0.1145114E+00
         21   -1    0    0  501  502  0.00000000000E+00  0.00000000000E+00  0.89124363850E+02  0.89124363850E+02  0.00000000000E+00 0. -1.
          2   -1    0    0  502    0 -0.00000000000E+00 -0.00000000000E+00 -0.14159093579E+04  0.14159093579E+04  0.00000000000E+00 0. -1.
         23    2    1    2    0    0  0.22045493261E+02 -0.75225631925E+02 -0.16824951126E+03  0.20535773868E+03  0.87857858649E+02 0.  0.
         24    2    1    2    0    0  0.21466366137E+03  0.93498655408E+02 -0.95656834840E+03  0.98797765030E+03  0.79084424806E+02 0.  0.
        -11    1    4    4    0    0  0.85549335992E+02  0.79922537736E+02 -0.43201726898E+03  0.44759939859E+03  0.00000000000E+00 0.  1.
         12    1    4    4    0    0  0.12911432538E+03  0.13576117672E+02 -0.52455107942E+03  0.54037825170E+03  0.00000000000E+00 0. -1.
        -11    1    3    3    0    0 -0.13285049515E+02 -0.20556996621E+02 -0.12461028707E+03  0.12699136307E+03  0.00000000000E+00 0.  1.
         11    1    3    3    0    0  0.35330542776E+02 -0.54668635304E+02 -0.43639224189E+02  0.78366375612E+02  0.00000000000E+00 0. -1.
          1    1    1    2  501    0 -0.23670915463E+03 -0.18273023483E+02 -0.20196713437E+03  0.31169833275E+03  0.00000000000E+00 0. -1.
<scales pt_clust_5="13000.00000" pt_clust_6="13000.00000" pt_clust_7="13000.00000" pt_clust_8="13000.00000" pt_clust_9="234.57847"></scales>
<clustering>
<clus scale="   79.084">  5  6 -1 -1</clus>
<clus scale="   87.858">  7  8 -1 -1</clus>
<clus scale="  117.745">  2  7  1 -1</clus>
<clus scale="  234.578">  1  9  2 -1</clus>
<clus scale="  234.578">  1  5  2 -1</clus>
</clustering>
</event>
<event>
 9    2  0.9254368E-005  0.2222006E+03  0.7546771E-02  0.1132966E+00
         21   -1    0    0  501  502  0.00000000000E+00  0.00000000000E+00  0.10917525654E+04  0.10917525654E+04  0.00000000000E+00 0.  1.
          2   -1    0    0  502    0 -0.00000000000E+00 -0.00000000000E+00 -0.68913976711E+02  0.68913976711E+02  0.00000000000E+00 0. -1.
         24    2    1    2    0    0 -0.19099793117E+03 -0.46295875836E+02  0.36649891155E+03  0.42372692028E+03  0.81237509613E+02 0.  0.
         23    2    1    2    0    0  0.21828474765E+03 -0.41217626589E+02  0.51872482101E+03  0.57158838329E+03  0.91053369966E+02 0.  0.
        -13    1    3    3    0    0 -0.17273950486E+03 -0.66510436037E+02  0.31134381811E+03  0.36221202039E+03  0.00000000000E+00 0.  1.
         14    1    3    3    0    0 -0.18258426317E+02  0.20214560201E+02  0.55155093437E+02  0.61514899884E+02  0.00000000000E+00 0. -1.
        -13    1    4    4    0    0  0.52911068665E+02 -0.49582976314E+02  0.19341907190E+03  0.20656473586E+03  0.00000000000E+00 0.  1.
         13    1    4    4    0    0  0.16537367899E+03  0.83653497252E+01  0.32530574911E+03  0.36502364743E+03  0.00000000000E+00 0. -1.
          1    1    1    2  501    0 -0.27286816480E+02  0.87513502425E+02  0.13761485613E+03  0.16535123854E+03  0.00000000000E+00 0. -1.
<scales pt_clust_5="13000.00000" pt_clust_6="13000.00000" pt_clust_7="13000.00000" pt_clust_8="13000.00000" pt_clust_9="91.66893"></scales>
<clustering>
<clus scale="   81.238">  5  6 -1 -1</clus>
<clus scale="   91.053">  7  8 -1 -1</clus>
<clus scale="   91.669">  1  9  2 -1</clus>
<clus scale="  218.362">  2  5  1 -1</clus>
<clus scale="   91.669">  1  5  2 -1</clus>
</clustering>
</event>
<event>
 9    2  0.9254368E-005  0.3063521E+03  0.7546771E-02  0.1133703E+00
         21   -1    0    0  501  502  0.00000000000E+00  0.00000000000E+00  0.20373724493E+03  0.20373724493E+03  0.00000000000E+00 0. -1.
          2   -1    0    0  502    0 -0.00000000000E+00 -0.00000000000E+00 -0.68056660520E+03  0.68056660520E+03  0.00000000000E+00 0. -1.
         24    2    1    2    0    0 -0.18890321775E+02  0.87878849909E+01  0.16141810683E+02  0.83410239431E+02  0.79136835989E+02 0.  0.
         23    2    1    2    0    0  0.10928568380E+03  0.27085523342E+03 -0.12621894370E+03  0.33091617364E+03  0.90930600329E+02 0.  0.
        -13    1    3    3    0    0 -0.48526717057E+02  0.16052164455E+02  0.72285377974E+01  0.51621371647E+02  0.00000000000E+00 0.  1.
         14    1    3    3    0    0  0.29636395282E+02 -0.72642794642E+01  0.89132728860E+01  0.31788867784E+02  0.00000000000E+00 0. -1.
        -11    1    4    4    0    0  0.45938456586E+02  0.19815847572E+03 -0.54041311681E+02  0.21046991866E+03  0.00000000000E+00 0. -1.
         11    1    4    4    0    0  0.63347227217E+02  0.72696757700E+02 -0.72177632015E+02  0.12044625498E+03  0.00000000000E+00 0.  1.
          1    1    1    2  501    0 -0.90395362029E+02 -0.27964311841E+03 -0.36675222726E+03  0.46997743706E+03  0.00000000000E+00 0. -1.
<scales pt_clust_5="13000.00000" pt_clust_6="13000.00000" pt_clust_7="13000.00000" pt_clust_8="13000.00000" pt_clust_9="292.54630"></scales>
<clustering>
<clus scale="   79.137">  5  6 -1 -1</clus>
<clus scale="   81.833">  2  5  1 -1</clus>
<clus scale="   90.931">  7  8 -1 -1</clus>
<clus scale="  292.546">  1  9  2 -1</clus>
<clus scale="  292.546">  1  5  2 -1</clus>
</clustering>
</event>
<event>
 9    2  0.9254368E-005  0.1314775E+03  0.7546771E-02  0.1230866E+00
         -3   -1    0    0    0  501 -0.00000000000E+00  0.00000000000E+00  0.43037793667E+03  0.43037793667E+03  0.00000000000E+00 0.  1.
         21   -1    0    0  501  502  0.00000000000E+00 -0.00000000000E+00 -0.99431507233E+02  0.99431507233E+02  0.00000000000E+00 0. -1.
         24    2    1    2    0    0  0.66752203225E+01 -0.97519170320E+02  0.18867757662E+03  0.22383451062E+03  0.70342825359E+02 0.  0.
         23    2    1    2    0    0 -0.89583598797E+02  0.63684880961E+02  0.69330123811E+01  0.14369632082E+03  0.92301574844E+02 0.  0.
        -11    1    3    3    0    0 -0.11728978945E+02 -0.92519782539E+02  0.11677229090E+03  0.14944312306E+03  0.00000000000E+00 0.  1.
         12    1    3    3    0    0  0.18404199267E+02 -0.49993877812E+01  0.71905285712E+02  0.74391387554E+02  0.00000000000E+00 0. -1.
        -13    1    4    4    0    0 -0.29443640980E+02  0.87894264195E+01  0.44454337715E+02  0.54040449226E+02  0.00000000000E+00 0.  1.
         13    1    4    4    0    0 -0.60139957817E+02  0.54895454541E+02 -0.37521325333E+02  0.89655871589E+02  0.00000000000E+00 0. -1.
         -4    1    1    2    0  502  0.82908378475E+02  0.33834289360E+02  0.13533584044E+03  0.16227861247E+03  0.00000000000E+00 0.  1.
<scales pt_clust_5="13000.00000" pt_clust_6="13000.00000" pt_clust_7="13000.00000" pt_clust_8="13000.00000" pt_clust_9="89.54645"></scales>
<clustering>
<clus scale="   70.343">  5  6 -1 -1</clus>
<clus scale="   89.546">  2  9  1 -1</clus>
<clus scale="   92.302">  7  8 -1 -1</clus>
<clus scale="  117.111">  1  5  2 -1</clus>
<clus scale="   89.546">  2  5  1 -1</clus>
</clustering>
</event>
<event>
 9    2  0.9254368E-005  0.1616093E+03  0.7546771E-02  0.1211373E+00
         21   -1    0    0  501  502  0.00000000000E+00  0.00000000000E+00  0.15946626047E+03  0.15946626047E+03  0.00000000000E+00 0. -1.
          2   -1    0    0  502    0 -0.00000000000E+00 -0.00000000000E+00 -0.60709099306E+03  0.60709099306E+03  0.00000000000E+00 0. -1.
         23    2    1    2    0    0 -0.17984112990E+02  0.20862070009E+02 -0.11390916752E+03  0.14824824945E+03  0.90794221925E+02 0.  0.
         24    2    1    2    0    0 -0.11663198990E+03 -0.67829268593E+02 -0.42256121222E+03  0.45031804623E+03  0.77617871260E+02 0.  0.
        -11    1    4    4    0    0 -0.84243431144E+02 -0.12201512003E+02 -0.17616704252E+03  0.19565443889E+03  0.00000000000E+00 0.  1.
         12    1    4    4    0    0 -0.32388558761E+02 -0.55627756590E+02 -0.24639416970E+03  0.25466360734E+03  0.00000000000E+00 0. -1.
        -11    1    3    3    0    0  0.14325025935E+02  0.34895467158E+02 -0.10548920818E+03  0.11203067901E+03  0.00000000000E+00 0.  1.
         11    1    3    3    0    0 -0.32309138925E+02 -0.14033397148E+02 -0.84199593400E+01  0.36217570444E+02  0.00000000000E+00 0. -1.
          1    1    1    2  501    0  0.13461610289E+03  0.46967198583E+02  0.88845647146E+02  0.16799095785E+03  0.00000000000E+00 0. -1.
<scales pt_clust_5="13000.00000" pt_clust_6="13000.00000" pt_clust_7="13000.00000" pt_clust_8="13000.00000" pt_clust_9="141.74994"></scales>
<clustering>
<clus scale="   77.618">  5  6 -1 -1</clus>
<clus scale="   90.794">  7  8 -1 -1</clus>
<clus scale="   94.880">  2  7  1 -1</clus>
<clus scale="  141.750">  1  9  2 -1</clus>
<clus scale="  141.750">  1  5  2 -1</clus>
</clustering>
</event>
<event>
 9    2  0.9254368E-005  0.1990437E+03  0.7546771E-02  0.1157794E+00
         21   -1    0    0  501  502  0.00000000000E+00  0.00000000000E+00  0.52490207468E+02  0.52490207468E+02  0.00000000000E+00 0. -1.
          2   -1    0    0  502    0 -0.00000000000E+00 -0.00000000000E+00 -0.15808939884E+04  0.15808939884E+04  0.00000000000E+00 0. -1.
         23    2    1    2    0    0  0.11560692629E+02  0.14142739633E+03 -0.40758052817E+03  0.44079265728E+03  0.89671186691E+02 0.  0.
         24    2    1    2    0    0 -0.18429226304E+03 -0.35846370074E+02 -0.60925553443E+03  0.64242331071E+03  0.79163144553E+02 0.  0.
        -11    1    4    4    0    0 -0.11938167323E+03 -0.70837030491E+01 -0.26227963554E+03  0.28825816549E+03  0.00000000000E+00 0.  1.
         12    1    4    4    0    0 -0.64910589805E+02 -0.28762667025E+02 -0.34697589888E+03  0.35416514522E+03  0.00000000000E+00 0. -1.
        -13    1    3    3    0    0 -0.26820008973E+00  0.12158160305E+03 -0.39733264473E+03  0.41551821705E+03  0.00000000000E+00 0. -1.
         13    1    3    3    0    0  0.11828892719E+02  0.19845793280E+02 -0.10247883434E+02  0.25274440226E+02  0.00000000000E+00 0.  1.
          1    1    1    2  501    0  0.17273157041E+03 -0.10558102625E+03 -0.51156771836E+03  0.55016822790E+03  0.00000000000E+00 0. -1.
<scales pt_clust_5="13000.00000" pt_clust_6="13000.00000" pt_clust_7="13000.00000" pt_clust_8="13000.00000" pt_clust_9="182.62421"></scales>
<clustering>
<clus scale="   79.163">  5  6 -1 -1</clus>
<clus scale="   89.671">  7  8 -1 -1</clus>
<clus scale="  167.858">  2  7  1 -1</clus>
<clus scale="  182.624">  1  9  2 -1</clus>
<clus scale="  182.624">  1  5  2 -1</clus>
</clustering>
</event>
<event>
 9    2  0.9254368E-005  0.9435630E+02  0.7546771E-02  0.1298961E+00
          2   -1    0    0  502    0 -0.00000000000E+00  0.00000000000E+00  0.39707444026E+03  0.39707444026E+03  0.00000000000E+00 0. -1.
         21   -1    0    0  501  502  0.00000000000E+00 -0.00000000000E+00 -0.40681683703E+02  0.40681683703E+02  0.00000000000E+00 0. -1.
         23    2    1    2    0    0  0.16351030495E+02  0.19834394213E+01  0.21914237006E+03  0.23774673046E+03  0.90712949775E+02 0.  0.
         24    2    1    2    0    0 -0.34489866580E+02  0.32420109073E+02  0.13114899368E+03  0.16064127801E+03  0.79780619761E+02 0.  0.
        -11    1    4    4    0    0 -0.14927862989E+02 -0.26374327088E+02  0.35512185977E+02  0.46685774875E+02  0.00000000000E+00 0.  1.
         12    1    4    4    0    0 -0.19562003590E+02  0.58794436161E+02  0.95636807698E+02  0.11395550313E+03  0.00000000000E+00 0. -1.
        -11    1    3    3    0    0 -0.22736972049E+02  0.67682285541E+01  0.11427429734E+02  0.26331824207E+02  0.00000000000E+00 0.  1.
         11    1    3    3    0    0  0.39088002544E+02 -0.47847891328E+01  0.20771494033E+03  0.21141490625E+03  0.00000000000E+00 0. -1.
          1    1    1    2  501    0  0.18138836085E+02 -0.34403548494E+02  0.61013928234E+01  0.39368115498E+02  0.00000000000E+00 0. -1.
<scales pt_clust_5="13000.00000" pt_clust_6="13000.00000" pt_clust_7="13000.00000" pt_clust_8="13000.00000" pt_clust_9="38.89244"></scales>
<clustering>
<clus scale="   38.892">  2  9  1 -1</clus>
<clus scale="   79.781">  5  6 -1 -1</clus>
<clus scale="   83.900">  2  5  1 -1</clus>
<clus scale="   90.713">  7  8 -1 -1</clus>
<clus scale="   38.892">  2  5  1 -1</clus>
</clustering>
</event>
<event>
 9    2  0.9254368E-005  0.9447935E+02  0.7546771E-02  0.1300012E+00
         21   -1    0    0  501  502  0.00000000000E+00  0.00000000000E+00  0.43807717623E+02  0.43807717623E+02  0.00000000000E+00 0.  1.
         -1   -1    0    0    0  501 -0.00000000000E+00 -0.00000000000E+00 -0.31757384608E+03  0.31757384608E+03  0.00000000000E+00 0.  1.
         24    2    1    2    0    0 -0.66237106337E+01 -0.19933033336E+02 -0.18165549206E+03  0.19968412050E+03  0.80211163950E+02 0.  0.
         23    2    1    2    0    0  0.26014098824E+02 -0.91637036657E+01 -0.75996578950E+02  0.12319718209E+03  0.92958909527E+02 0.  0.
        -11    1    3    3    0    0  0.10973312807E+02  0.23443102623E+02 -0.24261654413E+02  0.35477042287E+02  0.00000000000E+00 0.  1.
         12    1    3    3    0    0 -0.17597023441E+02 -0.43376135960E+02 -0.15739383765E+03  0.16420707821E+03  0.00000000000E+00 0. -1.
        -11    1    4    4    0    0 -0.25297007035E+01  0.38345641633E+02 -0.46789398030E+02  0.60547794228E+02  0.00000000000E+00 0. -1.
         11    1    4    4    0    0  0.28543799528E+02 -0.47509345299E+02 -0.29207180920E+02  0.62649387862E+02  0.00000000000E+00 0.  1.
         -2    1    1    2    0  502 -0.19390388191E+02  0.29096737002E+02 -0.16114057440E+02  0.38500261110E+02  0.00000000000E+00 0.  1.
<scales pt_clust_5="13000.00000" pt_clust_6="13000.00000" pt_clust_7="13000.00000" pt_clust_8="13000.00000" pt_clust_9="34.96580"></scales>
<clustering>
<clus scale="   34.966">  1  9  2 -1</clus>
<clus scale="   80.211">  5  6 -1 -1</clus>
<clus scale="   81.968">  2  5  1 -1</clus>
<clus scale="   92.959">  7  8 -1 -1</clus>
<clus scale="   34.966">  1  5  2 -1</clus>
</clustering>
</event>
<event>
 9    2  0.9254368E-005  0.1306535E+03  0.7546771E-02  0.1228259E+00
          2   -1    0    0  502    0 -0.00000000000E+00  0.00000000000E+00  0.95326204188E+02  0.95326204188E+02  0.00000000000E+00 0. -1.
         21   -1    0    0  501  502  0.00000000000E+00 -0.00000000000E+00 -0.27040334428E+03  0.27040334428E+03  0.00000000000E+00 0. -1.
         23    2    1    2    0    0 -0.10860501288E+03 -0.80596383276E+01 -0.63088786385E+02  0.15316338693E+03  0.87285861034E+02 0.  0.
         24    2    1    2    0    0  0.80610276071E+02 -0.69339827085E-01 -0.13425970311E+03  0.17588103405E+03  0.80065278652E+02 0.  0.
        -11    1    4    4    0    0  0.30947471308E+00  0.22535451699E+02 -0.67862820039E+01  0.23537119223E+02  0.00000000000E+00 0.  1.
         12    1    4    4    0    0  0.80300801358E+02 -0.22604791526E+02 -0.12747342110E+03  0.15234391483E+03  0.00000000000E+00 0. -1.
        -13    1    3    3    0    0 -0.26864241717E+02 -0.18551991560E+02  0.18224617738E+02  0.37389845755E+02  0.00000000000E+00 0.  1.
         13    1    3    3    0    0 -0.81740771162E+02  0.10492353232E+02 -0.81313404123E+02  0.11577354118E+03  0.00000000000E+00 0. -1.
          1    1    1    2  501    0  0.27994736808E+02  0.81289781547E+01  0.22271349394E+02  0.36685127486E+02  0.00000000000E+00 0. -1.
<scales pt_clust_5="13000.00000" pt_clust_6="13000.00000" pt_clust_7="13000.00000" pt_clust_8="13000.00000" pt_clust_9="29.15110"></scales>
<clustering>
<clus scale="   29.151">  2  9  1 -1</clus>
<clus scale="   80.065">  5  6 -1 -1</clus>
<clus scale="   87.286">  7  8 -1 -1</clus>
<clus scale="  125.944">  2  5  1 -1</clus>
<clus scale="   29.151">  2  5  1 -1</clus>
</clustering>
</event>
<event>
 9    2  0.9254368E-005  0.1189605E+03  0.7546771E-02  0.1259134E+00
          2   -1    0    0  502    0 -0.00000000000E+00  0.00000000000E+00  0.12813227896E+04  0.12813227896E+04  0.00000000000E+00 0. -1.
         21   -1    0    0  501  502  0.00000000000E+00 -0.00000000000E+00 -0.23937013040E+02  0.23937013040E+02  0.00000000000E+00 0. -1.
         24    2    1    2    0    0  0.27186349866E+02  0.25462093470E+02  0.79070511401E+03  0.79574949477E+03  0.81334281083E+02 0.  0.
         23    2    1    2    0    0  0.51441998052E+02  0.27252791974E+02  0.22264558065E+03  0.24775775785E+03  0.91781578533E+02 0.  0.
        -13    1    3    3    0    0  0.13072154048E+02 -0.25842924234E+02  0.14552294559E+03  0.14837676920E+03  0.00000000000E+00 0.  1.
         14    1    3    3    0    0  0.14114195819E+02  0.51305017704E+02  0.64518216842E+03  0.64737272557E+03  0.00000000000E+00 0. -1.
        -13    1    4    4    0    0  0.12712735960E+02 -0.19493560369E+02  0.78690282488E+01  0.24566932186E+02  0.00000000000E+00 0.  1.
         13    1    4    4    0    0  0.38729262092E+02  0.46746352343E+02  0.21477655240E+03  0.22319082566E+03  0.00000000000E+00 0. -1.
          1    1    1    2  501    0 -0.78628347918E+02 -0.52714885445E+02  0.24403508188E+03  0.26175255000E+03  0.00000000000E+00 0. -1.
<scales pt_clust_5="13000.00000" pt_clust_6="13000.00000" pt_clust_7="13000.00000" pt_clust_8="13000.00000" pt_clust_9="75.68192"></scales>
<clustering>
<clus scale="   81.334">  5  6 -1 -1</clus>
<clus scale="   89.458">  1  5  2 -1</clus>
<clus scale="   75.682">  2  9  1 -1</clus>
<clus scale="   91.782">  7  8 -1 -1</clus>
<clus scale="   75.682">  2  5  1 -1</clus>
</clustering>
</event>
<event>
 9    2  0.9254368E-005  0.9447381E+02  0.7546771E-02  0.1298141E+00
          2   -1    0    0  502    0 -0.00000000000E+00  0.00000000000E+00  0.33187413624E+03  0.33187413624E+03  0.00000000000E+00 0. -1.
         21   -1    0    0  501  502  0.00000000000E+00 -0.00000000000E+00 -0.13872353915E+03  0.13872353915E+03  0.00000000000E+00 0. -1.
         23    2    1    2    0    0 -0.14166071477E+02  0.10316188937E+02  0.11866298724E+03  0.15092386708E+03  0.91596985639E+02 0.  0.
         24    2    1    2    0    0  0.10410811227E+02 -0.78354644554E+02 -0.87834646177E+02  0.14362879070E+03  0.81648448455E+02 0.  0.
        -13    1    4    4    0    0 -0.32389631217E+02 -0.38807184543E+02 -0.61701470693E+02  0.79763132262E+02  0.00000000000E+00 0.  1.
         14    1    4    4    0    0  0.42800442444E+02 -0.39547460011E+02 -0.26133175484E+02  0.63865658437E+02  0.00000000000E+00 0. -1.
        -13    1    3    3    0    0  0.36659652564E+02 -0.89094547318E+01  0.37066818124E+02  0.52889105831E+02  0.00000000000E+00 0.  1.
         13    1    3    3    0    0 -0.50825724040E+02  0.19225643669E+02  0.81596169115E+02  0.98034761248E+02  0.00000000000E+00 0. -1.
          1    1    1    2  501    0  0.37552602500E+01  0.68038455617E+02  0.16232225603E+03  0.17604501761E+03  0.00000000000E+00 0. -1.
<scales pt_clust_5="13000.00000" pt_clust_6="13000.00000" pt_clust_7="13000.00000" pt_clust_8="13000.00000" pt_clust_9="68.14204"></scales>
<clustering>
<clus scale="   68.142">  2  9  1 -1</clus>
<clus scale="   81.648">  5  6 -1 -1</clus>
<clus scale="   84.863">  2  5  1 -1</clus>
<clus scale="   91.597">  7  8 -1 -1</clus>
<clus scale="   68.142">  2  5  1 -1</clus>
</clustering>
</event>
<event>
 9    2  0.9254368E-005  0.1482440E+03  0.7546771E-02  0.1204377E+00
         21   -1    0    0  501  502  0.00000000000E+00  0.00000000000E+00  0.66894760175E+02  0.66894760175E+02  0.00000000000E+00 0. -1.
          2   -1    0    0  502    0 -0.00000000000E+00 -0.00000000000E+00 -0.89999474189E+03  0.89999474189E+03  0.00000000000E+00 0. -1.
         24    2    1    2    0    0 -0.84188264266E+02 -0.86167955627E+01 -0.95210606126E+02  0.15106444591E+03  0.81200334315E+02 0.  0.
         23    2    1    2    0    0  0.16047005132E+03 -0.12778462375E+02 -0.20023402208E+03  0.27236397452E+03  0.90413187900E+02 0.  0.
        -11    1    3    3    0    0 -0.94469765365E+01 -0.23766677190E+02 -0.63529622616E+02  0.68484401582E+02  0.00000000000E+00 0.  1.
         12    1    3    3    0    0 -0.74741287729E+02  0.15149881627E+02 -0.31680983510E+02  0.82580044326E+02  0.00000000000E+00 0. -1.
        -13    1    4    4    0    0  0.22032343287E+02 -0.10406756908E+02  0.49205929096E+01  0.24858338132E+02  0.00000000000E+00 0.  1.
         13    1    4    4    0    0  0.13843770803E+03 -0.23717054672E+01 -0.20515461499E+03  0.24750563639E+03  0.00000000000E+00 0. -1.
          1    1    1    2  501    0 -0.76281787052E+02  0.21395257938E+02 -0.53765535351E+03  0.54346108164E+03  0.00000000000E+00 0. -1.
<scales pt_clust_5="13000.00000" pt_clust_6="13000.00000" pt_clust_7="13000.00000" pt_clust_8="13000.00000" pt_clust_9="79.22547"></scales>
<clustering>
<clus scale="   79.225">  1  9  2 -1</clus>
<clus scale="   81.200">  5  6 -1 -1</clus>
<clus scale="   90.413">  7  8 -1 -1</clus>
<clus scale="  142.812">  2  5  1 -1</clus>
<clus scale="   79.225">  1  5  2 -1</clus>
</clustering>
</event>
<event>
 9    2  0.9254368E-005  0.2150258E+03  0.7546771E-02  0.1167610E+00
         21   -1    0    0  501  502  0.00000000000E+00  0.00000000000E+00  0.26920637216E+03  0.26920637216E+03  0.00000000000E+00 0. -1.
          2   -1    0    0  502    0 -0.00000000000E+00 -0.00000000000E+00 -0.10334927501E+04  0.10334927501E+04  0.00000000000E+00 0. -1.
         23    2    1    2    0    0 -0.51320375441E+02 -0.44112388753E+01 -0.48304104101E+02  0.11654057685E+03  0.92710191536E+02 0.  0.
         24    2    1    2    0    0  0.19625608583E+03 -0.12553692209E+03 -0.89054419215E+03  0.92469201222E+03  0.87808822187E+02 0.  0.
        -11    1    4    4    0    0  0.58587150101E+01 -0.31446741800E+02 -0.18963052448E+03  0.19230953675E+03  0.00000000000E+00 0.  1.
         12    1    4    4    0    0  0.19039737082E+03 -0.94090180294E+02 -0.70091366767E+03  0.73238247547E+03  0.00000000000E+00 0. -1.
        -11    1    3    3    0    0  0.33435033230E+01  0.37079930105E+02 -0.13588613768E+02  0.39632696795E+02  0.00000000000E+00 0.  1.
         11    1    3    3    0    0 -0.54663878764E+02 -0.41491168980E+02 -0.34715490334E+02  0.76907880052E+02  0.00000000000E+00 0. -1.
          1    1    1    2  501    0 -0.14493571039E+03  0.12994816097E+03  0.17456191828E+03  0.26146653323E+03  0.00000000000E+00 0. -1.
<scales pt_clust_5="13000.00000" pt_clust_6="13000.00000" pt_clust_7="13000.00000" pt_clust_8="13000.00000" pt_clust_9="196.27967"></scales>
<clustering>
<clus scale="   87.809">  5  6 -1 -1</clus>
<clus scale="   92.710">  7  8 -1 -1</clus>
<clus scale="  106.059">  2  7  1 -1</clus>
<clus scale="  196.280">  1  9  2 -1</clus>
<clus scale="  196.280">  1  5  2 -1</clus>
</clustering>
</event>
<event>
 9    2  0.9254368E-005  0.1259657E+03  0.7546771E-02  0.1237443E+00
         21   -1    0    0  501  502  0.00000000000E+00  0.00000000000E+00  0.15064536554E+03  0.15064536554E+03  0.00000000000E+00 0. -1.
          2   -1    0    0  502    0 -0.00000000000E+00 -0.00000000000E+00 -0.99121394577E+03  0.99121394577E+03  0.00000000000E+00 0. -1.
         24    2    1    2    0    0 -0.51184345383E+02 -0.68151877385E+02 -0.72197744519E+03  0.73063400639E+03  0.72870462638E+02 0.  0.
         23    2    1    2    0    0  0.95171022391E+02  0.74687715030E+02 -0.23961448630E+03  0.28229045129E+03  0.87390037004E+02 0.  0.
        -11    1    3    3    0    0 -0.53226640220E+02 -0.41715090093E+02 -0.28742528600E+03  0.29527363411E+03  0.00000000000E+00 0.  1.
         12    1    3    3    0    0  0.20422948378E+01 -0.26436787292E+02 -0.43455215919E+03  0.43536037228E+03  0.00000000000E+00 0. -1.
        -13    1    4    4    0    0 -0.15394824397E+02  0.12778920294E+02 -0.17547039208E+02  0.26612027489E+02  0.00000000000E+00 0. -1.
         13    1    4    4    0    0  0.11056584679E+03  0.61908794735E+02 -0.22206744709E+03  0.25567842380E+03  0.00000000000E+00 0.  1.
          1    1    1    2  501    0 -0.43986677008E+02 -0.65358376448E+01  0.12102335127E+03  0.12893485363E+03  0.00000000000E+00 0. -1.
<scales pt_clust_5="13000.00000" pt_clust_6="13000.00000" pt_clust_7="13000.00000" pt_clust_8="13000.00000" pt_clust_9="44.46960"></scales>
<clustering>
<clus scale="   44.470">  1  9  2 -1</clus>
<clus scale="   72.870">  5  6 -1 -1</clus>
<clus scale="   87.390">  7  8 -1 -1</clus>
<clus scale="  116.363">  2  5  1 -1</clus>
<clus scale="   44.470">  1  5  2 -1</clus>
</clustering>
</event>
<event>
 9    2  0.9254368E-005  0.1511198E+03  0.7546771E-02  0.1220033E+00
         21   -1    0    0  501  502  0.00000000000E+00  0.00000000000E+00  0.11776466781E+03  0.11776466781E+03  0.00000000000E+00 0.  1.
         -3   -1    0    0    0  501 -0.00000000000E+00 -0.00000000000E+00 -0.45959241486E+03  0.45959241486E+03  0.00000000000E+00 0.  1.
         24    2    1    2    0    0 -0.26290908700E+02  0.47181224752E+02 -0.17254426241E+03  0.19775578658E+03  0.80115846037E+02 0.  0.
         23    2    1    2    0    0  0.78241624595E+02  0.72613668981E+02 -0.20305414826E+03  0.24473042761E+03  0.85249623617E+02 0.  0.
        -11    1    3    3    0    0  0.18846759528E+02  0.24518550218E+02 -0.12365120617E+03  0.12745972084E+03  0.00000000000E+00 0.  1.
         12    1    3    3    0    0 -0.45137668228E+02  0.22662674534E+02 -0.48893056239E+02  0.70296065739E+02  0.00000000000E+00 0. -1.
        -11    1    4    4    0    0  0.43892918120E+02 -0.10883700905E+02 -0.82936993822E+02  0.94464745543E+02  0.00000000000E+00 0. -1.
         11    1    4    4    0    0  0.34348706475E+02  0.83497369886E+02 -0.12011715444E+03  0.15026568206E+03  0.00000000000E+00 0.  1.
         -4    1    1    2    0  502 -0.51950715895E+02 -0.11979489373E+03  0.33770663621E+02  0.13487086849E+03  0.00000000000E+00 0.  1.
<scales pt_clust_5="13000.00000" pt_clust_6="13000.00000" pt_clust_7="13000.00000" pt_clust_8="13000.00000" pt_clust_9="124.77854"></scales>
<clustering>
<clus scale="   80.116">  5  6 -1 -1</clus>
<clus scale="   85.250">  7  8 -1 -1</clus>
<clus scale="   96.622">  2  5  1 -1</clus>
<clus scale="  124.779">  1  9  2 -1</clus>
<clus scale="  124.779">  1  5  2 -1</clus>
</clustering>
</event>
<event>
 9    2  0.9254368E-005  0.1572925E+03  0.7546771E-02  0.1206984E+00
          2   -1    0    0  502    0 -0.00000000000E+00  0.00000000000E+00  0.55233232615E+03  0.55233232615E+03  0.00000000000E+00 0. -1.
         21   -1    0    0  501  502  0.00000000000E+00 -0.00000000000E+00 -0.20817020034E+03  0.20817020034E+03  0.00000000000E+00 0. -1.
         23    2    1    2    0    0  0.16569780594E+02  0.57581539400E+02  0.84153294538E+02  0.14092095256E+03  0.95847517332E+02 0.  0.
         24    2    1    2    0    0 -0.14965732007E+03 -0.71180373992E+02  0.39109653293E+03  0.43228179553E+03  0.80293795377E+02 0.  0.
        -11    1    4    4    0    0 -0.19919986762E+02  0.17391759061E+02  0.44821249547E+02  0.52040595373E+02  0.00000000000E+00 0.  1.
         12    1    4    4    0    0 -0.12973733331E+03 -0.88572133053E+02  0.34627528339E+03  0.38024120015E+03  0.00000000000E+00 0. -1.
        -11    1    3    3    0    0 -0.29304977003E+02  0.60190789373E+02  0.53335193360E+02  0.85594133287E+02  0.00000000000E+00 0. -1.
         11    1    3    3    0    0  0.45874757597E+02 -0.26092499728E+01  0.30818101179E+02  0.55326819268E+02  0.00000000000E+00 0.  1.
          1    1    1    2  501    0  0.13308753948E+03  0.13598834592E+02 -0.13108770166E+03  0.18729977841E+03  0.00000000000E+00 0. -1.
<scales pt_clust_5="13000.00000" pt_clust_6="13000.00000" pt_clust_7="13000.00000" pt_clust_8="13000.00000" pt_clust_9="135.25468"></scales>
<clustering>
<clus scale="   80.294">  5  6 -1 -1</clus>
<clus scale="   95.848">  7  8 -1 -1</clus>
<clus scale="  113.035">  1  7  2 -1</clus>
<clus scale="  135.255">  2  9  1 -1</clus>
<clus scale="  135.255">  2  5  1 -1</clus>
</clustering>
</event>
<event>
 9    2  0.9254368E-005  0.9929097E+02  0.7546771E-02  0.1289366E+00
         21   -1    0    0  501  502  0.00000000000E+00  0.00000000000E+00  0.13542985965E+03  0.13542985965E+03  0.00000000000E+00 0.  1.
          2   -1    0    0  502    0 -0.00000000000E+00 -0.00000000000E+00 -0.10771235188E+03  0.10771235188E+03  0.00000000000E+00 0. -1.
         24    2    1    2    0    0 -0.27249181100E+02 -0.17156848781E+02 -0.31172695442E+02  0.90069764681E+02  0.78127781473E+02 0.  0.
         23    2    1    2    0    0  0.25699671897E+02  0.38892674999E+02  0.15776132090E+02  0.10476437041E+03  0.92485532164E+02 0.  0.
        -11    1    3    3    0    0 -0.43033779094E+02 -0.37488426563E+02 -0.12924309416E+02  0.58517741268E+02  0.00000000000E+00 0.  1.
         12    1    3    3    0    0  0.15784597994E+02  0.20331577782E+02 -0.18248386026E+02  0.31552023413E+02  0.00000000000E+00 0. -1.
        -13    1    4    4    0    0  0.34740226133E+02 -0.85194411118E+01 -0.23277803775E+02  0.42676929801E+02  0.00000000000E+00 0. -1.
         13    1    4    4    0    0 -0.90405542359E+01  0.47412116110E+02  0.39053935864E+02  0.62087440610E+02  0.00000000000E+00 0.  1.
          1    1    1    2  501    0  0.15495092028E+01 -0.21735826218E+02  0.43114071128E+02  0.48308076440E+02  0.00000000000E+00 0. -1.
<scales pt_clust_5="13000.00000" pt_clust_6="13000.00000" pt_clust_7="13000.00000" pt_clust_8="13000.00000" pt_clust_9="21.79099"></scales>
<clustering>
<clus scale="   21.791">  1  9  2 -1</clus>
<clus scale="   78.128">  5  6 -1 -1</clus>
<clus scale="   86.076">  2  5  1 -1</clus>
<clus scale="   92.486">  7  8 -1 -1</clus>
<clus scale="   21.791">  1  5  2 -1</clus>
</clustering>
</event>
<event>
 9    2  0.9254368E-005  0.1562096E+03  0.7546771E-02  0.1195623E+00
         21   -1    0    0  501  502  0.00000000000E+00  0.00000000000E+00  0.91501932756E+03  0.91501932756E+03  0.00000000000E+00 0.  1.
         -3   -1    0    0    0  501 -0.00000000000E+00 -0.00000000000E+00 -0.41971279165E+02  0.41971279165E+02  0.00000000000E+00 0.  1.
         23    2    1    2    0    0  0.70976184707E+02  0.10479359171E+03  0.19235412522E+03  0.24786882768E+03  0.91758000128E+02 0.  0.
         24    2    1    2    0    0 -0.10534346000E+03 -0.78102391504E+02  0.46606779455E+03  0.49012884566E+03  0.76222490877E+02 0.  0.
        -13    1    4    4    0    0 -0.71155283292E+02 -0.31847274719E+02  0.15187108728E+03  0.17071072140E+03  0.00000000000E+00 0.  1.
         14    1    4    4    0    0 -0.34188176710E+02 -0.46255116785E+02  0.31419670726E+03  0.31941812427E+03  0.00000000000E+00 0. -1.
        -13    1    3    3    0    0  0.43966837769E+02  0.64296267250E+02  0.18218860258E+03  0.19814080780E+03  0.00000000000E+00 0.  1.
         13    1    3    3    0    0  0.27009346938E+02  0.40497324461E+02  0.10165522637E+02  0.49728019879E+02  0.00000000000E+00 0. -1.
         -4    1    1    2    0  502  0.34367275295E+02 -0.26691200208E+02  0.21462612863E+03  0.21899293338E+03  0.00000000000E+00 0.  1.
<scales pt_clust_5="13000.00000" pt_clust_6="13000.00000" pt_clust_7="13000.00000" pt_clust_8="13000.00000" pt_clust_9="43.51471"></scales>
<clustering>
<clus scale="   43.515">  1  9  2 -1</clus>
<clus scale="   76.222">  5  6 -1 -1</clus>
<clus scale="   91.758">  7  8 -1 -1</clus>
<clus scale="  147.620">  1  5  2 -1</clus>
<clus scale="   43.515">  1  5  2 -1</clus>
</clustering>
</event>
<event>
 9    2  0.9254368E-005  0.1052672E+03  0.7546771E-02  0.1274108E+00
         21   -1    0    0  501  502  0.00000000000E+00  0.00000000000E+00  0.50468993131E+02  0.50468993131E+02  0.00000000000E+00 0. -1.
          2   -1    0    0  502    0 -0.00000000000E+00 -0.00000000000E+00 -0.27536886874E+03  0.27536886874E+03  0.00000000000E+00 0. -1.
         24    2    1    2    0    0 -0.38577501230E+02 -0.35302940018E+02 -0.12564596966E+03  0.15752110876E+03  0.79318779859E+02 0.  0.
         23    2    1    2    0    0  0.59101318580E+02  0.20028514525E+02 -0.88048777912E+02  0.14038666097E+03  0.89787081660E+02 0.  0.
        -11    1    3    3    0    0 -0.24255024005E+02  0.44303612447E+01  0.32471901300E+00  0.24658461685E+02  0.00000000000E+00 0.  1.
         12    1    3    3    0    0 -0.14322477225E+02 -0.39733301262E+02 -0.12597068867E+03  0.13286264708E+03  0.00000000000E+00 0. -1.
        -11    1    4    4    0    0  0.22216070889E+02  0.51361584736E+02 -0.67833659100E+02  0.87937315738E+02  0.00000000000E+00 0.  1.
         11    1    4    4    0    0  0.36885247691E+02 -0.31333070211E+02 -0.20215118813E+02  0.52449345227E+02  0.00000000000E+00 0. -1.
          1    1    1    2  501    0 -0.20523817350E+02  0.15274425493E+02 -0.11205128030E+02  0.27930092139E+02  0.00000000000E+00 0. -1.
<scales pt_clust_5="13000.00000" pt_clust_6="13000.00000" pt_clust_7="13000.00000" pt_clust_8="13000.00000" pt_clust_9="25.58388"></scales>
<clustering>
<clus scale="   25.584">  1  9  2 -1</clus>
<clus scale="   79.319">  5  6 -1 -1</clus>
<clus scale="   89.787">  7  8 -1 -1</clus>
<clus scale="   96.493">  2  5  1 -1</clus>
<clus scale="   25.584">  1  5  2 -1</clus>
</clustering>
</event>
<event>
 9    2  0.9254368E-005  0.2772261E+03  0.7546771E-02  0.1098131E+00
          2   -1    0    0  502    0 -0.00000000000E+00  0.00000000000E+00  0.70869171370E+03  0.70869171370E+03  0.00000000000E+00 0. -1.
         21   -1    0    0  501  502  0.00000000000E+00 -0.00000000000E+00 -0.13052714173E+03  0.13052714173E+03  0.00000000000E+00 0. -1.
         24    2    1    2    0    0 -0.17148572984E+03 -0.16546167860E+03  0.21265302341E+03  0.32725266133E+03  0.71330732203E+02 0.  0.
         23    2    1    2    0    0  0.18386872387E+03  0.22036242019E+03  0.29817344144E+03  0.42420600587E+03  0.93145211297E+02 0.  0.
        -11    1    3    3    0    0 -0.19240303863E+02 -0.31843620199E+02  0.56569595222E+01  0.37632520925E+02  0.00000000000E+00 0.  1.
         12    1    3    3    0    0 -0.15224542598E+03 -0.13361805840E+03  0.20699606389E+03  0.28962014040E+03  0.00000000000E+00 0. -1.
        -11    1    4    4    0    0  0.36499893003E+02  0.60635888129E+02  0.24843265399E+02  0.75007605976E+02  0.00000000000E+00 0.  1.
         11    1    4    4    0    0  0.14736883086E+03  0.15972653206E+03  0.27333017604E+03  0.34919839990E+03  0.00000000000E+00 0. -1.
          1    1    1    2  501    0 -0.12382994027E+02 -0.54900741592E+02  0.67338107115E+02  0.87760188231E+02  0.00000000000E+00 0. -1.
<scales pt_clust_5="13000.00000" pt_clust_6="13000.00000" pt_clust_7="13000.00000" pt_clust_8="13000.00000" pt_clust_9="56.27995"></scales>
<clustering>
<clus scale="   56.280">  2  9  1 -1</clus>
<clus scale="   71.331">  5  6 -1 -1</clus>
<clus scale="   93.145">  7  8 -1 -1</clus>
<clus scale="  270.678">  1  5  2 -1</clus>
<clus scale="   56.280">  2  5  1 -1</clus>
</clustering>
</event>
<event>
 9    2  0.9254368E-005  0.9192240E+02  0.7546771E-02  0.1304780E+00
          2   -1    0    0  502    0 -0.00000000000E+00  0.00000000000E+00  0.10649312187E+03  0.10649312187E+03  0.00000000000E+00 0. -1.
         21   -1    0    0  501  502  0.00000000000E+00 -0.00000000000E+00 -0.15837735628E+03  0.15837735628E+03  0.00000000000E+00 0.  1.
         24    2    1    2    0    0 -0.24346764305E+01 -0.86290100503E+01  0.32556227139E+02  0.87218181001E+02  0.80415892134E+02 0.  0.
         23    2    1    2    0    0  0.45033038286E+02  0.56817041027E+01 -0.88498113801E+02  0.13475973851E+03  0.90928624081E+02 0.  0.
        -13    1    3    3    0    0  0.21939065497E+02 -0.26238945473E+02 -0.95191273530E+01  0.35502375131E+02  0.00000000000E+00 0.  1.
         14    1    3    3    0    0 -0.24373741927E+02  0.17609935422E+02  0.42075354492E+02  0.51715805869E+02  0.00000000000E+00 0. -1.
        -11    1    4    4    0    0  0.17076565602E+02 -0.26037508474E+02 -0.87052926793E+02  0.92454167042E+02  0.00000000000E+00 0.  1.
         11    1    4    4    0    0  0.27956472684E+02  0.31719212577E+02 -0.14451870081E+01  0.42305571464E+02  0.00000000000E+00 0. -1.
          1    1    1    2  501    0 -0.42598361856E+02  0.29473059476E+01  0.40576522577E+01  0.42892558644E+02  0.00000000000E+00 0. -1.
<scales pt_clust_5="13000.00000" pt_clust_6="13000.00000" pt_clust_7="13000.00000" pt_clust_8="13000.00000" pt_clust_9="42.70022"></scales>
<clustering>
<clus scale="   42.700">  2  9  1 -1</clus>
<clus scale="   80.416">  5  6 -1 -1</clus>
<clus scale="   81.538">  1  5  2 -1</clus>
<clus scale="   90.929">  7  8 -1 -1</clus>
<clus scale="   42.700">  2  5  1 -1</clus>
</clustering>
</event>
<event>
 9    2  0.9254368E-005  0.1949210E+03  0.7546771E-02  0.1156644E+00
          2   -1    0    0  502    0 -0.00000000000E+00  0.00000000000E+00  0.24680316925E+03  0.24680316925E+03  0.00000000000E+00 0. -1.
         21   -1    0    0  501  502  0.00000000000E+00 -0.00000000000E+00 -0.17725805455E+03  0.17725805455E+03  0.00000000000E+00 0.  1.
         23    2    1    2    0    0  0.77821802865E+02  0.14906574689E+03  0.69031825084E+02  0.20933542498E+03  0.10382243197E+03 0.  0.
         24    2    1    2    0    0 -0.52774218789E+02 -0.15256364250E+03 -0.20824350542E+02  0.18163634990E+03  0.80605997609E+02 0.  0.
        -13    1    4    4    0    0 -0.57761214547E+02 -0.54493333949E+02 -0.25285350865E+02  0.83338048449E+02  0.00000000000E+00 0.  1.
         14    1    4    4    0    0  0.49869957584E+01 -0.98070308546E+02  0.44610003233E+01  0.98298301455E+02  0.00000000000E+00 0. -1.
        -11    1    3    3    0    0  0.48322086459E+01  0.85485179925E+02  0.72910837301E+02  0.11245913224E+03  0.00000000000E+00 0. -1.
         11    1    3    3    0    0  0.72989594219E+02  0.63580566969E+02 -0.38790122176E+01  0.96876292746E+02  0.00000000000E+00 0.  1.
          1    1    1    2  501    0 -0.25047584076E+02  0.34978956011E+01  0.21337640159E+02  0.33089448912E+02  0.00000000000E+00 0. -1.
<scales pt_clust_5="13000.00000" pt_clust_6="13000.00000" pt_clust_7="13000.00000" pt_clust_8="13000.00000" pt_clust_9="25.29066"></scales>
<clustering>
<clus scale="   25.291">  2  9  1 -1</clus>
<clus scale="   80.606">  5  6 -1 -1</clus>
<clus scale="  103.822">  7  8 -1 -1</clus>
<clus scale="  183.609">  2  5  1 -1</clus>
<clus scale="   25.291">  2  5  1 -1</clus>
</clustering>
</event>
<event>
 9    2  0.9254368E-005  0.2334743E+03  0.7546771E-02  0.1154486E+00
         21   -1    0    0  501  502  0.00000000000E+00  0.00000000000E+00  0.37068901478E+03  0.37068901478E+03  0.00000000000E+00 0. -1.
          2   -1    0    0  502    0 -0.00000000000E+00 -0.00000000000E+00 -0.88543834542E+03  0.88543834542E+03  0.00000000000E+00 0. -1.
         23    2    1    2    0    0  0.40589569379E+02  0.50769723645E+02 -0.60306436687E+02  0.12754970176E+03  0.91689596638E+02 0.  0.
         24    2    1    2    0    0 -0.18683679657E+03 -0.20842800527E+03 -0.72579466205E+03  0.78234628021E+03  0.83292189132E+02 0.  0.
        -13    1    4    4    0    0 -0.20991663876E+02 -0.62526882402E+02 -0.11153061656E+03  0.12957368331E+03  0.00000000000E+00 0.  1.
         14    1    4    4    0    0 -0.16584513269E+03 -0.14590112287E+03 -0.61426404549E+03  0.65277259691E+03  0.00000000000E+00 0. -1.
        -13    1    3    3    0    0 -0.52573421896E+01  0.57194373080E+02 -0.57342063684E+02  0.81160016181E+02  0.00000000000E+00 0.  1.
         13    1    3    3    0    0  0.45846911569E+02 -0.64246494350E+01 -0.29643730030E+01  0.46389685578E+02  0.00000000000E+00 0. -1.
          1    1    1    2  501    0  0.14624722719E+03  0.15765828163E+03  0.27135176809E+03  0.34623137823E+03  0.00000000000E+00 0. -1.
<scales pt_clust_5="13000.00000" pt_clust_6="13000.00000" pt_clust_7="13000.00000" pt_clust_8="13000.00000" pt_clust_9="218.11155"></scales>
<clustering>
<clus scale="   83.292">  5  6 -1 -1</clus>
<clus scale="   91.690">  7  8 -1 -1</clus>
<clus scale="  112.392">  2  7  1 -1</clus>
<clus scale="  218.112">  1  9  2 -1</clus>
<clus scale="  218.112">  1  5  2 -1</clus>
</clustering>
</event>
<event>
 9    2  0.9254368E-005  0.3492232E+03  0.7546771E-02  0.1063195E+00
          2   -1    0    0  502    0 -0.00000000000E+00  0.00000000000E+00  0.70465505385E+03  0.70465505385E+03  0.00000000000E+00 0. -1.
         21   -1    0    0  501  502  0.00000000000E+00 -0.00000000000E+00 -0.23195652906E+03  0.23195652906E+03  0.00000000000E+00 0.  1.
         24    2    1    2    0    0 -0.11655943945E+03  0.34464531061E+03  0.39804701472E+03  0.54527310508E+03  0.80714559716E+02 0.  0.
         23    2    1    2    0    0  0.82855132753E+02 -0.27594955740E+03  0.32237928320E+02  0.30385134326E+03  0.90957262063E+02 0.  0.
        -11    1    3    3    0    0 -0.78009433414E+01  0.11187419906E+03  0.15726681414E+03  0.19315678079E+03  0.00000000000E+00 0.  1.
         12    1    3    3    0    0 -0.10875849611E+03  0.23277111155E+03  0.24078020057E+03  0.35211632429E+03  0.00000000000E+00 0. -1.
        -13    1    4    4    0    0  0.73262954266E+02 -0.11965734206E+03 -0.12880571769E+02  0.14089446088E+03  0.00000000000E+00 0. -1.
         13    1    4    4    0    0  0.95921784874E+01 -0.15629221534E+03  0.45118500089E+02  0.16295688238E+03  0.00000000000E+00 0.  1.
          1    1    1    2  501    0  0.33704306701E+02 -0.68695753206E+02  0.42413581751E+02  0.87487134573E+02  0.00000000000E+00 0. -1.
<scales pt_clust_5="13000.00000" pt_clust_6="13000.00000" pt_clust_7="13000.00000" pt_clust_8="13000.00000" pt_clust_9="76.51854"></scales>
<clustering>
<clus scale="   76.519">  2  9  1 -1</clus>
<clus scale="   80.715">  5  6 -1 -1</clus>
<clus scale="   90.957">  7  8 -1 -1</clus>
<clus scale="  346.697">  1  5  2 -1</clus>
<clus scale="   76.519">  2  5  1 -1</clus>
</clustering>
</event>
<event>
 9    2  0.9254368E-005  0.1205822E+03  0.7546771E-02  0.1251600E+00
          2   -1    0    0  502    0 -0.00000000000E+00  0.00000000000E+00  0.10279258327E+04  0.10279258327E+04  0.00000000000E+00 0. -1.
         21   -1    0    0  501  502  0.00000000000E+00 -0.00000000000E+00 -0.55215508913E+02  0.55215508913E+02  0.00000000000E+00 0. -1.
         24    2    1    2    0    0  0.16249696620E+02  0.80219539382E+02  0.64620043161E+03  0.65387097003E+03  0.57210318057E+02 0.  0.
         23    2    1    2    0    0 -0.90677618183E+02 -0.56252900398E+02  0.32237200393E+03  0.35096943027E+03  0.88707456399E+02 0.  0.
        -13    1    3    3    0    0  0.32132272036E+02  0.23938239113E+02  0.21238479040E+03  0.21613149097E+03  0.00000000000E+00 0.  1.
         14    1    3    3    0    0 -0.15882575416E+02  0.56281300269E+02  0.43381564121E+03  0.43773947905E+03  0.00000000000E+00 0. -1.
        -13    1    4    4    0    0 -0.68844831426E+02 -0.89360620499E+01  0.26283162613E+03  0.27184541143E+03  0.00000000000E+00 0. -1.
         13    1    4    4    0    0 -0.21832786757E+02 -0.47316838348E+02  0.59540377800E+02  0.79124018841E+02  0.00000000000E+00 0.  1.
          1    1    1    2  501    0  0.74427921563E+02 -0.23966638984E+02  0.41378882463E+01  0.78300941319E+02  0.00000000000E+00 0. -1.
<scales pt_clust_5="13000.00000" pt_clust_6="13000.00000" pt_clust_7="13000.00000" pt_clust_8="13000.00000" pt_clust_9="78.19153"></scales>
<clustering>
<clus scale="   57.210">  5  6 -1 -1</clus>
<clus scale="   78.192">  2  9  1 -1</clus>
<clus scale="   88.707">  7  8 -1 -1</clus>
<clus scale="   99.720">  1  5  2 -1</clus>
<clus scale="   78.192">  2  5  1 -1</clus>
</clustering>
</event>
<event>
 9    2  0.9254368E-005  0.8972185E+02  0.7546771E-02  0.1309218E+00
         -1   -1    0    0    0  501 -0.00000000000E+00  0.00000000000E+00  0.57771536682E+03  0.57771536682E+03  0.00000000000E+00 0.  1.
         21   -1    0    0  501  502  0.00000000000E+00 -0.00000000000E+00 -0.29335411441E+02  0.29335411441E+02  0.00000000000E+00 0.  1.
         23    2    1    2    0    0  0.73260328661E+01 -0.18774208773E+02  0.27489586878E+03  0.28692106887E+03  0.79685754182E+02 0.  0.
         24    2    1    2    0    0  0.59130708126E+00 -0.10339392970E+02  0.67399175675E+02  0.11184798530E+03  0.88657037186E+02 0.  0.
        -11    1    4    4    0    0 -0.36046079853E+02 -0.57599631804E+01  0.17708863449E+01  0.36546314274E+02  0.00000000000E+00 0.  1.
         12    1    4    4    0    0  0.36637386934E+02 -0.45794297891E+01  0.65628289330E+02  0.75301671024E+02  0.00000000000E+00 0. -1.
        -11    1    3    3    0    0  0.42089504074E+02 -0.16063724485E+01  0.16838025723E+03  0.17356848162E+03  0.00000000000E+00 0. -1.
         11    1    3    3    0    0 -0.34763471208E+02 -0.17167836325E+02  0.10651561155E+03  0.11335258726E+03  0.00000000000E+00 0.  1.
         -2    1    1    2    0  502 -0.79173399473E+01  0.29113601743E+02  0.20608491092E+03  0.20828172409E+03  0.00000000000E+00 0.  1.
<scales pt_clust_5="13000.00000" pt_clust_6="13000.00000" pt_clust_7="13000.00000" pt_clust_8="13000.00000" pt_clust_9="30.17096"></scales>
<clustering>
<clus scale="   30.171">  2  9  1 -1</clus>
<clus scale="   79.686">  7  8 -1 -1</clus>
<clus scale="   80.869">  1  7  2 -1</clus>
<clus scale="   88.657">  5  6 -1 -1</clus>
<clus scale="   30.171">  2  5  1 -1</clus>
</clustering>
</event>
<event>
 9    2  0.9254368E-005  0.1925743E+03  0.7546771E-02  0.1157584E+00
         21   -1    0    0  501  502  0.00000000000E+00  0.00000000000E+00  0.32330601069E+03  0.32330601069E+03  0.00000000000E+00 0.  1.
         -1   -1    0    0    0  501 -0.00000000000E+00 -0.00000000000E+00 -0.24253363832E+03  0.24253363832E+03  0.00000000000E+00 0.  1.
         24    2    1    2    0    0  0.13889795137E+03  0.67290232727E+02  0.51201880017E+02  0.18033419656E+03  0.77962642444E+02 0.  0.
         23    2    1    2    0    0 -0.18477694361E+03 -0.65046440883E+02  0.14550944430E+03  0.26079876815E+03  0.92029564406E+02 0.  0.
        -13    1    3    3    0    0  0.14559696663E+03  0.70809637061E+02  0.39923501482E+02  0.16675241336E+03  0.00000000000E+00 0.  1.
         14    1    3    3    0    0 -0.66990152622E+01 -0.35194043345E+01  0.11278378535E+02  0.13581783194E+02  0.00000000000E+00 0. -1.
        -13    1    4    4    0    0 -0.10912488821E+03 -0.70757280388E+02  0.51226959684E+02  0.13978209954E+03  0.00000000000E+00 0.  1.
         13    1    4    4    0    0 -0.75652055403E+02  0.57108395052E+01  0.94282484616E+02  0.12101666860E+03  0.00000000000E+00 0. -1.
         -2    1    1    2    0  502  0.45878992247E+02 -0.22437918438E+01 -0.11593895194E+03  0.12470668430E+03  0.00000000000E+00 0.  1.
<scales pt_clust_5="13000.00000" pt_clust_6="13000.00000" pt_clust_7="13000.00000" pt_clust_8="13000.00000" pt_clust_9="45.93385"></scales>
<clustering>
<clus scale="   45.934">  1  9  2 -1</clus>
<clus scale="   77.963">  5  6 -1 -1</clus>
<clus scale="   92.030">  7  8 -1 -1</clus>
<clus scale="  186.262">  2  5  1 -1</clus>
<clus scale="   45.934">  1  5  2 -1</clus>
</clustering>
</event>
<event>
 9    2  0.9254368E-005  0.1747491E+03  0.7546771E-02  0.1174427E+00
         -1   -1    0    0    0  501 -0.00000000000E+00  0.00000000000E+00  0.28201989789E+03  0.28201989789E+03  0.00000000000E+00 0.  1.
         21   -1    0    0  501  502  0.00000000000E+00 -0.00000000000E+00 -0.23547317943E+03  0.23547317943E+03  0.00000000000E+00 0.  1.
         24    2    1    2    0    0  0.11553727807E+02 -0.19293780900E+03  0.13595510078E+03  0.24911919188E+03  0.78854901960E+02 0.  0.
         23    2    1    2    0    0  0.31621003832E+02  0.93783962027E+02 -0.10293861129E+02  0.13437892178E+03  0.90312854159E+02 0.  0.
        -13    1    3    3    0    0  0.29433111235E+02 -0.18148036263E+03  0.10543605683E+03  0.21193912366E+03  0.00000000000E+00 0.  1.
         14    1    3    3    0    0 -0.17879383428E+02 -0.11457446377E+02  0.30519043949E+02  0.37180068220E+02  0.00000000000E+00 0. -1.
        -13    1    4    4    0    0  0.33077394736E+02  0.27330359221E+02 -0.42609572004E+02  0.60470143080E+02  0.00000000000E+00 0.  1.
         13    1    4    4    0    0 -0.14563909046E+01  0.66453602806E+02  0.32315710875E+02  0.73908778705E+02  0.00000000000E+00 0. -1.
         -2    1    1    2    0  502 -0.43174731639E+02  0.99153846977E+02 -0.79114521191E+02  0.13399496366E+03  0.00000000000E+00 0.  1.
<scales pt_clust_5="13000.00000" pt_clust_6="13000.00000" pt_clust_7="13000.00000" pt_clust_8="13000.00000" pt_clust_9="108.14593"></scales>
<clustering>
<clus scale="   78.855">  5  6 -1 -1</clus>
<clus scale="   90.313">  7  8 -1 -1</clus>
<clus scale="  108.146">  2  9  1 -1</clus>
<clus scale="  169.112">  1  5  2 -1</clus>
<clus scale="  108.146">  2  5  1 -1</clus>
</clustering>
</event>
<event>
 9    2  0.9254368E-005  0.1759643E+03  0.7546771E-02  0.1189237E+00
         21   -1    0    0  501  502  0.00000000000E+00  0.00000000000E+00  0.13773096396E+03  0.13773096396E+03  0.00000000000E+00 0.  1.
         -3   -1    0    0    0  501 -0.00000000000E+00 -0.00000000000E+00 -0.60508919176E+03  0.60508919176E+03  0.00000000000E+00 0.  1.
         23    2    1    2    0    0  0.65492579872E+02  0.52925240439E+02 -0.36820691314E+03  0.38691406281E+03  0.83879687771E+02 0.  0.
         24    2    1    2    0    0  0.97902598082E+02  0.49646639965E+02 -0.86527490365E+02  0.16257131650E+03  0.83022399324E+02 0.  0.
        -13    1    4    4    0    0  0.10673091041E+03  0.47907557431E+02 -0.54053139441E+02  0.12887343861E+03  0.00000000000E+00 0.  1.
         14    1    4    4    0    0 -0.88283123263E+01  0.17390825342E+01 -0.32474350924E+02  0.33697877893E+02  0.00000000000E+00 0. -1.
        -11    1    3    3    0    0 -0.18630328167E+02  0.22920472097E+02 -0.92640707099E+02  0.97235475936E+02  0.00000000000E+00 0. -1.
         11    1    3    3    0    0  0.84122908039E+02  0.30004768342E+02 -0.27556620604E+03  0.28967858687E+03  0.00000000000E+00 0.  1.
         -4    1    1    2    0  502 -0.16339517795E+03 -0.10257188040E+03 -0.12623824294E+02  0.19333477641E+03  0.00000000000E+00 0.  1.
<scales pt_clust_5="13000.00000" pt_clust_6="13000.00000" pt_clust_7="13000.00000" pt_clust_8="13000.00000" pt_clust_9="155.14744"></scales>
<clustering>
<clus scale="   83.022">  5  6 -1 -1</clus>
<clus scale="   83.880">  7  8 -1 -1</clus>
<clus scale="  118.854">  2  7  1 -1</clus>
<clus scale="  155.147">  1  9  2 -1</clus>
<clus scale="  155.147">  1  5  2 -1</clus>
</clustering>
</event>
<event>
 9    2  0.9254368E-005  0.1391451E+03  0.7546771E-02  0.1216561E+00
         21   -1    0    0  501  502  0.00000000000E+00  0.00000000000E+00  0.36884583517E+03  0.36884583517E+03  0.00000000000E+00 0. -1.
          2   -1    0    0  502    0 -0.00000000000E+00 -0.00000000000E+00 -0.94797711592E+02  0.94797711592E+02  0.00000000000E+00 0. -1.
         24    2    1    2    0    0 -0.10489864979E+03  0.83398139885E+02  0.69875400896E+02  0.17128553031E+03  0.80605116344E+02 0.  0.
         23    2    1    2    0    0  0.43363160430E+02 -0.40724289316E+02  0.18634274070E+03  0.21538021295E+03  0.90145369805E+02 0.  0.
        -11    1    3    3    0    0 -0.18048511182E+02  0.47397039986E+02  0.57154939216E+02  0.76412794950E+02  0.00000000000E+00 0.  1.
         12    1    3    3    0    0 -0.86850138608E+02  0.36001099899E+02  0.12720461680E+02  0.94872735364E+02  0.00000000000E+00 0. -1.
        -13    1    4    4    0    0 -0.14367547368E+02 -0.44979983622E+02  0.59555267506E+02  0.76002994887E+02  0.00000000000E+00 0.  1.
         13    1    4    4    0    0  0.57730707798E+02  0.42556943063E+01  0.12678747319E+03  0.13937721806E+03  0.00000000000E+00 0. -1.
          1    1    1    2  501    0  0.61535489360E+02 -0.42673850569E+02  0.17829981982E+02  0.76977803493E+02  0.00000000000E+00 0. -1.
<scales pt_clust_5="13000.00000" pt_clust_6="13000.00000" pt_clust_7="13000.00000" pt_clust_8="13000.00000" pt_clust_9="74.88444"></scales>
<clustering>
<clus scale="   74.884">  1  9  2 -1</clus>
<clus scale="   80.605">  5  6 -1 -1</clus>
<clus scale="   90.145">  7  8 -1 -1</clus>
<clus scale="  133.163">  2  5  1 -1</clus>
<clus scale="   74.884">  1  5  2 -1</clus>
</clustering>
</event>
<event>
 9    2  0.1025161E-004  0.2882739E+03  0.7546771E-02  0.1091893E+00
         21   -1    0    0  501  502  0.00000000000E+00  0.00000000000E+00  0.11595075495E+03  0.11595075495E+03  0.00000000000E+00 0. -1.
          2   -1    0    0  502    0 -0.00000000000E+00 -0.00000000000E+00 -0.92516908896E+03  0.92516908896E+03  0.00000000000E+00 0. -1.
         23    2    1    2    0    0  0.27241462789E+03 -0.81381134417E+02 -0.36170732087E+03  0.46986078150E+03  0.95416714932E+02 0.  0.
         24    2    1    2    0    0 -0.24921242397E+03  0.67572314095E+02 -0.23824534407E+03  0.36025871635E+03  0.79703505854E+02 0.  0.
        -11    1    4    4    0    0 -0.43559238782E+02  0.31343428990E+02 -0.87751699215E+02  0.10285999484E+03  0.00000000000E+00 0.  1.
         12    1    4    4    0    0 -0.20565318519E+03  0.36228885105E+02 -0.15049364486E+03  0.25739872151E+03  0.00000000000E+00 0. -1.
        -13    1    3    3    0    0  0.23923714253E+03 -0.83634958881E+02 -0.26097634926E+03  0.36378272579E+03  0.00000000000E+00 0. -1.
         13    1    3    3    0    0  0.33177485360E+02  0.22538244637E+01 -0.10073097162E+03  0.10607805571E+03  0.00000000000E+00 0.  1.
          1    1    1    2  501    0 -0.23202203924E+02  0.13808820323E+02 -0.20926566907E+03  0.21100034606E+03  0.00000000000E+00 0. -1.
<scales pt_clust_5="13000.00000" pt_clust_6="13000.00000" pt_clust_7="13000.00000" pt_clust_8="13000.00000" pt_clust_9="27.00049"></scales>
<clustering>
<clus scale="   27.000">  1  9  2 -1</clus>
<clus scale="   79.704">  5  6 -1 -1</clus>
<clus scale="   95.417">  7  8 -1 -1</clus>
<clus scale="  283.461">  1  5  2 -1</clus>
<clus scale="   27.000">  1  5  2 -1</clus>
</clustering>
</event>
<event>
 9    2  0.9254368E-005  0.1414110E+03  0.7546771E-02  0.1213698E+00
          2   -1    0    0  502    0 -0.00000000000E+00  0.00000000000E+00  0.24829294037E+03  0.24829294037E+03  0.00000000000E+00 0. -1.
         21   -1    0    0  501  502  0.00000000000E+00 -0.00000000000E+00 -0.27856738700E+03  0.27856738700E+03  0.00000000000E+00 0. -1.
         23    2    1    2    0    0  0.11828816589E+03 -0.15649724166E+02  0.19579799533E+03  0.24662943167E+03  0.90841716945E+02 0.  0.
         24    2    1    2    0    0 -0.53622145737E+02  0.11447766437E+02 -0.10578580009E+03  0.14359917602E+03  0.80148000490E+02 0.  0.
        -11    1    4    4    0    0 -0.43151953509E+02 -0.25193114349E+02 -0.28737866001E+02  0.57642424000E+02  0.00000000000E+00 0.  1.
         12    1    4    4    0    0 -0.10470192227E+02  0.36640880787E+02 -0.77047934091E+02  0.85956752020E+02  0.00000000000E+00 0. -1.
        -11    1    3    3    0    0  0.38147633853E+02  0.33422353987E+02  0.39614477011E+02  0.64355283415E+02  0.00000000000E+00 0.  1.
         11    1    3    3    0    0  0.80140532033E+02 -0.49072078153E+02  0.15618351832E+03  0.18227414826E+03  0.00000000000E+00 0. -1.
          1    1    1    2  501    0 -0.64666020149E+02  0.42019577287E+01 -0.12028664186E+03  0.13663171968E+03  0.00000000000E+00 0. -1.
<scales pt_clust_5="13000.00000" pt_clust_6="13000.00000" pt_clust_7="13000.00000" pt_clust_8="13000.00000" pt_clust_9="64.80240"></scales>
<clustering>
<clus scale="   64.802">  2  9  1 -1</clus>
<clus scale="   80.148">  5  6 -1 -1</clus>
<clus scale="   90.842">  7  8 -1 -1</clus>
<clus scale="  134.791">  2  5  1 -1</clus>
<clus scale="   64.802">  2  5  1 -1</clus>
</clustering>
</event>
<event>
 9    2  0.9254368E-005  0.9590796E+02  0.7546771E-02  0.1293692E+00
         -3   -1    0    0    0  501 -0.00000000000E+00  0.00000000000E+00  0.18828584755E+02  0.18828584755E+02  0.00000000000E+00 0.  1.
         21   -1    0    0  501  502  0.00000000000E+00 -0.00000000000E+00 -0.65159551548E+03  0.65159551548E+03  0.00000000000E+00 0. -1.
         23    2    1    2    0    0 -0.21958993375E+02  0.52248768919E+01 -0.25262185497E+03  0.26943448439E+03  0.90926580482E+02 0.  0.
         24    2    1    2    0    0  0.21417980433E+02 -0.37226283365E+02 -0.24497906206E+03  0.26208592990E+03  0.82642408889E+02 0.  0.
        -11    1    4    4    0    0 -0.75048742229E+01 -0.55371090047E+02 -0.18279820913E+03  0.19114775963E+03  0.00000000000E+00 0.  1.
         12    1    4    4    0    0  0.28922854656E+02  0.18144806681E+02 -0.62180852931E+02  0.70938170276E+02  0.00000000000E+00 0. -1.
        -11    1    3    3    0    0  0.10732174045E+02  0.38514331604E+02 -0.16911893054E+03  0.17378074107E+03  0.00000000000E+00 0. -1.
         11    1    3    3    0    0 -0.32691167420E+02 -0.33289454712E+02 -0.83502924433E+02  0.95653743320E+02  0.00000000000E+00 0.  1.
         -4    1    1    2    0  502  0.54101294202E+00  0.32001406473E+02 -0.13516601369E+03  0.13890368594E+03  0.00000000000E+00 0.  1.
<scales pt_clust_5="13000.00000" pt_clust_6="13000.00000" pt_clust_7="13000.00000" pt_clust_8="13000.00000" pt_clust_9="32.00598"></scales>
<clustering>
<clus scale="   32.006">  2  9  1 -1</clus>
<clus scale="   82.642">  5  6 -1 -1</clus>
<clus scale="   88.093">  2  5  1 -1</clus>
<clus scale="   90.927">  7  8 -1 -1</clus>
<clus scale="   32.006">  2  5  1 -1</clus>
</clustering>
</event>
<event>
 9    2  0.9254368E-005  0.1337175E+03  0.7546771E-02  0.1245562E+00
         21   -1    0    0  501  502  0.00000000000E+00  0.00000000000E+00  0.11365236534E+03  0.11365236534E+03  0.00000000000E+00 0.  1.
          4   -1    0    0  502    0 -0.00000000000E+00 -0.00000000000E+00 -0.27833318896E+03  0.27833318896E+03  0.00000000000E+00 0. -1.
         24    2    1    2    0    0 -0.11479400014E+02 -0.65643181862E+01 -0.24072033450E+02  0.85961136336E+02  0.81455431175E+02 0.  0.
         23    2    1    2    0    0 -0.93863745862E+02 -0.19470922938E+02 -0.32325169811E+01  0.13096085066E+03  0.89167121814E+02 0.  0.
        -13    1    3    3    0    0  0.76270830894E+01 -0.38752122573E+02  0.32348244705E+01  0.39627812073E+02  0.00000000000E+00 0.  1.
         14    1    3    3    0    0 -0.19106483104E+02  0.32187804386E+02 -0.27306857920E+02  0.46333324263E+02  0.00000000000E+00 0. -1.
        -11    1    4    4    0    0  0.68934049796E+01  0.18823083364E+02 -0.11048880606E+02  0.22888976870E+02  0.00000000000E+00 0. -1.
         11    1    4    4    0    0 -0.10075715084E+03 -0.38294006302E+02  0.78163636245E+01  0.10807187379E+03  0.00000000000E+00 0.  1.
          3    1    1    2  501    0  0.10534314588E+03  0.26035241124E+02 -0.13737627319E+03  0.17506356731E+03  0.00000000000E+00 0. -1.
<scales pt_clust_5="13000.00000" pt_clust_6="13000.00000" pt_clust_7="13000.00000" pt_clust_8="13000.00000" pt_clust_9="99.64738"></scales>
<clustering>
<clus scale="   81.455">  5  6 -1 -1</clus>
<clus scale="   82.522">  2  5  1 -1</clus>
<clus scale="   89.167">  7  8 -1 -1</clus>
<clus scale="   99.647">  1  9  2 -1</clus>
<clus scale="   99.647">  1  5  2 -1</clus>
</clustering>
</event>
<event>
 9    2  0.9254368E-005  0.1891395E+03  0.7546771E-02  0.1160414E+00
          2   -1    0    0  502    0 -0.00000000000E+00  0.00000000000E+00  0.96290969045E+03  0.96290969045E+03  0.00000000000E+00 0. -1.
         21   -1    0    0  501  502  0.00000000000E+00 -0.00000000000E+00 -0.57798714078E+02  0.57798714078E+02  0.00000000000E+00 0.  1.
         24    2    1    2    0    0  0.14151253100E+03  0.94838183031E+02  0.72136597119E+03  0.74551371830E+03  0.80011014125E+02 0.  0.
         23    2    1    2    0    0 -0.11602525762E+03 -0.98360874405E+02  0.17154550562E+03  0.24671946457E+03  0.91136774578E+02 0.  0.
        -13    1    3    3    0    0  0.33809265468E+02  0.69756113511E+02  0.28514869225E+03  0.29549747629E+03  0.00000000000E+00 0.  1.
         14    1    3    3    0    0  0.10770326553E+03  0.25082069520E+02  0.43621727894E+03  0.45001624200E+03  0.00000000000E+00 0. -1.
        -11    1    4    4    0    0 -0.53218479886E+02 -0.16490055632E+02  0.12446233897E+02  0.57087978370E+02  0.00000000000E+00 0.  1.
         11    1    4    4    0    0 -0.62806777731E+02 -0.81870818774E+02  0.15909927173E+03  0.18963148620E+03  0.00000000000E+00 0. -1.
          1    1    1    2  501    0 -0.25487273385E+02  0.35226913745E+01  0.12199499554E+02  0.28475221659E+02  0.00000000000E+00 0. -1.
<scales pt_clust_5="13000.00000" pt_clust_6="13000.00000" pt_clust_7="13000.00000" pt_clust_8="13000.00000" pt_clust_9="25.72956"></scales>
<clustering>
<clus scale="   25.730">  2  9  1 -1</clus>
<clus scale="   80.011">  5  6 -1 -1</clus>
<clus scale="   91.137">  7  8 -1 -1</clus>
<clus scale="  184.037">  1  5  2 -1</clus>
<clus scale="   25.730">  2  5  1 -1</clus>
</clustering>
</event>
<event>
 9    2  0.9254368E-005  0.2735092E+03  0.7546771E-02  0.1143519E+00
         21   -1    0    0  501  502  0.00000000000E+00  0.00000000000E+00  0.44176410947E+03  0.44176410947E+03  0.00000000000E+00 0.  1.
         -1   -1    0    0    0  501 -0.00000000000E+00 -0.00000000000E+00 -0.32355615197E+03  0.32355615197E+03  0.00000000000E+00 0.  1.
         24    2    1    2    0    0  0.30973460246E+02  0.30121901921E+02  0.17431353993E+03  0.19649715212E+03  0.79744820366E+02 0.  0.
         23    2    1    2    0    0 -0.28630392334E+03 -0.29393394303E+02 -0.97355386643E+02  0.31018103529E+03  0.62452343433E+02 0.  0.
        -11    1    3    3    0    0  0.14352857404E+02  0.44362761630E+02  0.16705163970E+03  0.17343675926E+03  0.00000000000E+00 0.  1.
         12    1    3    3    0    0  0.16620602842E+02 -0.14240859708E+02  0.72619002229E+01  0.23060392861E+02  0.00000000000E+00 0. -1.
        -11    1    4    4    0    0 -0.25389877830E+03 -0.55382710804E+01 -0.79080792256E+02  0.26598690527E+03  0.00000000000E+00 0.  1.
         11    1    4    4    0    0 -0.32405145034E+02 -0.23855123222E+02 -0.18274594387E+02  0.44194130025E+02  0.00000000000E+00 0. -1.
         -2    1    1    2    0  502  0.25533046309E+03 -0.72850761855E+00  0.41249804224E+02  0.25864207402E+03  0.00000000000E+00 0.  1.
<scales pt_clust_5="13000.00000" pt_clust_6="13000.00000" pt_clust_7="13000.00000" pt_clust_8="13000.00000" pt_clust_9="266.28367"></scales>
<clustering>
<clus scale="   62.452">  7  8 -1 -1</clus>
<clus scale="   79.745">  5  6 -1 -1</clus>
<clus scale="   90.697">  2  5  1 -1</clus>
<clus scale="  266.284">  1  9  2 -1</clus>
<clus scale="  266.284">  1  5  2 -1</clus>
</clustering>
</event>
<event>
 9    2  0.9254368E-005  0.1249386E+03  0.7546771E-02  0.1256088E+00
         21   -1    0    0  501  502  0.00000000000E+00  0.00000000000E+00  0.58575250164E+02  0.58575250164E+02  0.00000000000E+00 0.  1.
         -1   -1    0    0    0  501 -0.00000000000E+00 -0.00000000000E+00 -0.36240588666E+03  0.36240588666E+03  0.00000000000E+00 0.  1.
         24    2    1    2    0    0 -0.16484358311E+02  0.64672842564E+01 -0.64854162635E+02  0.10455058383E+03  0.80069983979E+02 0.  0.
         23    2    1    2    0    0 -0.66859449468E+02  0.21791016980E+02 -0.12769234291E+03  0.17455426996E+03  0.96014708873E+02 0.  0.
        -13    1    3    3    0    0  0.36754094901E+01  0.35163681365E+02 -0.59305475122E+02  0.69044424116E+02  0.00000000000E+00 0.  1.
         14    1    3    3    0    0 -0.20159767801E+02 -0.28696397109E+02 -0.55486875130E+01  0.35506159719E+02  0.00000000000E+00 0. -1.
        -11    1    4    4    0    0  0.17939935380E+02  0.26165876852E+02 -0.51401062938E+02  0.60403341497E+02  0.00000000000E+00 0. -1.
         11    1    4    4    0    0 -0.84799384848E+02 -0.43748598726E+01 -0.76291279970E+02  0.11415092846E+03  0.00000000000E+00 0.  1.
         -2    1    1    2    0  502  0.83343807779E+02 -0.28258301236E+02 -0.11128413095E+03  0.14187628303E+03  0.00000000000E+00 0.  1.
<scales pt_clust_5="13000.00000" pt_clust_6="13000.00000" pt_clust_7="13000.00000" pt_clust_8="13000.00000" pt_clust_9="79.94263"></scales>
<clustering>
<clus scale="   80.070">  5  6 -1 -1</clus>
<clus scale="   82.005">  2  5  1 -1</clus>
<clus scale="   79.943">  1  9  2 -1</clus>
<clus scale="   96.015">  7  8 -1 -1</clus>
<clus scale="   79.943">  1  5  2 -1</clus>
</clustering>
</event>
<event>
 9    2  0.9254368E-005  0.1061634E+03  0.7546771E-02  0.1272673E+00
         21   -1    0    0  501  502  0.00000000000E+00  0.00000000000E+00  0.15938987327E+03  0.15938987327E+03  0.00000000000E+00 0. -1.
          2   -1    0    0  502    0 -0.00000000000E+00 -0.00000000000E+00 -0.32706224624E+03  0.32706224624E+03  0.00000000000E+00 0. -1.
         24    2    1    2    0    0  0.19688551193E+02 -0.41949207914E+02 -0.13561142645E+03  0.16311333792E+03  0.77898183104E+02 0.  0.
         23    2    1    2    0    0 -0.70220841071E+02  0.40513784178E+02 -0.15147742688E+03  0.19366276784E+03  0.89372946495E+02 0.  0.
        -13    1    3    3    0    0 -0.60062580910E+01 -0.59291095304E+02 -0.86736112088E+02  0.10523622123E+03  0.00000000000E+00 0.  1.
         14    1    3    3    0    0  0.25694809284E+02  0.17341887390E+02 -0.48875314360E+02  0.57877116688E+02  0.00000000000E+00 0. -1.
        -13    1    4    4    0    0 -0.40652960232E+02  0.63293327139E+01 -0.14152261403E+03  0.14738172855E+03  0.00000000000E+00 0.  1.
         13    1    4    4    0    0 -0.29567880839E+02  0.34184451465E+02 -0.99548128502E+01  0.46281039294E+02  0.00000000000E+00 0. -1.
          1    1    1    2  501    0  0.50532289878E+02  0.14354237354E+01  0.11941648036E+03  0.12967601375E+03  0.00000000000E+00 0. -1.
<scales pt_clust_5="13000.00000" pt_clust_6="13000.00000" pt_clust_7="13000.00000" pt_clust_8="13000.00000" pt_clust_9="50.55267"></scales>
<clustering>
<clus scale="   50.553">  1  9  2 -1</clus>
<clus scale="   77.898">  5  6 -1 -1</clus>
<clus scale="   89.373">  7  8 -1 -1</clus>
<clus scale="   96.702">  2  5  1 -1</clus>
<clus scale="   50.553">  1  5  2 -1</clus>
</clustering>
</event>
<event>
 9    2  0.9254368E-005  0.1065120E+03  0.7546771E-02  0.1272722E+00
         21   -1    0    0  501  502  0.00000000000E+00  0.00000000000E+00  0.36419781000E+03  0.36419781000E+03  0.00000000000E+00 0.  1.
         -1   -1    0    0    0  501 -0.00000000000E+00 -0.00000000000E+00 -0.49139672338E+02  0.49139672338E+02  0.00000000000E+00 0.  1.
         23    2    1    2    0    0 -0.58818508599E+02 -0.23478114636E+02  0.52267370063E+02  0.12355833139E+03  0.92325210329E+02 0.  0.
         24    2    1    2    0    0  0.31816325486E+02  0.13132787439E+02  0.14912765413E+03  0.17249553295E+03  0.79566971710E+02 0.  0.
        -13    1    4    4    0    0  0.24231226499E+02  0.11408377428E+02  0.15825381006E+03  0.16050411774E+03  0.00000000000E+00 0.  1.
         14    1    4    4    0    0  0.75850989874E+01  0.17244100106E+01 -0.91261559317E+01  0.11991415205E+02  0.00000000000E+00 0. -1.
        -13    1    3    3    0    0  0.13442208115E+02 -0.26543239882E+02 -0.63959866250E+01  0.30432633592E+02  0.00000000000E+00 0.  1.
         13    1    3    3    0    0 -0.72260716714E+02  0.30651252456E+01  0.58663356688E+02  0.93125697800E+02  0.00000000000E+00 0. -1.
         -2    1    1    2    0  502  0.27002183113E+02  0.10345327198E+02  0.11366311347E+03  0.11728361800E+03  0.00000000000E+00 0.  1.
<scales pt_clust_5="13000.00000" pt_clust_6="13000.00000" pt_clust_7="13000.00000" pt_clust_8="13000.00000" pt_clust_9="28.91615"></scales>
<clustering>
<clus scale="   28.916">  1  9  2 -1</clus>
<clus scale="   79.567">  5  6 -1 -1</clus>
<clus scale="   92.325">  7  8 -1 -1</clus>
<clus scale="   95.665">  1  5  2 -1</clus>
<clus scale="   28.916">  1  5  2 -1</clus>
</clustering>
</event>
<event>
 9    2  0.9254368E-005  0.1373151E+03  0.7546771E-02  0.1232060E+00
          2   -1    0    0  502    0 -0.00000000000E+00  0.00000000000E+00  0.15664213593E+03  0.15664213593E+03  0.00000000000E+00 0. -1.
         21   -1    0    0  501  502  0.00000000000E+00 -0.00000000000E+00 -0.26077091166E+03  0.26077091166E+03  0.00000000000E+00 0.  1.
         24    2    1    2    0    0 -0.78304957592E+00 -0.60458150008E+02  0.23863142063E+02  0.10310286736E+03  0.80030935517E+02 0.  0.
         23    2    1    2    0    0  0.10246518155E+03  0.30369140793E+02 -0.15070096304E+03  0.20586523948E+03  0.90820253349E+02 0.  0.
        -11    1    3    3    0    0 -0.21802148661E+02  0.11710436037E+02  0.20410565500E+01  0.24832114494E+02  0.00000000000E+00 0.  1.
         12    1    3    3    0    0  0.21019099086E+02 -0.72168586044E+02  0.21822085513E+02  0.78270752866E+02  0.00000000000E+00 0. -1.
        -13    1    4    4    0    0 -0.46010963167E+01  0.32500033732E+02 -0.41598554713E+02  0.52989263386E+02  0.00000000000E+00 0. -1.
         13    1    4    4    0    0  0.10706627787E+03 -0.21308929396E+01 -0.10910240833E+03  0.15287597609E+03  0.00000000000E+00 0.  1.
          1    1    1    2  501    0 -0.10168213198E+03  0.30089009215E+02  0.22709045250E+02  0.10844494076E+03  0.00000000000E+00 0. -1.
<scales pt_clust_5="13000.00000" pt_clust_6="13000.00000" pt_clust_7="13000.00000" pt_clust_8="13000.00000" pt_clust_9="102.99098"></scales>
<clustering>
<clus scale="   80.031">  5  6 -1 -1</clus>
<clus scale="   90.820">  7  8 -1 -1</clus>
<clus scale="  100.303">  1  5  2 -1</clus>
<clus scale="  102.991">  2  9  1 -1</clus>
<clus scale="  102.991">  2  5  1 -1</clus>
</clustering>
</event>
<event>
 9    2  0.9254368E-005  0.2142741E+03  0.7546771E-02  0.1139612E+00
         21   -1    0    0  501  502  0.00000000000E+00  0.00000000000E+00  0.37239865003E+03  0.37239865003E+03  0.00000000000E+00 0.  1.
         -1   -1    0    0    0  501 -0.00000000000E+00 -0.00000000000E+00 -0.15004310013E+03  0.15004310013E+03  0.00000000000E+00 0.  1.
         24    2    1    2    0    0  0.14105847963E+03 -0.12679566697E+03  0.62905305076E+02  0.21456153203E+03  0.78134101287E+02 0.  0.
         23    2    1    2    0    0 -0.11635495682E+03  0.15920851469E+03  0.11426500475E+03  0.24703153155E+03  0.95300887418E+02 0.  0.
        -13    1    3    3    0    0  0.10566381386E+03 -0.12260912741E+03  0.27228149246E+02  0.16413169040E+03  0.00000000000E+00 0.  1.
         14    1    3    3    0    0  0.35394665776E+02 -0.41865395581E+01  0.35677155830E+02  0.50429841631E+02  0.00000000000E+00 0. -1.
        -11    1    4    4    0    0 -0.13347844024E+02  0.22360057735E+02 -0.17117104650E+02  0.31162997186E+02  0.00000000000E+00 0. -1.
         11    1    4    4    0    0 -0.10300711279E+03  0.13684845696E+03  0.13138210940E+03  0.21586853436E+03  0.00000000000E+00 0.  1.
         -2    1    1    2    0  502 -0.24703522814E+02 -0.32412847720E+02  0.45185240077E+02  0.60848686572E+02  0.00000000000E+00 0.  1.
<scales pt_clust_5="13000.00000" pt_clust_6="13000.00000" pt_clust_7="13000.00000" pt_clust_8="13000.00000" pt_clust_9="40.75361"></scales>
<clustering>
<clus scale="   40.754">  1  9  2 -1</clus>
<clus scale="   78.134">  5  6 -1 -1</clus>
<clus scale="   95.301">  7  8 -1 -1</clus>
<clus scale="  207.210">  2  5  1 -1</clus>
<clus scale="   40.754">  1  5  2 -1</clus>
</clustering>
</event>
<event>
 9    2  0.9254368E-005  0.1982822E+03  0.7546771E-02  0.1188674E+00
         21   -1    0    0  501  502  0.00000000000E+00  0.00000000000E+00  0.18732612196E+03  0.18732612196E+03  0.00000000000E+00 0.  1.
         -3   -1    0    0    0  501 -0.00000000000E+00 -0.00000000000E+00 -0.33694784086E+03  0.33694784086E+03  0.00000000000E+00 0.  1.
         24    2    1    2    0    0 -0.32571384365E+01  0.12151609274E+02 -0.10678753620E+02  0.84784643407E+02  0.83163269657E+02 0.  0.
         23    2    1    2    0    0  0.11932984596E+03 -0.14051582635E+03 -0.16591625617E+03  0.26433851560E+03  0.91445815506E+02 0.  0.
        -11    1    3    3    0    0  0.19569834825E+02 -0.11354451749E+02 -0.36584121203E+02  0.43015112853E+02  0.00000000000E+00 0.  1.
         12    1    3    3    0    0 -0.22826973261E+02  0.23506061023E+02  0.25905367583E+02  0.41769530554E+02  0.00000000000E+00 0. -1.
        -13    1    4    4    0    0  0.50857149595E+02 -0.31113501938E+02 -0.76335789234E+01  0.60106332403E+02  0.00000000000E+00 0.  1.
         13    1    4    4    0    0  0.68472696360E+02 -0.10940232442E+03 -0.15828267725E+03  0.20423218319E+03  0.00000000000E+00 0. -1.
         -4    1    1    2    0  502 -0.11607270752E+03  0.12836421708E+03  0.26973290892E+02  0.17515080382E+03  0.00000000000E+00 0.  1.
<scales pt_clust_5="13000.00000" pt_clust_6="13000.00000" pt_clust_7="13000.00000" pt_clust_8="13000.00000" pt_clust_9="175.93606"></scales>
<clustering>
<clus scale="   83.163">  5  6 -1 -1</clus>
<clus scale="   84.109">  2  5  1 -1</clus>
<clus scale="   91.446">  7  8 -1 -1</clus>
<clus scale="  175.936">  1  9  2 -1</clus>
<clus scale="  175.936">  1  5  2 -1</clus>
</clustering>
</event>
<event>
 9    2  0.9254368E-005  0.2770209E+03  0.7546771E-02  0.1097327E+00
         -1   -1    0    0    0  501 -0.00000000000E+00  0.00000000000E+00  0.79103422948E+03  0.79103422948E+03  0.00000000000E+00 0.  1.
         21   -1    0    0  501  502  0.00000000000E+00 -0.00000000000E+00 -0.10507590765E+03  0.10507590765E+03  0.00000000000E+00 0.  1.
         24    2    1    2    0    0 -0.71726751113E+02  0.50129059598E+02  0.22376192185E+03  0.25325360490E+03  0.80064606928E+02 0.  0.
         23    2    1    2    0    0 -0.79584144185E+02  0.99336999205E+02  0.38678068543E+03  0.41719612416E+03  0.90839594762E+02 0.  0.
        -11    1    3    3    0    0 -0.59974714179E+02  0.19763096954E+02  0.20742537808E+03  0.21682443085E+03  0.00000000000E+00 0.  1.
         12    1    3    3    0    0 -0.11752036934E+02  0.30365962644E+02  0.16336543769E+02  0.36429174046E+02  0.00000000000E+00 0. -1.
        -13    1    4    4    0    0 -0.54793572715E+02  0.89227660435E+02  0.37232859635E+03  0.38677188969E+03  0.00000000000E+00 0.  1.
         13    1    4    4    0    0 -0.24790571471E+02  0.10109338770E+02  0.14452089083E+02  0.30424234470E+02  0.00000000000E+00 0. -1.
         -2    1    1    2    0  502  0.15131089530E+03 -0.14946605880E+03  0.75415714561E+02  0.22566040808E+03  0.00000000000E+00 0.  1.
<scales pt_clust_5="13000.00000" pt_clust_6="13000.00000" pt_clust_7="13000.00000" pt_clust_8="13000.00000" pt_clust_9="212.68542"></scales>
<clustering>
<clus scale="   80.065">  5  6 -1 -1</clus>
<clus scale="   90.840">  7  8 -1 -1</clus>
<clus scale="   96.548">  5  7 -1 -1</clus>
<clus scale="  212.685">  2  9  1 -1</clus>
<clus scale="  212.685">  2  5  1 -1</clus>
</clustering>
</event>
<event>
 9    2  0.9254368E-005  0.1955794E+03  0.7546771E-02  0.1154799E+00
          2   -1    0    0  502    0 -0.00000000000E+00  0.00000000000E+00  0.10546833085E+04  0.10546833085E+04  0.00000000000E+00 0. -1.
         21   -1    0    0  501  502  0.00000000000E+00 -0.00000000000E+00 -0.75851158390E+02  0.75851158390E+02  0.00000000000E+00 0. -1.
         23    2    1    2    0    0 -0.12795786909E+03 -0.35898324671E+02  0.25566696118E+03  0.30286225538E+03  0.93263308539E+02 0.  0.
         24    2    1    2    0    0  0.24383264692E+03  0.29353077691E+02  0.33845901738E+03  0.42584060148E+03  0.80434747123E+02 0.  0.
        -13    1    4    4    0    0  0.11906821288E+03  0.52732874739E+02  0.15028739395E+03  0.19885747704E+03  0.00000000000E+00 0.  1.
         14    1    4    4    0    0  0.12476443404E+03 -0.23379797049E+02  0.18817162343E+03  0.22698312443E+03  0.00000000000E+00 0. -1.
        -11    1    3    3    0    0 -0.88738184654E+02  0.24467523010E+01  0.82399571993E+02  0.12112035947E+03  0.00000000000E+00 0.  1.
         11    1    3    3    0    0 -0.39219684434E+02 -0.38345076972E+02  0.17326738918E+03  0.18174189591E+03  0.00000000000E+00 0. -1.
          1    1    1    2  501    0 -0.11587477783E+03  0.65452469804E+01  0.38470617159E+03  0.40183161007E+03  0.00000000000E+00 0. -1.
<scales pt_clust_5="13000.00000" pt_clust_6="13000.00000" pt_clust_7="13000.00000" pt_clust_8="13000.00000" pt_clust_9="116.05954"></scales>
<clustering>
<clus scale="   80.435">  5  6 -1 -1</clus>
<clus scale="   93.263">  7  8 -1 -1</clus>
<clus scale="  116.060">  2  9  1 -1</clus>
<clus scale="  189.797">  2  5  1 -1</clus>
<clus scale="  116.060">  2  5  1 -1</clus>
</clustering>
</event>
<event>
 9    2  0.9254368E-005  0.1192098E+03  0.7546771E-02  0.1246656E+00
         21   -1    0    0  501  502  0.00000000000E+00  0.00000000000E+00  0.93182434538E+02  0.93182434538E+02  0.00000000000E+00 0.  1.
          2   -1    0    0  502    0 -0.00000000000E+00 -0.00000000000E+00 -0.22609814926E+03  0.22609814926E+03  0.00000000000E+00 0. -1.
         23    2    1    2    0    0  0.70039500251E+02  0.13513237503E+02 -0.10201878373E+03  0.15495710396E+03  0.92280727405E+02 0.  0.
         24    2    1    2    0    0 -0.87001401998E+02  0.14675467158E+02 -0.57130714773E+01  0.12289238088E+03  0.85353879853E+02 0.  0.
        -11    1    4    4    0    0 -0.70465246586E+01  0.29448360683E+02  0.21516405903E+02  0.37145863561E+02  0.00000000000E+00 0.  1.
         12    1    4    4    0    0 -0.79954877340E+02 -0.14772893525E+02 -0.27229477381E+02  0.85746517316E+02  0.00000000000E+00 0. -1.
        -13    1    3    3    0    0  0.22485733316E+02 -0.37586687850E+02 -0.57043596339E+02  0.71918976561E+02  0.00000000000E+00 0.  1.
         13    1    3    3    0    0  0.47553766935E+02  0.51099925353E+02 -0.44975187387E+02  0.83038127395E+02  0.00000000000E+00 0. -1.
          1    1    1    2  501    0  0.16961901747E+02 -0.28188704661E+02 -0.25183859523E+02  0.41431098970E+02  0.00000000000E+00 0. -1.
<scales pt_clust_5="13000.00000" pt_clust_6="13000.00000" pt_clust_7="13000.00000" pt_clust_8="13000.00000" pt_clust_9="32.89848"></scales>
<clustering>
<clus scale="   32.898">  1  9  2 -1</clus>
<clus scale="   85.354">  5  6 -1 -1</clus>
<clus scale="   92.281">  7  8 -1 -1</clus>
<clus scale="  113.932">  1  5  2 -1</clus>
<clus scale="   32.898">  1  5  2 -1</clus>
</clustering>
</event>
<event>
 9    2  0.9254368E-005  0.1135320E+03  0.7546771E-02  0.1257357E+00
          2   -1    0    0  502    0 -0.00000000000E+00  0.00000000000E+00  0.87197674603E+02  0.87197674603E+02  0.00000000000E+00 0. -1.
         21   -1    0    0  501  502  0.00000000000E+00 -0.00000000000E+00 -0.41888563717E+03  0.41888563717E+03  0.00000000000E+00 0. -1.
         23    2    1    2    0    0  0.98842343595E+01 -0.84561134064E+02 -0.20349562056E+02  0.12599490536E+03  0.90621895911E+02 0.  0.
         24    2    1    2    0    0 -0.43683467376E+02  0.39738457954E+02 -0.49575951454E+02  0.11237393130E+03  0.81747997597E+02 0.  0.
        -11    1    4    4    0    0 -0.80627326925E+01  0.30765216328E+02  0.17202912270E+02  0.36158628082E+02  0.00000000000E+00 0.  1.
         12    1    4    4    0    0 -0.35620734684E+02  0.89732416255E+01 -0.66778863724E+02  0.76215303220E+02  0.00000000000E+00 0. -1.
        -13    1    3    3    0    0  0.22678308683E+02  0.12858551514E+02 -0.50500291239E+01  0.26554676160E+02  0.00000000000E+00 0.  1.
         13    1    3    3    0    0 -0.12794074324E+02 -0.97419685579E+02 -0.15299532932E+02  0.99440229203E+02  0.00000000000E+00 0. -1.
          1    1    1    2  501    0  0.33799233017E+02  0.44822676111E+02 -0.26176244906E+03  0.26771447511E+03  0.00000000000E+00 0. -1.
<scales pt_clust_5="13000.00000" pt_clust_6="13000.00000" pt_clust_7="13000.00000" pt_clust_8="13000.00000" pt_clust_9="56.13787"></scales>
<clustering>
<clus scale="   56.138">  2  9  1 -1</clus>
<clus scale="   81.748">  5  6 -1 -1</clus>
<clus scale="   90.622">  7  8 -1 -1</clus>
<clus scale="  106.583">  2  5  1 -1</clus>
<clus scale="   56.138">  2  5  1 -1</clus>
</clustering>
</event>
<event>
 9    2  0.9254368E-005  0.1661579E+03  0.7546771E-02  0.1202789E+00
          2   -1    0    0  502    0 -0.00000000000E+00  0.00000000000E+00  0.88171868719E+03  0.88171868719E+03  0.00000000000E+00 0. -1.
         21   -1    0    0  501  502  0.00000000000E+00 -0.00000000000E+00 -0.49998036247E+02  0.49998036247E+02  0.00000000000E+00 0. -1.
         24    2    1    2    0    0 -0.61295978177E+02 -0.31143794547E+02  0.21831711383E+03  0.24223640570E+03  0.79303096882E+02 0.  0.
         23    2    1    2    0    0 -0.11577467942E+02 -0.10994313823E+03  0.38699806306E+03  0.41293827676E+03  0.92352521306E+02 0.  0.
        -11    1    3    3    0    0 -0.78911214511E+02 -0.23329757759E+02  0.19702633480E+03  0.21351963370E+03  0.00000000000E+00 0.  1.
         12    1    3    3    0    0  0.17615236335E+02 -0.78140367880E+01  0.21290779033E+02  0.28716771996E+02  0.00000000000E+00 0. -1.
        -13    1    4    4    0    0  0.80133152960E+01 -0.23496623185E+02  0.11938427392E+02  0.27546879528E+02  0.00000000000E+00 0.  1.
         13    1    4    4    0    0 -0.19590783238E+02 -0.86446515044E+02  0.37505963567E+03  0.38539139723E+03  0.00000000000E+00 0. -1.
          1    1    1    2  501    0  0.72873446118E+02  0.14108693278E+03  0.22640547405E+03  0.27654204098E+03  0.00000000000E+00 0. -1.
<scales pt_clust_5="13000.00000" pt_clust_6="13000.00000" pt_clust_7="13000.00000" pt_clust_8="13000.00000" pt_clust_9="138.12839"></scales>
<clustering>
<clus scale="   79.303">  5  6 -1 -1</clus>
<clus scale="   92.353">  7  8 -1 -1</clus>
<clus scale="  104.958">  1  5  2 -1</clus>
<clus scale="  138.128">  2  9  1 -1</clus>
<clus scale="  138.128">  2  5  1 -1</clus>
</clustering>
</event>
<event>
 9    2  0.9254368E-005  0.1179425E+03  0.7546771E-02  0.1253619E+00
          2   -1    0    0  502    0 -0.00000000000E+00  0.00000000000E+00  0.52258281758E+03  0.52258281758E+03  0.00000000000E+00 0. -1.
         21   -1    0    0  501  502  0.00000000000E+00 -0.00000000000E+00 -0.52472324563E+02  0.52472324563E+02  0.00000000000E+00 0. -1.
         23    2    1    2    0    0  0.15163649329E+02 -0.45206382067E+02  0.83048432448E+02  0.13182126690E+03  0.90588360373E+02 0.  0.
         24    2    1    2    0    0 -0.18608745467E+02 -0.63383741435E+02  0.16593898985E+03  0.19686200994E+03  0.82795643107E+02 0.  0.
        -11    1    4    4    0    0 -0.39236005236E+02 -0.54029220032E+02  0.64190473146E+02  0.92623094133E+02  0.00000000000E+00 0.  1.
         12    1    4    4    0    0  0.20627259768E+02 -0.93545214028E+01  0.10174851670E+03  0.10423891580E+03  0.00000000000E+00 0. -1.
        -13    1    3    3    0    0 -0.73312284575E+01 -0.48642672931E+02  0.37640119269E+01  0.49335832073E+02  0.00000000000E+00 0. -1.
         13    1    3    3    0    0  0.22494877787E+02  0.34362908639E+01  0.79284420521E+02  0.82485434829E+02  0.00000000000E+00 0.  1.
          1    1    1    2  501    0  0.34450961380E+01  0.10859012350E+03  0.22112307072E+03  0.24637186531E+03  0.00000000000E+00 0. -1.
<scales pt_clust_5="13000.00000" pt_clust_6="13000.00000" pt_clust_7="13000.00000" pt_clust_8="13000.00000" pt_clust_9="83.99603"></scales>
<clustering>
<clus scale="   82.796">  5  6 -1 -1</clus>
<clus scale="   90.588">  7  8 -1 -1</clus>
<clus scale="  102.371">  1  7  2 -1</clus>
<clus scale="   83.996">  2  9  1 -1</clus>
<clus scale="   83.996">  2  5  1 -1</clus>
</clustering>
</event>
<event>
 9    2  0.9254368E-005  0.1162464E+03  0.7546771E-02  0.1250966E+00
         21   -1    0    0  501  502  0.00000000000E+00  0.00000000000E+00  0.69570334762E+02  0.69570334762E+02  0.00000000000E+00 0. -1.
          2   -1    0    0  502    0 -0.00000000000E+00 -0.00000000000E+00 -0.38389634853E+03  0.38389634853E+03  0.00000000000E+00 0. -1.
         23    2    1    2    0    0  0.61484294028E+02 -0.61977626319E+02 -0.30091447299E+03  0.32436125137E+03  0.83899682709E+02 0.  0.
         24    2    1    2    0    0 -0.40188068485E+02  0.39003016974E+02 -0.13902162267E+02  0.97774894001E+02  0.78932525613E+02 0.  0.
        -13    1    4    4    0    0 -0.44453545805E+02  0.60351218075E+02 -0.93865424526E+01  0.75541342568E+02  0.00000000000E+00 0.  1.
         14    1    4    4    0    0  0.42654773203E+01 -0.21348201101E+02 -0.45156198144E+01  0.22233551433E+02  0.00000000000E+00 0. -1.
        -11    1    3    3    0    0  0.26410937373E+02 -0.78029048146E+02 -0.21188723711E+03  0.22733735112E+03  0.00000000000E+00 0.  1.
         11    1    3    3    0    0  0.35073356654E+02  0.16051421827E+02 -0.89027235882E+02  0.97023900244E+02  0.00000000000E+00 0. -1.
          1    1    1    2  501    0 -0.21296225543E+02  0.22974609345E+02  0.49062148907E+00  0.31330537920E+02  0.00000000000E+00 0. -1.
<scales pt_clust_5="13000.00000" pt_clust_6="13000.00000" pt_clust_7="13000.00000" pt_clust_8="13000.00000" pt_clust_9="31.32670"></scales>
<clustering>
<clus scale="   31.327">  1  9  2 -1</clus>
<clus scale="   78.933">  5  6 -1 -1</clus>
<clus scale="   83.900">  7  8 -1 -1</clus>
<clus scale="  112.714">  1  5  2 -1</clus>
<clus scale="   31.327">  1  5  2 -1</clus>
</clustering>
</event>
<event>
 9    2  0.9254368E-005  0.1555810E+03  0.7546771E-02  0.1195209E+00
         21   -1    0    0  501  502  0.00000000000E+00  0.00000000000E+00  0.20025954240E+03  0.20025954240E+03  0.00000000000E+00 0. -1.
          2   -1    0    0  502    0 -0.00000000000E+00 -0.00000000000E+00 -0.18009132834E+03  0.18009132834E+03  0.00000000000E+00 0. -1.
         23    2    1    2    0    0 -0.51554790074E+02  0.12899082752E+03 -0.47910718157E+02  0.17186032474E+03  0.89129144166E+02 0.  0.
         24    2    1    2    0    0  0.71740623988E+02 -0.90851365339E+02  0.17575416083E+02  0.14206245249E+03  0.80449719965E+02 0.  0.
        -13    1    4    4    0    0  0.78713599993E+02 -0.98839762137E+02  0.25404413823E+02  0.12888178166E+03  0.00000000000E+00 0.  1.
         14    1    4    4    0    0 -0.69729760051E+01  0.79883967979E+01 -0.78289977406E+01  0.13180670825E+02  0.00000000000E+00 0. -1.
        -11    1    3    3    0    0 -0.76458503657E+02  0.91685198935E+02 -0.42309447957E+02  0.12665767988E+03  0.00000000000E+00 0.  1.
         11    1    3    3    0    0  0.24903713583E+02  0.37305628588E+02 -0.56012702001E+01  0.45202644861E+02  0.00000000000E+00 0. -1.
          1    1    1    2  501    0 -0.20185833914E+02 -0.38139462184E+02  0.50503516128E+02  0.66428093513E+02  0.00000000000E+00 0. -1.
<scales pt_clust_5="13000.00000" pt_clust_6="13000.00000" pt_clust_7="13000.00000" pt_clust_8="13000.00000" pt_clust_9="43.15190"></scales>
<clustering>
<clus scale="   43.152">  1  9  2 -1</clus>
<clus scale="   80.450">  5  6 -1 -1</clus>
<clus scale="   89.129">  7  8 -1 -1</clus>
<clus scale="  150.777">  1  5  2 -1</clus>
<clus scale="   43.152">  1  5  2 -1</clus>
</clustering>
</event>
<event>
 9    2  0.9254368E-005  0.2202569E+03  0.7546771E-02  0.1134948E+00
         21   -1    0    0  501  502  0.00000000000E+00  0.00000000000E+00  0.11243470612E+03  0.11243470612E+03  0.00000000000E+00 0.  1.
          2   -1    0    0  502    0 -0.00000000000E+00 -0.00000000000E+00 -0.15956602867E+04  0.15956602867E+04  0.00000000000E+00 0. -1.
         24    2    1    2    0    0  0.96999138980E+02  0.16664277122E+03 -0.12132751078E+04  0.12307810126E+04  0.74878352491E+02 0.  0.
         23    2    1    2    0    0 -0.69590657282E+02 -0.26576566819E+03 -0.18365037620E+03  0.34305944489E+03  0.92130733624E+02 0.  0.
        -13    1    3    3    0    0  0.26627530941E+02  0.81852203949E+02 -0.34653777475E+03  0.35706755387E+03  0.00000000000E+00 0.  1.
         14    1    3    3    0    0  0.70371608039E+02  0.84790567269E+02 -0.86673733305E+03  0.87371345876E+03  0.00000000000E+00 0. -1.
        -13    1    4    4    0    0 -0.37401954296E+02 -0.21156837012E+02 -0.30026507980E+02  0.52422410465E+02  0.00000000000E+00 0. -1.
         13    1    4    4    0    0 -0.32188702986E+02 -0.24460883118E+03 -0.15362386822E+03  0.29063703442E+03  0.00000000000E+00 0.  1.
          1    1    1    2  501    0 -0.27408481698E+02  0.99122896976E+02 -0.86300096542E+02  0.13425453526E+03  0.00000000000E+00 0. -1.
<scales pt_clust_5="13000.00000" pt_clust_6="13000.00000" pt_clust_7="13000.00000" pt_clust_8="13000.00000" pt_clust_9="102.84247"></scales>
<clustering>
<clus scale="   74.878">  5  6 -1 -1</clus>
<clus scale="   92.131">  7  8 -1 -1</clus>
<clus scale="  102.842">  1  9  2 -1</clus>
<clus scale="  213.616">  2  5  1 -1</clus>
<clus scale="  102.842">  1  5  2 -1</clus>
</clustering>
</event>
<event>
 9    2  0.9254368E-005  0.1009685E+03  0.7546771E-02  0.1283815E+00
          2   -1    0    0  502    0 -0.00000000000E+00  0.00000000000E+00  0.80082877423E+03  0.80082877423E+03  0.00000000000E+00 0. -1.
         21   -1    0    0  501  502  0.00000000000E+00 -0.00000000000E+00 -0.24670241344E+02  0.24670241344E+02  0.00000000000E+00 0. -1.
         24    2    1    2    0    0  0.43948312480E+02  0.14635796644E+02  0.56758789514E+03  0.57518501427E+03  0.80846281404E+02 0.  0.
         23    2    1    2    0    0 -0.15926173523E+02 -0.70907412009E+01  0.96286470766E+02  0.13434028753E+03  0.92045134506E+02 0.  0.
        -13    1    3    3    0    0  0.23672802836E+02 -0.64824618955E+01  0.41008834156E+02  0.47792764987E+02  0.00000000000E+00 0.  1.
         14    1    3    3    0    0  0.20275509644E+02  0.21118258540E+02  0.52657906099E+03  0.52739224929E+03  0.00000000000E+00 0. -1.
        -11    1    4    4    0    0  0.25319067905E+02 -0.31504243972E+02  0.66774914525E+02  0.78054223445E+02  0.00000000000E+00 0.  1.
         11    1    4    4    0    0 -0.41245241428E+02  0.24413502771E+02  0.29511556241E+02  0.56286064081E+02  0.00000000000E+00 0. -1.
          1    1    1    2  501    0 -0.28022138956E+02 -0.75450554434E+01  0.11228416698E+03  0.11597371378E+03  0.00000000000E+00 0. -1.
<scales pt_clust_5="13000.00000" pt_clust_6="13000.00000" pt_clust_7="13000.00000" pt_clust_8="13000.00000" pt_clust_9="29.02015"></scales>
<clustering>
<clus scale="   29.020">  2  9  1 -1</clus>
<clus scale="   80.846">  5  6 -1 -1</clus>
<clus scale="   90.876">  1  5  2 -1</clus>
<clus scale="   92.045">  7  8 -1 -1</clus>
<clus scale="   29.020">  2  5  1 -1</clus>
</clustering>
</event>
<event>
 9    2  0.9254368E-005  0.1343579E+03  0.7546771E-02  0.1224983E+00
          2   -1    0    0  502    0 -0.00000000000E+00  0.00000000000E+00  0.80717621387E+03  0.80717621387E+03  0.00000000000E+00 0. -1.
         21   -1    0    0  501  502  0.00000000000E+00 -0.00000000000E+00 -0.41572734037E+02  0.41572734037E+02  0.00000000000E+00 0.  1.
         23    2    1    2    0    0 -0.10906557613E+03  0.52712555425E+01  0.44451604269E+03  0.46709327255E+03  0.93051206484E+02 0.  0.
         24    2    1    2    0    0  0.65445467480E+02 -0.11495197397E+02  0.62982675617E+02  0.11981694778E+03  0.77291880370E+02 0.  0.
        -13    1    4    4    0    0  0.40357450906E+02  0.21540646063E+02  0.16535501846E+01  0.45776167431E+02  0.00000000000E+00 0.  1.
         14    1    4    4    0    0  0.25088016574E+02 -0.33035843460E+02  0.61329125432E+02  0.74040780351E+02  0.00000000000E+00 0. -1.
        -11    1    3    3    0    0 -0.62534025294E+02 -0.34602218288E+02  0.14852623217E+03  0.16482675594E+03  0.00000000000E+00 0.  1.
         11    1    3    3    0    0 -0.46531550836E+02  0.39873473831E+02  0.29598981052E+03  0.30226651662E+03  0.00000000000E+00 0. -1.
          1    1    1    2  501    0  0.43620108650E+02  0.62239418547E+01  0.25810476153E+03  0.26183872757E+03  0.00000000000E+00 0. -1.
<scales pt_clust_5="13000.00000" pt_clust_6="13000.00000" pt_clust_7="13000.00000" pt_clust_8="13000.00000" pt_clust_9="44.06193"></scales>
<clustering>
<clus scale="   44.062">  2  9  1 -1</clus>
<clus scale="   77.292">  5  6 -1 -1</clus>
<clus scale="   93.051">  7  8 -1 -1</clus>
<clus scale="  123.966">  2  5  1 -1</clus>
<clus scale="   44.062">  2  5  1 -1</clus>
</clustering>
</event>
<event>
 9    2  0.9254368E-005  0.1218127E+03  0.7546771E-02  0.1242985E+00
         21   -1    0    0  501  502  0.00000000000E+00  0.00000000000E+00  0.34175802564E+03  0.34175802564E+03  0.00000000000E+00 0. -1.
         -1   -1    0    0    0  501 -0.00000000000E+00 -0.00000000000E+00 -0.15363811853E+03  0.15363811853E+03  0.00000000000E+00 0.  1.
         23    2    1    2    0    0  0.47626027252E+02  0.82321611328E+02 -0.94080405202E+02  0.16146344110E+03  0.90411470534E+02 0.  0.
         24    2    1    2    0    0 -0.12757264871E+02 -0.43000236366E+02  0.72025084561E+02  0.11728638421E+03  0.80973544945E+02 0.  0.
        -13    1    4    4    0    0  0.34511272989E+02 -0.16347604588E+02  0.32629253273E+02  0.50228879226E+02  0.00000000000E+00 0.  1.
         14    1    4    4    0    0 -0.47268537860E+02 -0.26652631778E+02  0.39395831287E+02  0.67057504986E+02  0.00000000000E+00 0. -1.
        -13    1    3    3    0    0  0.26635524558E+02  0.64431577773E+02 -0.10954037485E+03  0.12984595914E+03  0.00000000000E+00 0.  1.
         13    1    3    3    0    0  0.20990502694E+02  0.17890033555E+02  0.15459969645E+02  0.31617481958E+02  0.00000000000E+00 0. -1.
         -2    1    1    2    0  502 -0.34868762381E+02 -0.39321374963E+02  0.21017522775E+03  0.21664631887E+03  0.00000000000E+00 0.  1.
<scales pt_clust_5="13000.00000" pt_clust_6="13000.00000" pt_clust_7="13000.00000" pt_clust_8="13000.00000" pt_clust_9="52.55474"></scales>
<clustering>
<clus scale="   52.555">  1  9  2 -1</clus>
<clus scale="   80.974">  5  6 -1 -1</clus>
<clus scale="   90.411">  7  8 -1 -1</clus>
<clus scale="  114.982">  1  5  2 -1</clus>
<clus scale="   52.555">  1  5  2 -1</clus>
</clustering>
</event>
<event>
 9    2  0.9254368E-005  0.1630067E+03  0.7546771E-02  0.1187844E+00
          2   -1    0    0  502    0 -0.00000000000E+00  0.00000000000E+00  0.91518817624E+03  0.91518817624E+03  0.00000000000E+00 0. -1.
         21   -1    0    0  501  502  0.00000000000E+00 -0.00000000000E+00 -0.53780913772E+02  0.53780913772E+02  0.00000000000E+00 0.  1.
         24    2    1    2    0    0 -0.12943723277E+03 -0.23565336020E+01  0.61248911949E+03  0.63101581611E+03  0.79236911899E+02 0.  0.
         23    2    1    2    0    0  0.14172541693E+03  0.47110091477E+02  0.16512893280E+03  0.24216960017E+03  0.95252801918E+02 0.  0.
        -11    1    3    3    0    0 -0.22334800710E+02  0.31229605315E+02  0.19213164839E+03  0.19593034957E+03  0.00000000000E+00 0.  1.
         12    1    3    3    0    0 -0.10710243205E+03 -0.33586138917E+02  0.42035747111E+03  0.43508546654E+03  0.00000000000E+00 0. -1.
        -13    1    4    4    0    0  0.29464733185E+02  0.55928558000E+02  0.45555467079E+02  0.77919668136E+02  0.00000000000E+00 0.  1.
         13    1    4    4    0    0  0.11226068375E+03 -0.88184665238E+01  0.11957346572E+03  0.16424993203E+03  0.00000000000E+00 0. -1.
          1    1    1    2  501    0 -0.12288184167E+02 -0.44753557875E+02  0.83789210177E+02  0.95783673738E+02  0.00000000000E+00 0. -1.
<scales pt_clust_5="13000.00000" pt_clust_6="13000.00000" pt_clust_7="13000.00000" pt_clust_8="13000.00000" pt_clust_9="46.40992"></scales>
<clustering>
<clus scale="   46.410">  2  9  1 -1</clus>
<clus scale="   79.237">  5  6 -1 -1</clus>
<clus scale="   95.253">  7  8 -1 -1</clus>
<clus scale="  154.197">  1  5  2 -1</clus>
<clus scale="   46.410">  2  5  1 -1</clus>
</clustering>
</event>
<event>
 9    2  0.9254368E-005  0.1723766E+03  0.7546771E-02  0.1176337E+00
         21   -1    0    0  501  502  0.00000000000E+00  0.00000000000E+00  0.68909050355E+03  0.68909050355E+03  0.00000000000E+00 0. -1.
         -1   -1    0    0    0  501 -0.00000000000E+00 -0.00000000000E+00 -0.66505484874E+02  0.66505484874E+02  0.00000000000E+00 0.  1.
         23    2    1    2    0    0 -0.61589435661E+02  0.13342482294E+03  0.13905527813E+03  0.22096341311E+03  0.88842656396E+02 0.  0.
         24    2    1    2    0    0  0.10638623114E+03 -0.11213783302E+03  0.33192269047E+03  0.37511898198E+03  0.81539281462E+02 0.  0.
        -11    1    4    4    0    0  0.61700728994E+02 -0.44855162420E+02  0.79888109983E+02  0.11045847940E+03  0.00000000000E+00 0.  1.
         12    1    4    4    0    0  0.44685502144E+02 -0.67282670599E+02  0.25203458049E+03  0.26466050258E+03  0.00000000000E+00 0. -1.
        -11    1    3    3    0    0  0.82628242608E+01  0.73771993984E+02  0.90538830715E+02  0.11708057579E+03  0.00000000000E+00 0.  1.
         11    1    3    3    0    0 -0.69852259922E+02  0.59652828960E+02  0.48516447411E+02  0.10388283731E+03  0.00000000000E+00 0. -1.
         -2    1    1    2    0  502 -0.44796795477E+02 -0.21286989926E+02  0.15160705008E+03  0.15951359334E+03  0.00000000000E+00 0.  1.
<scales pt_clust_5="13000.00000" pt_clust_6="13000.00000" pt_clust_7="13000.00000" pt_clust_8="13000.00000" pt_clust_9="49.59727"></scales>
<clustering>
<clus scale="   49.597">  1  9  2 -1</clus>
<clus scale="   81.539">  5  6 -1 -1</clus>
<clus scale="   88.843">  7  8 -1 -1</clus>
<clus scale="  168.729">  1  5  2 -1</clus>
<clus scale="   49.597">  1  5  2 -1</clus>
</clustering>
</event>
<event>
 9    2  0.9254368E-005  0.1032432E+03  0.7546771E-02  0.1280553E+00
         21   -1    0    0  501  502  0.00000000000E+00  0.00000000000E+00  0.38124166894E+03  0.38124166894E+03  0.00000000000E+00 0. -1.
          2   -1    0    0  502    0 -0.00000000000E+00 -0.00000000000E+00 -0.14490414529E+03  0.14490414529E+03  0.00000000000E+00 0. -1.
         24    2    1    2    0    0 -0.57756800495E+02  0.35336852768E+02 -0.72800216353E+02  0.12648460628E+03  0.78191706444E+02 0.  0.
         23    2    1    2    0    0 -0.13189225643E+02 -0.17018796361E+02  0.14784158913E+02  0.96324892096E+02  0.92716332865E+02 0.  0.
        -13    1    3    3    0    0 -0.24485809838E+02  0.56481167530E+02 -0.57377493529E+02  0.84153751744E+02  0.00000000000E+00 0.  1.
         14    1    3    3    0    0 -0.33270990657E+02 -0.21144314762E+02 -0.15422722824E+02  0.42330854531E+02  0.00000000000E+00 0. -1.
        -13    1    4    4    0    0  0.36765590490E+02 -0.16193219167E+02 -0.87222786382E+01  0.41109696371E+02  0.00000000000E+00 0.  1.
         13    1    4    4    0    0 -0.49954816133E+02 -0.82557719387E+00  0.23506437551E+02  0.55215195725E+02  0.00000000000E+00 0. -1.
          1    1    1    2  501    0  0.70946026138E+02 -0.18318056407E+02  0.29435358109E+03  0.30333631585E+03  0.00000000000E+00 0. -1.
<scales pt_clust_5="13000.00000" pt_clust_6="13000.00000" pt_clust_7="13000.00000" pt_clust_8="13000.00000" pt_clust_9="73.27271"></scales>
<clustering>
<clus scale="   73.273">  1  9  2 -1</clus>
<clus scale="   78.192">  5  6 -1 -1</clus>
<clus scale="   90.426">  2  5  1 -1</clus>
<clus scale="   92.716">  7  8 -1 -1</clus>
<clus scale="   73.273">  1  5  2 -1</clus>
</clustering>
</event>
<event>
 9    2  0.9254368E-005  0.1591470E+03  0.7546771E-02  0.1201987E+00
         -1   -1    0    0    0  501 -0.00000000000E+00  0.00000000000E+00  0.67316550104E+03  0.67316550104E+03  0.00000000000E+00 0.  1.
         21   -1    0    0  501  502  0.00000000000E+00 -0.00000000000E+00 -0.83732516515E+02  0.83732516515E+02  0.00000000000E+00 0. -1.
         24    2    1    2    0    0  0.28979675672E+02  0.85856925763E+02  0.28680333145E+03  0.31149352426E+03  0.80998959376E+02 0.  0.
         23    2    1    2    0    0 -0.14005545581E+03 -0.18836919403E+02  0.76674861089E+02  0.18485684275E+03  0.91228601625E+02 0.  0.
        -13    1    3    3    0    0  0.41998886439E+02  0.57784860839E+02  0.10450218870E+03  0.12658477021E+03  0.00000000000E+00 0.  1.
         14    1    3    3    0    0 -0.13019210767E+02  0.28072064924E+02  0.18230114275E+03  0.18490875405E+03  0.00000000000E+00 0. -1.
        -13    1    4    4    0    0 -0.48496518140E+02 -0.43686645949E+02  0.40836963779E+01  0.65399632125E+02  0.00000000000E+00 0. -1.
         13    1    4    4    0    0 -0.91558937665E+02  0.24849726546E+02  0.72591164711E+02  0.11945721062E+03  0.00000000000E+00 0.  1.
         -2    1    1    2    0  502  0.11107578013E+03 -0.67020006360E+02  0.22595479198E+03  0.26054765054E+03  0.00000000000E+00 0.  1.
<scales pt_clust_5="13000.00000" pt_clust_6="13000.00000" pt_clust_7="13000.00000" pt_clust_8="13000.00000" pt_clust_9="130.40370"></scales>
<clustering>
<clus scale="   80.999">  5  6 -1 -1</clus>
<clus scale="   91.229">  7  8 -1 -1</clus>
<clus scale="  121.540">  1  5  2 -1</clus>
<clus scale="  130.404">  2  9  1 -1</clus>
<clus scale="  130.404">  2  5  1 -1</clus>
</clustering>
</event>
<event>
 9    2  0.9254368E-005  0.1148014E+03  0.7546771E-02  0.1254888E+00
         21   -1    0    0  501  502  0.00000000000E+00  0.00000000000E+00  0.78203954780E+02  0.78203954780E+02  0.00000000000E+00 0.  1.
         -3   -1    0    0    0  501 -0.00000000000E+00 -0.00000000000E+00 -0.47108636954E+03  0.47108636954E+03  0.00000000000E+00 0.  1.
         24    2    1    2    0    0  0.79652353418E+02  0.23941368315E+02 -0.35396120402E+03  0.37237029668E+03  0.80333164827E+02 0.  0.
         23    2    1    2    0    0 -0.20002017165E+02 -0.46371728724E+02 -0.47179593786E+02  0.11265896188E+03  0.88970274285E+02 0.  0.
        -11    1    3    3    0    0  0.40285043803E+02  0.41344909959E+02 -0.28714716619E+03  0.29289209854E+03  0.00000000000E+00 0.  1.
         12    1    3    3    0    0  0.39367309614E+02 -0.17403541644E+02 -0.66814037833E+02  0.79478198140E+02  0.00000000000E+00 0. -1.
        -11    1    4    4    0    0  0.33231332642E+02 -0.73348059927E+01 -0.51931509930E+01  0.34425131304E+02  0.00000000000E+00 0.  1.
         11    1    4    4    0    0 -0.53233349806E+02 -0.39036922731E+02 -0.41986442793E+02  0.78233830575E+02  0.00000000000E+00 0. -1.
         -4    1    1    2    0  502 -0.59650336253E+02  0.22430360408E+02  0.82583830465E+01  0.64261065769E+02  0.00000000000E+00 0.  1.
<scales pt_clust_5="13000.00000" pt_clust_6="13000.00000" pt_clust_7="13000.00000" pt_clust_8="13000.00000" pt_clust_9="63.72820"></scales>
<clustering>
<clus scale="   63.728">  1  9  2 -1</clus>
<clus scale="   80.333">  5  6 -1 -1</clus>
<clus scale="   88.970">  7  8 -1 -1</clus>
<clus scale="  108.245">  2  5  1 -1</clus>
<clus scale="   63.728">  1  5  2 -1</clus>
</clustering>
</event>
<event>
 9    2  0.9254368E-005  0.2735452E+03  0.7546771E-02  0.1099559E+00
          2   -1    0    0  502    0 -0.00000000000E+00  0.00000000000E+00  0.14671412512E+04  0.14671412512E+04  0.00000000000E+00 0. -1.
         21   -1    0    0  501  502  0.00000000000E+00 -0.00000000000E+00 -0.28953935968E+03  0.28953935968E+03  0.00000000000E+00 0.  1.
         24    2    1    2    0    0 -0.19733019238E+01 -0.25675464041E+03  0.13110308572E+04  0.13387972811E+04  0.87460918016E+02 0.  0.
         23    2    1    2    0    0  0.42013631654E+02  0.26128663529E+03 -0.19676022972E+03  0.34281925054E+03  0.93672832353E+02 0.  0.
        -13    1    3    3    0    0  0.41923866368E+02 -0.13017494001E+03  0.70344864585E+03  0.71661923148E+03  0.00000000000E+00 0.  1.
         14    1    3    3    0    0 -0.43897168292E+02 -0.12657970041E+03  0.60758221132E+03  0.62217804964E+03  0.00000000000E+00 0. -1.
        -13    1    4    4    0    0  0.62728451662E+02  0.18541808852E+03 -0.10555405317E+03  0.22238791411E+03  0.00000000000E+00 0.  1.
         13    1    4    4    0    0 -0.20714820008E+02  0.75868546761E+02 -0.91206176546E+02  0.12043133644E+03  0.00000000000E+00 0. -1.
          1    1    1    2  501    0 -0.40040329730E+02 -0.45319948710E+01  0.63331264093E+02  0.75064079253E+02  0.00000000000E+00 0. -1.
<scales pt_clust_5="13000.00000" pt_clust_6="13000.00000" pt_clust_7="13000.00000" pt_clust_8="13000.00000" pt_clust_9="40.29601"></scales>
<clustering>
<clus scale="   40.296">  2  9  1 -1</clus>
<clus scale="   87.461">  5  6 -1 -1</clus>
<clus scale="   93.673">  7  8 -1 -1</clus>
<clus scale="  271.481">  1  5  2 -1</clus>
<clus scale="   40.296">  2  5  1 -1</clus>
</clustering>
</event>
<event>
 9    2  0.9254368E-005  0.9808928E+02  0.7546771E-02  0.1286998E+00
         21   -1    0    0  501  502  0.00000000000E+00  0.00000000000E+00  0.11420213221E+04  0.11420213221E+04  0.00000000000E+00 0. -1.
          2   -1    0    0  502    0 -0.00000000000E+00 -0.00000000000E+00 -0.40162026929E+02  0.40162026929E+02  0.00000000000E+00 0. -1.
         23    2    1    2    0    0  0.38703743112E+02 -0.47447025804E+01  0.78206394306E+02  0.12823694046E+03  0.93850843653E+02 0.  0.
         24    2    1    2    0    0  0.43659490385E+02 -0.52939758642E+02  0.22010361414E+03  0.24412997537E+03  0.80281223007E+02 0.  0.
        -13    1    4    4    0    0 -0.22839965057E+02 -0.43675911675E+01  0.47193933794E+02  0.52611854589E+02  0.00000000000E+00 0.  1.
         14    1    4    4    0    0  0.66499455442E+02 -0.48572167475E+02  0.17290968035E+03  0.19151812078E+03  0.00000000000E+00 0. -1.
        -13    1    3    3    0    0  0.19768634269E+02 -0.32428451899E+02  0.85816075266E+02  0.93844563868E+02  0.00000000000E+00 0.  1.
         13    1    3    3    0    0  0.18935108843E+02  0.27683749319E+02 -0.76096809598E+01  0.34392376591E+02  0.00000000000E+00 0. -1.
          1    1    1    2  501    0 -0.82363233497E+02  0.57684461222E+02  0.80354928676E+03  0.80981643325E+03  0.00000000000E+00 0. -1.
<scales pt_clust_5="13000.00000" pt_clust_6="13000.00000" pt_clust_7="13000.00000" pt_clust_8="13000.00000" pt_clust_9="100.55446"></scales>
<clustering>
<clus scale="   80.281">  5  6 -1 -1</clus>
<clus scale="   93.851">  7  8 -1 -1</clus>
<clus scale="  100.554">  1  9  2 -1</clus>
<clus scale="  100.554">  1  5  2 -1</clus>
<clus scale="   98.089">  1  5  2 -1</clus>
</clustering>
</event>
<event>
 9    2  0.9254368E-005  0.2081043E+03  0.7546771E-02  0.1176252E+00
         21   -1    0    0  501  502  0.00000000000E+00  0.00000000000E+00  0.34330472723E+03  0.34330472723E+03  0.00000000000E+00 0. -1.
          2   -1    0    0  502    0 -0.00000000000E+00 -0.00000000000E+00 -0.91268574572E+03  0.91268574572E+03  0.00000000000E+00 0. -1.
         23    2    1    2    0    0 -0.20016610572E+02 -0.25130197317E+02 -0.35979173212E+02  0.10259027820E+03  0.90543209351E+02 0.  0.
         24    2    1    2    0    0 -0.13980963278E+03 -0.79255274931E+02 -0.80283303760E+03  0.82319734455E+03  0.85351331463E+02 0.  0.
        -13    1    4    4    0    0 -0.35565768031E+02  0.57931322214E+01 -0.77173993027E+02  0.85172233952E+02  0.00000000000E+00 0.  1.
         14    1    4    4    0    0 -0.10424386475E+03 -0.85048407153E+02 -0.72565904458E+03  0.73802511060E+03  0.00000000000E+00 0. -1.
        -13    1    3    3    0    0 -0.42745628874E+02  0.18547913968E+02 -0.21117686237E+02  0.51158289381E+02  0.00000000000E+00 0.  1.
         13    1    3    3    0    0  0.22729018302E+02 -0.43678111285E+02 -0.14861486976E+02  0.51431988816E+02  0.00000000000E+00 0. -1.
          1    1    1    2  501    0  0.15982624336E+03  0.10438547225E+03  0.26943119232E+03  0.33020285020E+03  0.00000000000E+00 0. -1.
<scales pt_clust_5="13000.00000" pt_clust_6="13000.00000" pt_clust_7="13000.00000" pt_clust_8="13000.00000" pt_clust_9="189.79610"></scales>
<clustering>
<clus scale="   85.351">  5  6 -1 -1</clus>
<clus scale="   90.543">  7  8 -1 -1</clus>
<clus scale="   96.074">  2  7  1 -1</clus>
<clus scale="  189.796">  1  9  2 -1</clus>
<clus scale="  189.796">  1  5  2 -1</clus>
</clustering>
</event>
<event>
 9    2  0.9254368E-005  0.3498280E+03  0.7546771E-02  0.1103560E+00
         21   -1    0    0  501  502  0.00000000000E+00  0.00000000000E+00  0.15129669780E+03  0.15129669780E+03  0.00000000000E+00 0. -1.
          2   -1    0    0  502    0 -0.00000000000E+00 -0.00000000000E+00 -0.19859529078E+04  0.19859529078E+04  0.00000000000E+00 0. -1.
         24    2    1    2    0    0 -0.80439874782E+02 -0.25092519014E+02  0.36205164525E+02  0.12250450432E+03  0.81217803926E+02 0.  0.
         23    2    1    2    0    0  0.27885936685E+03 -0.23482692236E+03 -0.13332356207E+04  0.13854837391E+04  0.95612451625E+02 0.  0.
        -13    1    3    3    0    0 -0.11059869732E+02  0.25878223364E+02 -0.22155452221E+01  0.28229626346E+02  0.00000000000E+00 0.  1.
         14    1    3    3    0    0 -0.69380005049E+02 -0.50970742378E+02  0.38420709747E+02  0.94274877972E+02  0.00000000000E+00 0. -1.
        -11    1    4    4    0    0  0.16784439907E+03 -0.19839847911E+03 -0.89961960855E+03  0.93640223136E+03  0.00000000000E+00 0.  1.
         11    1    4    4    0    0  0.11101496778E+03 -0.36428443252E+02 -0.43361601216E+03  0.44908150769E+03  0.00000000000E+00 0. -1.
          1    1    1    2  501    0 -0.19841949206E+03  0.25991944137E+03 -0.53762575380E+03  0.62926136222E+03  0.00000000000E+00 0. -1.
<scales pt_clust_5="13000.00000" pt_clust_6="13000.00000" pt_clust_7="13000.00000" pt_clust_8="13000.00000" pt_clust_9="336.50838"></scales>
<clustering>
<clus scale="   81.218">  5  6 -1 -1</clus>
<clus scale="   95.612">  7  8 -1 -1</clus>
<clus scale="  117.032">  2  5  1 -1</clus>
<clus scale="  336.508">  1  9  2 -1</clus>
<clus scale="  336.508">  1  5  2 -1</clus>
</clustering>
</event>
<event>
 9    2  0.9254368E-005  0.1173607E+03  0.7546771E-02  0.1253398E+00
          2   -1    0    0  502    0 -0.00000000000E+00  0.00000000000E+00  0.58525496137E+03  0.58525496137E+03  0.00000000000E+00 0. -1.
         21   -1    0    0  501  502  0.00000000000E+00 -0.00000000000E+00 -0.54337885573E+02  0.54337885573E+02  0.00000000000E+00 0. -1.
         24    2    1    2    0    0 -0.39784471805E+02  0.61747000821E+02  0.38078289909E+03  0.39606416444E+03  0.80471795106E+02 0.  0.
         23    2    1    2    0    0  0.32350774345E+02 -0.41029529062E+02  0.17726377316E+03  0.20859319198E+03  0.96740268805E+02 0.  0.
        -11    1    3    3    0    0  0.17215944921E+02  0.12721065460E+02  0.27391352423E+02  0.34763493115E+02  0.00000000000E+00 0.  1.
         12    1    3    3    0    0 -0.57000416726E+02  0.49025935361E+02  0.35339154667E+03  0.36130067133E+03  0.00000000000E+00 0. -1.
        -13    1    4    4    0    0  0.42261713918E+02 -0.68494092548E+02  0.13630495870E+03  0.15829256124E+03  0.00000000000E+00 0.  1.
         13    1    4    4    0    0 -0.99109395722E+01  0.27464563486E+02  0.40958814458E+02  0.50300630736E+02  0.00000000000E+00 0. -1.
          1    1    1    2  501    0  0.74336974590E+01 -0.20717471759E+02 -0.27129596458E+02  0.34935490521E+02  0.00000000000E+00 0. -1.
<scales pt_clust_5="13000.00000" pt_clust_6="13000.00000" pt_clust_7="13000.00000" pt_clust_8="13000.00000" pt_clust_9="22.01076"></scales>
<clustering>
<clus scale="   22.011">  2  9  1 -1</clus>
<clus scale="   80.472">  5  6 -1 -1</clus>
<clus scale="   96.740">  7  8 -1 -1</clus>
<clus scale="  104.358">  1  5  2 -1</clus>
<clus scale="   22.011">  2  5  1 -1</clus>
</clustering>
</event>
<event>
 9    2  0.9254368E-005  0.1351010E+03  0.7546771E-02  0.1222899E+00
          2   -1    0    0  502    0 -0.00000000000E+00  0.00000000000E+00  0.68208605291E+03  0.68208605291E+03  0.00000000000E+00 0. -1.
         21   -1    0    0  501  502  0.00000000000E+00 -0.00000000000E+00 -0.35373496898E+02  0.35373496898E+02  0.00000000000E+00 0. -1.
         24    2    1    2    0    0  0.74775076609E+02  0.58007332695E+02  0.31066259891E+03  0.33467317463E+03  0.80862356694E+02 0.  0.
         23    2    1    2    0    0 -0.93594937092E+02 -0.50491919962E+02  0.19698155506E+03  0.24224923054E+03  0.92593252614E+02 0.  0.
        -11    1    3    3    0    0  0.39687132399E+02 -0.15639257833E+02  0.96932913393E+02  0.10590394026E+03  0.00000000000E+00 0.  1.
         12    1    3    3    0    0  0.35087944209E+02  0.73646590528E+02  0.21372968551E+03  0.22876923437E+03  0.00000000000E+00 0. -1.
        -11    1    4    4    0    0 -0.82867409332E+02 -0.76274251341E+02  0.14968752431E+03  0.18732624985E+03  0.00000000000E+00 0. -1.
         11    1    4    4    0    0 -0.10727527761E+02  0.25782331379E+02  0.47294030750E+02  0.54922980689E+02  0.00000000000E+00 0.  1.
          1    1    1    2  501    0  0.18819860484E+02 -0.75154127332E+01  0.13906840204E+03  0.14053714464E+03  0.00000000000E+00 0. -1.
<scales pt_clust_5="13000.00000" pt_clust_6="13000.00000" pt_clust_7="13000.00000" pt_clust_8="13000.00000" pt_clust_9="20.26497"></scales>
<clustering>
<clus scale="   20.265">  2  9  1 -1</clus>
<clus scale="   80.862">  5  6 -1 -1</clus>
<clus scale="   92.593">  7  8 -1 -1</clus>
<clus scale="  127.348">  1  5  2 -1</clus>
<clus scale="   20.265">  2  5  1 -1</clus>
</clustering>
</event>
<event>
 9    2  0.9254368E-005  0.1049982E+03  0.7546771E-02  0.1272036E+00
         21   -1    0    0  501  502  0.00000000000E+00  0.00000000000E+00  0.21315946212E+02  0.21315946212E+02  0.00000000000E+00 0.  1.
         -1   -1    0    0    0  501 -0.00000000000E+00 -0.00000000000E+00 -0.13391249423E+04  0.13391249423E+04  0.00000000000E+00 0.  1.
         24    2    1    2    0    0 -0.56634498835E+02 -0.26977441213E+01 -0.91052351084E+03  0.91649946260E+03  0.87769339029E+02 0.  0.
         23    2    1    2    0    0  0.13692970898E+02  0.30255056776E+02 -0.13423102904E+03  0.16616072759E+03  0.92133339920E+02 0.  0.
        -13    1    3    3    0    0 -0.51215614088E+02 -0.18298025202E+02 -0.25349883430E+03  0.25926726721E+03  0.00000000000E+00 0.  1.
         14    1    3    3    0    0 -0.54188847468E+01  0.15600281081E+02 -0.65702467654E+03  0.65723219539E+03  0.00000000000E+00 0. -1.
        -11    1    4    4    0    0 -0.33369812225E+02 -0.10622226452E+02 -0.57172189649E+02  0.67045024662E+02  0.00000000000E+00 0. -1.
         11    1    4    4    0    0  0.47062783122E+02  0.40877283228E+02 -0.77058839388E+02  0.99115702929E+02  0.00000000000E+00 0.  1.
         -2    1    1    2    0  502  0.42941527938E+02 -0.27557312655E+02 -0.27305445623E+03  0.27778069833E+03  0.00000000000E+00 0.  1.
<scales pt_clust_5="13000.00000" pt_clust_6="13000.00000" pt_clust_7="13000.00000" pt_clust_8="13000.00000" pt_clust_9="51.02336"></scales>
<clustering>
<clus scale="   51.023">  1  9  2 -1</clus>
<clus scale="   87.769">  5  6 -1 -1</clus>
<clus scale="   92.133">  7  8 -1 -1</clus>
<clus scale="  101.191">  2  5  1 -1</clus>
<clus scale="   51.023">  1  5  2 -1</clus>
</clustering>
</event>
<event>
 9    2  0.9254368E-005  0.9708707E+02  0.7546771E-02  0.1292242E+00
         21   -1    0    0  501  502  0.00000000000E+00  0.00000000000E+00  0.13314961523E+03  0.13314961523E+03  0.00000000000E+00 0. -1.
          2   -1    0    0  502    0 -0.00000000000E+00 -0.00000000000E+00 -0.74974249321E+03  0.74974249321E+03  0.00000000000E+00 0. -1.
         24    2    1    2    0    0 -0.32892348174E+02 -0.14077634737E+02 -0.68856680402E+03  0.69413294968E+03  0.80101322526E+02 0.  0.
         23    2    1    2    0    0  0.43736501743E+01  0.30792116359E+02 -0.13750976165E+02  0.96881800887E+02  0.90717753235E+02 0.  0.
        -11    1    3    3    0    0 -0.43546937732E+02 -0.19025986031E+02 -0.20549308611E+03  0.21091641085E+03  0.00000000000E+00 0.  1.
         12    1    3    3    0    0  0.10654589558E+02  0.49483512938E+01 -0.48307371791E+03  0.48321653883E+03  0.00000000000E+00 0. -1.
        -13    1    4    4    0    0  0.44849451393E+02  0.14937511417E+02  0.85284949431E+01  0.48034755787E+02  0.00000000000E+00 0.  1.
         13    1    4    4    0    0 -0.40475801218E+02  0.15854604942E+02 -0.22279471108E+02  0.48847045100E+02  0.00000000000E+00 0. -1.
          1    1    1    2  501    0  0.28518697999E+02 -0.16714481623E+02  0.85724902208E+02  0.91877357875E+02  0.00000000000E+00 0. -1.
<scales pt_clust_5="13000.00000" pt_clust_6="13000.00000" pt_clust_7="13000.00000" pt_clust_8="13000.00000" pt_clust_9="33.05586"></scales>
<clustering>
<clus scale="   33.056">  1  9  2 -1</clus>
<clus scale="   80.101">  5  6 -1 -1</clus>
<clus scale="   87.249">  2  5  1 -1</clus>
<clus scale="   90.718">  7  8 -1 -1</clus>
<clus scale="   33.056">  1  5  2 -1</clus>
</clustering>
</event>
<event>
 9    2  0.9254368E-005  0.1424283E+03  0.7546771E-02  0.1236924E+00
         21   -1    0    0  501  502  0.00000000000E+00  0.00000000000E+00  0.51900859982E+02  0.51900859982E+02  0.00000000000E+00 0.  1.
          2   -1    0    0  502    0 -0.00000000000E+00 -0.00000000000E+00 -0.79591208726E+03  0.79591208726E+03  0.00000000000E+00 0. -1.
         24    2    1    2    0    0 -0.23361291665E+02 -0.10345245025E+02 -0.40528170052E+03  0.41336655829E+03  0.77239113749E+02 0.  0.
         23    2    1    2    0    0 -0.63651209398E+02  0.86648218627E+02 -0.11131456437E+03  0.17927804405E+03  0.90500246348E+02 0.  0.
        -11    1    3    3    0    0 -0.17378375303E+02  0.22474232079E+02 -0.59020739227E+02  0.65502264805E+02  0.00000000000E+00 0.  1.
         12    1    3    3    0    0 -0.59829163618E+01 -0.32819477104E+02 -0.34626096129E+03  0.34786429348E+03  0.00000000000E+00 0. -1.
        -11    1    4    4    0    0 -0.13522535655E+01  0.77311296254E+02 -0.66261955533E+02  0.10183080020E+03  0.00000000000E+00 0. -1.
         11    1    4    4    0    0 -0.62298955833E+02  0.93369223721E+01 -0.45052608841E+02  0.77447243854E+02  0.00000000000E+00 0.  1.
          1    1    1    2  501    0  0.87012501063E+02 -0.76302973602E+02 -0.22741496239E+03  0.25516834490E+03  0.00000000000E+00 0. -1.
<scales pt_clust_5="13000.00000" pt_clust_6="13000.00000" pt_clust_7="13000.00000" pt_clust_8="13000.00000" pt_clust_9="109.97973"></scales>
<clustering>
<clus scale="   77.239">  5  6 -1 -1</clus>
<clus scale="   81.355">  2  5  1 -1</clus>
<clus scale="   90.500">  7  8 -1 -1</clus>
<clus scale="  109.980">  1  9  2 -1</clus>
<clus scale="  109.980">  1  5  2 -1</clus>
</clustering>
</event>
<event>
 9    2  0.9254368E-005  0.9114154E+02  0.7546771E-02  0.1306520E+00
          2   -1    0    0  502    0 -0.00000000000E+00  0.00000000000E+00  0.22226670108E+03  0.22226670108E+03  0.00000000000E+00 0. -1.
         21   -1    0    0  501  502  0.00000000000E+00 -0.00000000000E+00 -0.13643532966E+03  0.13643532966E+03  0.00000000000E+00 0. -1.
         24    2    1    2    0    0  0.21316443707E+02  0.91022185317E+01  0.15545501139E+03  0.17631085104E+03  0.79887511367E+02 0.  0.
         23    2    1    2    0    0  0.35744001919E+02  0.17150236040E+02 -0.15887932283E+02  0.99731563769E+02  0.90123216488E+02 0.  0.
        -13    1    3    3    0    0  0.40428152992E+02 -0.20514909652E+02  0.10855974083E+03  0.11764571561E+03  0.00000000000E+00 0.  1.
         14    1    3    3    0    0 -0.19111709285E+02  0.29617128184E+02  0.46895270559E+02  0.58665135426E+02  0.00000000000E+00 0. -1.
        -11    1    4    4    0    0  0.29123286825E+02  0.46427272182E+02 -0.34170747197E+02  0.64585581996E+02  0.00000000000E+00 0. -1.
         11    1    4    4    0    0  0.66207150947E+01 -0.29277036142E+02  0.18282814914E+02  0.35145981773E+02  0.00000000000E+00 0.  1.
          1    1    1    2  501    0 -0.57060445626E+02 -0.26252454572E+02 -0.53735707689E+02  0.82659615938E+02  0.00000000000E+00 0. -1.
<scales pt_clust_5="13000.00000" pt_clust_6="13000.00000" pt_clust_7="13000.00000" pt_clust_8="13000.00000" pt_clust_9="62.80992"></scales>
<clustering>
<clus scale="   62.810">  2  9  1 -1</clus>
<clus scale="   79.888">  5  6 -1 -1</clus>
<clus scale="   81.035">  1  5  2 -1</clus>
<clus scale="   90.123">  7  8 -1 -1</clus>
<clus scale="   62.810">  2  5  1 -1</clus>
</clustering>
</event>
<event>
 9    2  0.9254368E-005  0.1019728E+03  0.7546771E-02  0.1287437E+00
          2   -1    0    0  502    0 -0.00000000000E+00  0.00000000000E+00  0.42641056243E+03  0.42641056243E+03  0.00000000000E+00 0. -1.
         21   -1    0    0  501  502  0.00000000000E+00 -0.00000000000E+00 -0.88614209516E+02  0.88614209516E+02  0.00000000000E+00 0. -1.
         23    2    1    2    0    0 -0.17189710970E+02  0.25541747881E+02  0.35708035577E+03  0.37166947217E+03  0.98407057756E+02 0.  0.
         24    2    1    2    0    0 -0.35659594803E+02 -0.20086823886E+02 -0.42171087175E+01  0.88130154998E+02  0.77936211217E+02 0.  0.
        -13    1    4    4    0    0 -0.20417456176E+02  0.25329300403E+02  0.15852476343E+02  0.36190426660E+02  0.00000000000E+00 0.  1.
         14    1    4    4    0    0 -0.15242138627E+02 -0.45416124289E+02 -0.20069585061E+02  0.51939728339E+02  0.00000000000E+00 0. -1.
        -13    1    3    3    0    0  0.29547532327E+02  0.43525110136E+02  0.16602989914E+03  0.17416491980E+03  0.00000000000E+00 0. -1.
         13    1    3    3    0    0 -0.46737243297E+02 -0.17983362255E+02  0.19105045663E+03  0.19750455237E+03  0.00000000000E+00 0.  1.
          1    1    1    2  501    0  0.52849305772E+02 -0.54549239952E+01 -0.15066894143E+02  0.55225144776E+02  0.00000000000E+00 0. -1.
<scales pt_clust_5="13000.00000" pt_clust_6="13000.00000" pt_clust_7="13000.00000" pt_clust_8="13000.00000" pt_clust_9="53.13008"></scales>
<clustering>
<clus scale="   53.130">  2  9  1 -1</clus>
<clus scale="   77.936">  5  6 -1 -1</clus>
<clus scale="   82.393">  2  5  1 -1</clus>
<clus scale="   98.407">  7  8 -1 -1</clus>
<clus scale="   53.130">  2  5  1 -1</clus>
</clustering>
</event>
<event>
 9    2  0.9254368E-005  0.2591698E+03  0.7546771E-02  0.1108016E+00
         -1   -1    0    0    0  501 -0.00000000000E+00  0.00000000000E+00  0.13384666935E+04  0.13384666935E+04  0.00000000000E+00 0.  1.
         21   -1    0    0  501  502  0.00000000000E+00 -0.00000000000E+00 -0.96043569750E+02  0.96043569750E+02  0.00000000000E+00 0.  1.
         23    2    1    2    0    0 -0.19386815098E+03 -0.12921652199E+03  0.32542722818E+03  0.40973890184E+03  0.87757149718E+02 0.  0.
         24    2    1    2    0    0  0.12134027679E+03  0.24468191846E+03  0.40564396233E+03  0.49555179455E+03  0.80198833597E+02 0.  0.
        -11    1    4    4    0    0  0.12434806957E+03  0.19800230591E+03  0.30275033641E+03  0.38252466816E+03  0.00000000000E+00 0.  1.
         12    1    4    4    0    0 -0.30077927791E+01  0.46679612553E+02  0.10289362592E+03  0.11302712639E+03  0.00000000000E+00 0. -1.
        -11    1    3    3    0    0 -0.10060665599E+03 -0.30035563517E+02  0.92428616576E+02  0.13988167667E+03  0.00000000000E+00 0.  1.
         11    1    3    3    0    0 -0.93261494984E+02 -0.99180958472E+02  0.23299861160E+03  0.26985722517E+03  0.00000000000E+00 0. -1.
         -2    1    1    2    0  502  0.72527874188E+02 -0.11546539647E+03  0.51135193327E+03  0.52921956689E+03  0.00000000000E+00 0.  1.
<scales pt_clust_5="13000.00000" pt_clust_6="13000.00000" pt_clust_7="13000.00000" pt_clust_8="13000.00000" pt_clust_9="136.35457"></scales>
<clustering>
<clus scale="   80.199">  5  6 -1 -1</clus>
<clus scale="   87.757">  7  8 -1 -1</clus>
<clus scale="  136.355">  2  9  1 -1</clus>
<clus scale="  256.709">  2  5  1 -1</clus>
<clus scale="  136.355">  2  5  1 -1</clus>
</clustering>
</event>
<event>
 9    2  0.9254368E-005  0.1027767E+03  0.7546771E-02  0.1280187E+00
         21   -1    0    0  501  502  0.00000000000E+00  0.00000000000E+00  0.15852677669E+03  0.15852677669E+03  0.00000000000E+00 0.  1.
          4   -1    0    0  502    0 -0.00000000000E+00 -0.00000000000E+00 -0.15256165565E+03  0.15256165565E+03  0.00000000000E+00 0. -1.
         24    2    1    2    0    0 -0.86626718034E+00  0.37056040584E+02 -0.48582789399E+02  0.99963402955E+02  0.79110643670E+02 0.  0.
         23    2    1    2    0    0 -0.62056427746E+02 -0.64715540923E+02  0.79376605897E+01  0.12807788081E+03  0.91114409589E+02 0.  0.
        -11    1    3    3    0    0  0.15968307329E+02 -0.16890009504E+02 -0.34710089148E+02  0.41773790212E+02  0.00000000000E+00 0.  1.
         12    1    3    3    0    0 -0.16834574509E+02  0.53946050087E+02 -0.13872700250E+02  0.58189612743E+02  0.00000000000E+00 0. -1.
        -13    1    4    4    0    0 -0.39077166562E+02 -0.72906401913E+02  0.36587341315E+02  0.90448891264E+02  0.00000000000E+00 0.  1.
         13    1    4    4    0    0 -0.22979261184E+02  0.81908609897E+01 -0.28649680726E+02  0.37628989543E+02  0.00000000000E+00 0. -1.
          3    1    1    2  501    0  0.62922694926E+02  0.27659500340E+02  0.46610249848E+02  0.83047148577E+02  0.00000000000E+00 0. -1.
<scales pt_clust_5="13000.00000" pt_clust_6="13000.00000" pt_clust_7="13000.00000" pt_clust_8="13000.00000" pt_clust_9="68.73364"></scales>
<clustering>
<clus scale="   68.734">  1  9  2 -1</clus>
<clus scale="   79.111">  5  6 -1 -1</clus>
<clus scale="   91.114">  7  8 -1 -1</clus>
<clus scale="   92.302">  2  5  1 -1</clus>
<clus scale="   68.734">  1  5  2 -1</clus>
</clustering>
</event>
<event>
 9    2  0.9254368E-005  0.1155533E+03  0.7546771E-02  0.1259273E+00
          2   -1    0    0  502    0 -0.00000000000E+00  0.00000000000E+00  0.44593206213E+03  0.44593206213E+03  0.00000000000E+00 0. -1.
         21   -1    0    0  501  502  0.00000000000E+00 -0.00000000000E+00 -0.80071783080E+02  0.80071783080E+02  0.00000000000E+00 0.  1.
         23    2    1    2    0    0  0.34412616617E+02  0.82365027213E+01  0.10323425687E+03  0.14188883569E+03  0.90681099144E+02 0.  0.
         24    2    1    2    0    0  0.50155239136E+02 -0.61741387984E+02  0.11598035538E+02  0.11387521776E+03  0.80656703311E+02 0.  0.
        -13    1    4    4    0    0  0.38233835557E+02 -0.16174855530E+02 -0.29852249766E+02  0.51133247001E+02  0.00000000000E+00 0.  1.
         14    1    4    4    0    0  0.11921403579E+02 -0.45566532453E+02  0.41450285304E+02  0.62741970760E+02  0.00000000000E+00 0. -1.
        -13    1    3    3    0    0  0.61840733189E+02 -0.75768404483E+01  0.49719768452E+02  0.79710351696E+02  0.00000000000E+00 0.  1.
         13    1    3    3    0    0 -0.27428116573E+02  0.15813343170E+02  0.53514488419E+02  0.62178483993E+02  0.00000000000E+00 0. -1.
          1    1    1    2  501    0 -0.84567855752E+02  0.53504885262E+02  0.25102798664E+03  0.27023979176E+03  0.00000000000E+00 0. -1.
<scales pt_clust_5="13000.00000" pt_clust_6="13000.00000" pt_clust_7="13000.00000" pt_clust_8="13000.00000" pt_clust_9="82.74701"></scales>
<clustering>
<clus scale="   80.657">  5  6 -1 -1</clus>
<clus scale="   90.681">  7  8 -1 -1</clus>
<clus scale="   97.340">  1  7  2 -1</clus>
<clus scale="   82.747">  2  9  1 -1</clus>
<clus scale="   82.747">  2  5  1 -1</clus>
</clustering>
</event>
<event>
 9    2  0.9254368E-005  0.1408894E+03  0.7546771E-02  0.1213712E+00
         -1   -1    0    0    0  501 -0.00000000000E+00  0.00000000000E+00  0.58676749007E+03  0.58676749007E+03  0.00000000000E+00 0.  1.
         21   -1    0    0  501  502  0.00000000000E+00 -0.00000000000E+00 -0.15409328403E+03  0.15409328403E+03  0.00000000000E+00 0. -1.
         24    2    1    2    0    0  0.10041294283E+03  0.49447495492E+02  0.66066447149E+02  0.15355447532E+03  0.81770334192E+02 0.  0.
         23    2    1    2    0    0 -0.19370381329E+02 -0.14454204235E+03 -0.28107544536E+02  0.17328813446E+03  0.89281183934E+02 0.  0.
        -13    1    3    3    0    0  0.94855987924E+02  0.28963790141E+02  0.80625838130E+02  0.12781660831E+03  0.00000000000E+00 0.  1.
         14    1    3    3    0    0  0.55569549061E+01  0.20483705351E+02 -0.14559390982E+02  0.25737867015E+02  0.00000000000E+00 0. -1.
        -11    1    4    4    0    0 -0.23560053616E+02 -0.37840850073E+02  0.28021338976E+02  0.52651699865E+02  0.00000000000E+00 0.  1.
         11    1    4    4    0    0  0.41896722868E+01 -0.10670119228E+03 -0.56128883512E+02  0.12063643460E+03  0.00000000000E+00 0. -1.
         -2    1    1    2    0  502 -0.81042561502E+02  0.95094546862E+02  0.39471530344E+03  0.41401816432E+03  0.00000000000E+00 0.  1.
<scales pt_clust_5="13000.00000" pt_clust_6="13000.00000" pt_clust_7="13000.00000" pt_clust_8="13000.00000" pt_clust_9="124.94353"></scales>
<clustering>
<clus scale="   81.770">  5  6 -1 -1</clus>
<clus scale="   89.281">  7  8 -1 -1</clus>
<clus scale="  124.944">  2  9  1 -1</clus>
<clus scale="  136.254">  1  5  2 -1</clus>
<clus scale="  124.944">  2  5  1 -1</clus>
</clustering>
</event>
<event>
 9    2  0.9254368E-005  0.1909045E+03  0.7546771E-02  0.1158845E+00
         21   -1    0    0  501  502  0.00000000000E+00  0.00000000000E+00  0.19698983224E+03  0.19698983224E+03  0.00000000000E+00 0. -1.
          2   -1    0    0  502    0 -0.00000000000E+00 -0.00000000000E+00 -0.64268791677E+03  0.64268791677E+03  0.00000000000E+00 0. -1.
         24    2    1    2    0    0 -0.60739519118E+02  0.12212319614E+03 -0.20649140276E+03  0.26040113822E+03  0.81035110645E+02 0.  0.
         23    2    1    2    0    0 -0.24922061011E-02 -0.21973160416E+03 -0.34745289701E+03  0.42137082759E+03  0.92454750186E+02 0.  0.
        -13    1    3    3    0    0 -0.19612323464E+00  0.51211185846E+02 -0.26428974586E+02  0.57629113456E+02  0.00000000000E+00 0.  1.
         14    1    3    3    0    0 -0.60543395884E+02  0.70912010290E+02 -0.18006242817E+03  0.20277202477E+03  0.00000000000E+00 0. -1.
        -11    1    4    4    0    0 -0.21032820798E+02 -0.11875136021E+03 -0.11315534259E+03  0.16537350652E+03  0.00000000000E+00 0. -1.
         11    1    4    4    0    0  0.21030328592E+02 -0.10098024395E+03 -0.23429755442E+03  0.25599732107E+03  0.00000000000E+00 0.  1.
          1    1    1    2  501    0  0.60742011325E+02  0.97608408024E+02  0.10824621524E+03  0.15790578321E+03  0.00000000000E+00 0. -1.
<scales pt_clust_5="13000.00000" pt_clust_6="13000.00000" pt_clust_7="13000.00000" pt_clust_8="13000.00000" pt_clust_9="114.96518"></scales>
<clustering>
<clus scale="   81.035">  5  6 -1 -1</clus>
<clus scale="   92.455">  7  8 -1 -1</clus>
<clus scale="  114.965">  1  9  2 -1</clus>
<clus scale="  185.643">  2  5  1 -1</clus>
<clus scale="  114.965">  1  5  2 -1</clus>
</clustering>
</event>
<event>
 9    2  0.9254368E-005  0.1145752E+03  0.7546771E-02  0.1254837E+00
          2   -1    0    0  502    0 -0.00000000000E+00  0.00000000000E+00  0.33007992713E+03  0.33007992713E+03  0.00000000000E+00 0. -1.
         21   -1    0    0  501  502  0.00000000000E+00 -0.00000000000E+00 -0.28201863581E+03  0.28201863581E+03  0.00000000000E+00 0.  1.
         23    2    1    2    0    0 -0.71426158636E+02 -0.84302447821E+00  0.28805867688E+03  0.31034491212E+03  0.90740048071E+02 0.  0.
         24    2    1    2    0    0  0.47783014032E+02 -0.62382421719E+02 -0.13825743843E+03  0.17965749128E+03  0.83587749830E+02 0.  0.
        -13    1    4    4    0    0 -0.36223313304E+01 -0.24449731335E+02 -0.10453559450E+03  0.10741788102E+03  0.00000000000E+00 0.  1.
         14    1    4    4    0    0  0.51405345362E+02 -0.37932690383E+02 -0.33721843932E+02  0.72239610255E+02  0.00000000000E+00 0. -1.
        -13    1    3    3    0    0 -0.18156977857E+02 -0.41243426533E+02  0.15524506314E+03  0.16165310299E+03  0.00000000000E+00 0.  1.
         13    1    3    3    0    0 -0.53269180778E+02  0.40400402054E+02  0.13281361374E+03  0.14869180913E+03  0.00000000000E+00 0. -1.
          1    1    1    2  501    0  0.23643144604E+02  0.63225446197E+02 -0.10173994713E+03  0.12209615955E+03  0.00000000000E+00 0. -1.
<scales pt_clust_5="13000.00000" pt_clust_6="13000.00000" pt_clust_7="13000.00000" pt_clust_8="13000.00000" pt_clust_9="67.50152"></scales>
<clustering>
<clus scale="   67.502">  2  9  1 -1</clus>
<clus scale="   83.588">  5  6 -1 -1</clus>
<clus scale="   90.740">  7  8 -1 -1</clus>
<clus scale="  108.998">  2  5  1 -1</clus>
<clus scale="   67.502">  2  5  1 -1</clus>
</clustering>
</event>
<event>
 9    2  0.9254368E-005  0.1289603E+03  0.7546771E-02  0.1244290E+00
         -1   -1    0    0    0  501 -0.00000000000E+00  0.00000000000E+00  0.48279443481E+02  0.48279443481E+02  0.00000000000E+00 0.  1.
         21   -1    0    0  501  502  0.00000000000E+00 -0.00000000000E+00 -0.59403334274E+03  0.59403334274E+03  0.00000000000E+00 0.  1.
         23    2    1    2    0    0  0.73584092650E+01 -0.16671666304E+02 -0.23195379637E+03  0.25042136917E+03  0.92607817389E+02 0.  0.
         24    2    1    2    0    0 -0.99581988774E+02  0.47231044951E+02 -0.15880053870E+03  0.20895992950E+03  0.79368110398E+02 0.  0.
        -11    1    4    4    0    0 -0.97182644940E+02  0.49894029835E+02 -0.94165554254E+02  0.14422562983E+03  0.00000000000E+00 0.  1.
         12    1    4    4    0    0 -0.23993438339E+01 -0.26629848845E+01 -0.64634984449E+02  0.64734299672E+02  0.00000000000E+00 0. -1.
        -11    1    3    3    0    0  0.11404405839E+02 -0.52658724128E+02 -0.10003468959E+03  0.11362192051E+03  0.00000000000E+00 0. -1.
         11    1    3    3    0    0 -0.40459965741E+01  0.35987057824E+02 -0.13191910679E+03  0.13679944866E+03  0.00000000000E+00 0.  1.
         -2    1    1    2    0  502  0.92223579509E+02 -0.30559378647E+02 -0.15499956418E+03  0.18293148755E+03  0.00000000000E+00 0.  1.
<scales pt_clust_5="13000.00000" pt_clust_6="13000.00000" pt_clust_7="13000.00000" pt_clust_8="13000.00000" pt_clust_9="101.64385"></scales>
<clustering>
<clus scale="   79.368">  5  6 -1 -1</clus>
<clus scale="   92.608">  7  8 -1 -1</clus>
<clus scale="   94.384">  1  7  2 -1</clus>
<clus scale="  101.644">  2  9  1 -1</clus>
<clus scale="  101.644">  2  5  1 -1</clus>
</clustering>
</event>
<event>
 9    2  0.9254368E-005  0.1559256E+03  0.7546771E-02  0.1215839E+00
         21   -1    0    0  501  502  0.00000000000E+00  0.00000000000E+00  0.87940962447E+02  0.87940962447E+02  0.00000000000E+00 0. -1.
          2   -1    0    0  502    0 -0.00000000000E+00 -0.00000000000E+00 -0.43727224991E+03  0.43727224991E+03  0.00000000000E+00 0. -1.
         23    2    1    2    0    0  0.21329445485E+02 -0.19949140054E+02 -0.53112617804E+02  0.10978792553E+03  0.91539745407E+02 0.  0.
         24    2    1    2    0    0 -0.48087490415E+01 -0.12311636144E+03 -0.15322343152E+03  0.21247625564E+03  0.80547977768E+02 0.  0.
        -11    1    4    4    0    0  0.70398788479E+01 -0.40078487902E+02 -0.34799227070E+01  0.40840604168E+02  0.00000000000E+00 0.  1.
         12    1    4    4    0    0 -0.11848627889E+02 -0.83037873536E+02 -0.14974350882E+03  0.17163565147E+03  0.00000000000E+00 0. -1.
        -13    1    3    3    0    0 -0.32700712538E+02 -0.24188622928E+02 -0.31480870595E+02  0.51434145206E+02  0.00000000000E+00 0. -1.
         13    1    3    3    0    0  0.54030158023E+02  0.42394828746E+01 -0.21631747209E+02  0.58353780327E+02  0.00000000000E+00 0.  1.
          1    1    1    2  501    0 -0.16520696444E+02  0.14306550149E+03 -0.14299523813E+03  0.20294903118E+03  0.00000000000E+00 0. -1.
<scales pt_clust_5="13000.00000" pt_clust_6="13000.00000" pt_clust_7="13000.00000" pt_clust_8="13000.00000" pt_clust_9="133.50971"></scales>
<clustering>
<clus scale="   80.548">  5  6 -1 -1</clus>
<clus scale="   91.540">  7  8 -1 -1</clus>
<clus scale="   96.086">  2  7  1 -1</clus>
<clus scale="  133.510">  1  9  2 -1</clus>
<clus scale="  133.510">  1  5  2 -1</clus>
</clustering>
</event>
<event>
 9    2  0.9254368E-005  0.1009337E+03  0.7546771E-02  0.1279835E+00
         21   -1    0    0  501  502  0.00000000000E+00  0.00000000000E+00  0.17029522995E+03  0.17029522995E+03  0.00000000000E+00 0. -1.
         -3   -1    0    0    0  501 -0.00000000000E+00 -0.00000000000E+00 -0.14202239269E+03  0.14202239269E+03  0.00000000000E+00 0.  1.
         24    2    1    2    0    0  0.10670241553E+02  0.44049095060E+02 -0.86626025303E+02  0.13567895569E+03  0.94077276357E+02 0.  0.
         23    2    1    2    0    0  0.10194562957E+01 -0.27751664750E+01  0.73796607151E+02  0.11722838487E+03  0.91037432691E+02 0.  0.
        -13    1    3    3    0    0 -0.19526603133E+02  0.63376130464E+02 -0.69094292090E+02  0.95769741265E+02  0.00000000000E+00 0.  1.
         14    1    3    3    0    0  0.30196844687E+02 -0.19327035404E+02 -0.17531733212E+02  0.39909214424E+02  0.00000000000E+00 0. -1.
        -11    1    4    4    0    0  0.33493721016E+02 -0.28546833280E+02  0.58128277200E+02  0.72908488176E+02  0.00000000000E+00 0. -1.
         11    1    4    4    0    0 -0.32474264721E+02  0.25771666805E+02  0.15668329950E+02  0.44319896689E+02  0.00000000000E+00 0.  1.
         -4    1    1    2    0  502 -0.11689697849E+02 -0.41273928585E+02  0.41102255415E+02  0.59410282080E+02  0.00000000000E+00 0.  1.
<scales pt_clust_5="13000.00000" pt_clust_6="13000.00000" pt_clust_7="13000.00000" pt_clust_8="13000.00000" pt_clust_9="42.89739"></scales>
<clustering>
<clus scale="   42.897">  1  9  2 -1</clus>
<clus scale="   91.037">  7  8 -1 -1</clus>
<clus scale="   94.077">  5  6 -1 -1</clus>
<clus scale="   98.107">  1  7  2 -1</clus>
<clus scale="   42.897">  1  5  2 -1</clus>
</clustering>
</event>
<event>
 9    2  0.9254368E-005  0.1618602E+03  0.7546771E-02  0.1189121E+00
         21   -1    0    0  501  502  0.00000000000E+00  0.00000000000E+00  0.37117391452E+03  0.37117391452E+03  0.00000000000E+00 0.  1.
         -3   -1    0    0    0  501 -0.00000000000E+00 -0.00000000000E+00 -0.15223335321E+03  0.15223335321E+03  0.00000000000E+00 0.  1.
         24    2    1    2    0    0 -0.13912097111E+03 -0.70352046773E+02  0.11194233410E+03  0.20764036396E+03  0.79242535888E+02 0.  0.
         23    2    1    2    0    0  0.95887757629E+02  0.30425891767E+02  0.17675650230E+03  0.22450121721E+03  0.95067020945E+02 0.  0.
        -13    1    3    3    0    0 -0.10794947447E+03 -0.85433543369E+02  0.74086091964E+02  0.15633530757E+03  0.00000000000E+00 0.  1.
         14    1    3    3    0    0 -0.31171496637E+02  0.15081496596E+02  0.37856242139E+02  0.51305056388E+02  0.00000000000E+00 0. -1.
        -11    1    4    4    0    0  0.86854833590E+02 -0.61843509092E+01  0.71417654839E+02  0.11261656067E+03  0.00000000000E+00 0. -1.
         11    1    4    4    0    0  0.90329240389E+01  0.36610242676E+02  0.10533884746E+03  0.11188465654E+03  0.00000000000E+00 0.  1.
         -4    1    1    2    0  502  0.43233213479E+02  0.39926155006E+02 -0.69758275089E+02  0.91265686568E+02  0.00000000000E+00 0.  1.
<scales pt_clust_5="13000.00000" pt_clust_6="13000.00000" pt_clust_7="13000.00000" pt_clust_8="13000.00000" pt_clust_9="58.84906"></scales>
<clustering>
<clus scale="   58.849">  1  9  2 -1</clus>
<clus scale="   79.243">  5  6 -1 -1</clus>
<clus scale="   95.067">  7  8 -1 -1</clus>
<clus scale="  153.102">  2  5  1 -1</clus>
<clus scale="   58.849">  1  5  2 -1</clus>
</clustering>
</event>
<event>
 9    2  0.9254368E-005  0.1291230E+03  0.7546771E-02  0.1229964E+00
         21   -1    0    0  501  502  0.00000000000E+00  0.00000000000E+00  0.13323298977E+03  0.13323298977E+03  0.00000000000E+00 0.  1.
          2   -1    0    0  502    0 -0.00000000000E+00 -0.00000000000E+00 -0.66596697956E+03  0.66596697956E+03  0.00000000000E+00 0. -1.
         23    2    1    2    0    0 -0.66304095277E+02  0.74028715448E+02 -0.61973654555E+03  0.63327852587E+03  0.84212954310E+02 0.  0.
         24    2    1    2    0    0  0.45603794080E+02 -0.56847814028E+02  0.87902344963E+02  0.13900499006E+03  0.79272851697E+02 0.  0.
        -13    1    4    4    0    0  0.30456356272E+02 -0.57600736379E+02  0.10017115161E+03  0.11949767397E+03  0.00000000000E+00 0.  1.
         14    1    4    4    0    0  0.15147437807E+02  0.75292235109E+00 -0.12268806651E+02  0.19507316085E+02  0.00000000000E+00 0. -1.
        -11    1    3    3    0    0 -0.46734626345E+01  0.67803870833E+02 -0.30086420067E+03  0.30844525186E+03  0.00000000000E+00 0. -1.
         11    1    3    3    0    0 -0.61630632642E+02  0.62248446144E+01 -0.31887234488E+03  0.32483327400E+03  0.00000000000E+00 0.  1.
          1    1    1    2  501    0  0.20700301197E+02 -0.17180901420E+02 -0.89978920657E+00  0.26916453404E+02  0.00000000000E+00 0. -1.
<scales pt_clust_5="13000.00000" pt_clust_6="13000.00000" pt_clust_7="13000.00000" pt_clust_8="13000.00000" pt_clust_9="26.90141"></scales>
<clustering>
<clus scale="   26.901">  1  9  2 -1</clus>
<clus scale="   79.273">  5  6 -1 -1</clus>
<clus scale="   84.213">  7  8 -1 -1</clus>
<clus scale="  125.957">  1  5  2 -1</clus>
<clus scale="   26.901">  1  5  2 -1</clus>
</clustering>
</event>
<event>
 9    2  0.9254368E-005  0.1378465E+03  0.7546771E-02  0.1218430E+00
         21   -1    0    0  501  502  0.00000000000E+00  0.00000000000E+00  0.86391480676E+02  0.86391480676E+02  0.00000000000E+00 0. -1.
          2   -1    0    0  502    0 -0.00000000000E+00 -0.00000000000E+00 -0.84630995640E+03  0.84630995640E+03  0.00000000000E+00 0. -1.
         24    2    1    2    0    0 -0.24207024359E+02  0.10417486489E+03 -0.62247960930E+03  0.63675650203E+03  0.80867770923E+02 0.  0.
         23    2    1    2    0    0 -0.48273680063E+02 -0.10100069607E+03 -0.16439936364E+03  0.21854728475E+03  0.90577459203E+02 0.  0.
        -11    1    3    3    0    0 -0.31159728536E+00  0.42385661053E+02 -0.82729985283E+02  0.92956397417E+02  0.00000000000E+00 0.  1.
         12    1    3    3    0    0 -0.23895427074E+02  0.61789203841E+02 -0.53974962402E+03  0.54380010461E+03  0.00000000000E+00 0. -1.
        -11    1    4    4    0    0 -0.72331345537E+02 -0.62481023539E+02 -0.89428977830E+02  0.13089401791E+03  0.00000000000E+00 0. -1.
         11    1    4    4    0    0  0.24057665473E+02 -0.38519672527E+02 -0.74970385806E+02  0.87653266839E+02  0.00000000000E+00 0.  1.
          1    1    1    2  501    0  0.72480704422E+02 -0.31741688285E+01  0.26960497214E+02  0.77397650296E+02  0.00000000000E+00 0. -1.
<scales pt_clust_5="13000.00000" pt_clust_6="13000.00000" pt_clust_7="13000.00000" pt_clust_8="13000.00000" pt_clust_9="72.55017"></scales>
<clustering>
<clus scale="   72.550">  1  9  2 -1</clus>
<clus scale="   80.868">  5  6 -1 -1</clus>
<clus scale="   90.577">  7  8 -1 -1</clus>
<clus scale="  131.670">  2  5  1 -1</clus>
<clus scale="   72.550">  1  5  2 -1</clus>
</clustering>
</event>
<event>
 9    2  0.9254368E-005  0.1048593E+03  0.7546771E-02  0.1281127E+00
         21   -1    0    0  501  502  0.00000000000E+00  0.00000000000E+00  0.35503034480E+02  0.35503034480E+02  0.00000000000E+00 0.  1.
          2   -1    0    0  502    0 -0.00000000000E+00 -0.00000000000E+00 -0.46954711591E+03  0.46954711591E+03  0.00000000000E+00 0. -1.
         24    2    1    2    0    0  0.31824674625E+02  0.38959637901E+01 -0.27920404763E+03  0.29222241201E+03  0.80069029082E+02 0.  0.
         23    2    1    2    0    0 -0.16391395914E+02 -0.29151764002E+02 -0.14867513504E+03  0.18259451969E+03  0.10058806906E+03 0.  0.
        -13    1    3    3    0    0  0.45471112647E+02 -0.94826069530E+00 -0.27249242287E+03  0.27626190799E+03  0.00000000000E+00 0.  1.
         14    1    3    3    0    0 -0.13646438022E+02  0.48442244854E+01 -0.67116247546E+01  0.15960504015E+02  0.00000000000E+00 0. -1.
        -11    1    4    4    0    0 -0.20258742114E+02  0.32806962112E+02 -0.30715238407E+02  0.49296442726E+02  0.00000000000E+00 0. -1.
         11    1    4    4    0    0  0.38673462002E+01 -0.61958726115E+02 -0.11795989663E+03  0.13329807696E+03  0.00000000000E+00 0.  1.
          1    1    1    2  501    0 -0.15433278712E+02  0.25255800212E+02 -0.61648987683E+01  0.30233218700E+02  0.00000000000E+00 0. -1.
<scales pt_clust_5="13000.00000" pt_clust_6="13000.00000" pt_clust_7="13000.00000" pt_clust_8="13000.00000" pt_clust_9="29.59800"></scales>
<clustering>
<clus scale="   29.598">  1  9  2 -1</clus>
<clus scale="   80.069">  5  6 -1 -1</clus>
<clus scale="   85.373">  2  5  1 -1</clus>
<clus scale="  100.588">  7  8 -1 -1</clus>
<clus scale="   29.598">  1  5  2 -1</clus>
</clustering>
</event>
<event>
 9    2  0.9254368E-005  0.1221512E+03  0.7546771E-02  0.1242663E+00
          2   -1    0    0  502    0 -0.00000000000E+00  0.00000000000E+00  0.59873521393E+03  0.59873521393E+03  0.00000000000E+00 0. -1.
         21   -1    0    0  501  502  0.00000000000E+00 -0.00000000000E+00 -0.56595804039E+02  0.56595804039E+02  0.00000000000E+00 0. -1.
         23    2    1    2    0    0 -0.85252824271E+02 -0.56503686559E+02  0.36669722332E+03  0.39142438446E+03  0.91024636911E+02 0.  0.
         24    2    1    2    0    0  0.14762514991E+02  0.19006242917E+02  0.16389855360E+02  0.85938698059E+02  0.80855818261E+02 0.  0.
        -13    1    4    4    0    0  0.31231196509E+02  0.25853607662E+02  0.39595423741E+02  0.56670929459E+02  0.00000000000E+00 0.  1.
         14    1    4    4    0    0 -0.16468681518E+02 -0.68473647450E+01 -0.23205568381E+02  0.29267768599E+02  0.00000000000E+00 0. -1.
        -13    1    3    3    0    0 -0.83209868756E+02 -0.78119336898E+02  0.32417034024E+03  0.34367560657E+03  0.00000000000E+00 0. -1.
         13    1    3    3    0    0 -0.20429555143E+01  0.21615650339E+02  0.42526883074E+02  0.47748777899E+02  0.00000000000E+00 0.  1.
          1    1    1    2  501    0  0.70490309279E+02  0.37497443642E+02  0.15905233122E+03  0.17796793545E+03  0.00000000000E+00 0. -1.
<scales pt_clust_5="13000.00000" pt_clust_6="13000.00000" pt_clust_7="13000.00000" pt_clust_8="13000.00000" pt_clust_9="79.84327"></scales>
<clustering>
<clus scale="   79.843">  2  9  1 -1</clus>
<clus scale="   80.856">  5  6 -1 -1</clus>
<clus scale="   91.025">  7  8 -1 -1</clus>
<clus scale="  114.774">  2  5  1 -1</clus>
<clus scale="   79.843">  2  5  1 -1</clus>
</clustering>
</event>
<event>
 9    2  0.9254368E-005  0.1478094E+03  0.7546771E-02  0.1206501E+00
         21   -1    0    0  501  502  0.00000000000E+00  0.00000000000E+00  0.11268006535E+03  0.11268006535E+03  0.00000000000E+00 0. -1.
         -3   -1    0    0    0  501 -0.00000000000E+00 -0.00000000000E+00 -0.23959195429E+03  0.23959195429E+03  0.00000000000E+00 0.  1.
         24    2    1    2    0    0  0.11085007237E+03 -0.41248059225E+02 -0.10571547433E+03  0.17394680806E+03  0.71362382160E+02 0.  0.
         23    2    1    2    0    0 -0.11614903203E+03  0.20435984429E+02 -0.35907417392E+02  0.15229378761E+03  0.89419393977E+02 0.  0.
        -13    1    3    3    0    0  0.42554599751E+02 -0.16724817683E+01 -0.80521528390E+02  0.91090107528E+02  0.00000000000E+00 0.  1.
         14    1    3    3    0    0  0.68295472617E+02 -0.39575577457E+02 -0.25193945941E+02  0.82856700532E+02  0.00000000000E+00 0. -1.
        -11    1    4    4    0    0 -0.34530579790E+02 -0.33395460040E+02 -0.24302841076E+02  0.53835358049E+02  0.00000000000E+00 0. -1.
         11    1    4    4    0    0 -0.81618452240E+02  0.53831444469E+02 -0.11604576316E+02  0.98458429558E+02  0.00000000000E+00 0.  1.
         -4    1    1    2    0  502  0.52989596620E+01  0.20812074796E+02  0.14711002784E+02  0.26031423967E+02  0.00000000000E+00 0.  1.
<scales pt_clust_5="13000.00000" pt_clust_6="13000.00000" pt_clust_7="13000.00000" pt_clust_8="13000.00000" pt_clust_9="21.47607"></scales>
<clustering>
<clus scale="   21.476">  1  9  2 -1</clus>
<clus scale="   71.362">  5  6 -1 -1</clus>
<clus scale="   89.419">  7  8 -1 -1</clus>
<clus scale="  137.639">  2  5  1 -1</clus>
<clus scale="   21.476">  1  5  2 -1</clus>
</clustering>
</event>
<event>
 9    2  0.9254368E-005  0.1310677E+03  0.7546771E-02  0.1228495E+00
          2   -1    0    0  502    0 -0.00000000000E+00  0.00000000000E+00  0.80642732414E+03  0.80642732414E+03  0.00000000000E+00 0. -1.
         21   -1    0    0  501  502  0.00000000000E+00 -0.00000000000E+00 -0.27090743147E+02  0.27090743147E+02  0.00000000000E+00 0. -1.
         24    2    1    2    0    0  0.71060829180E+02 -0.71723851713E+02  0.51028482260E+03  0.52636978223E+03  0.80502143562E+02 0.  0.
         23    2    1    2    0    0 -0.47601075147E+02  0.66382149076E+02  0.20376906623E+03  0.23757297520E+03  0.90810980178E+02 0.  0.
        -11    1    3    3    0    0  0.20982339526E+02 -0.36927475260E+02  0.69965398524E+02  0.81847748849E+02  0.00000000000E+00 0.  1.
         12    1    3    3    0    0  0.50078489654E+02 -0.34796376453E+02  0.44031942408E+03  0.44452203338E+03  0.00000000000E+00 0. -1.
        -11    1    4    4    0    0 -0.64724865927E+02  0.77959306895E+02  0.16469788856E+03  0.19337103272E+03  0.00000000000E+00 0.  1.
         11    1    4    4    0    0  0.17123790780E+02 -0.11577157820E+02  0.39071177673E+02  0.44201942475E+02  0.00000000000E+00 0. -1.
          1    1    1    2  501    0 -0.23459754033E+02  0.53417026369E+01  0.65282692160E+02  0.69575309859E+02  0.00000000000E+00 0. -1.
<scales pt_clust_5="13000.00000" pt_clust_6="13000.00000" pt_clust_7="13000.00000" pt_clust_8="13000.00000" pt_clust_9="24.06022"></scales>
<clustering>
<clus scale="   24.060">  2  9  1 -1</clus>
<clus scale="   80.502">  5  6 -1 -1</clus>
<clus scale="   90.811">  7  8 -1 -1</clus>
<clus scale="  124.148">  1  5  2 -1</clus>
<clus scale="   24.060">  2  5  1 -1</clus>
</clustering>
</event>
<event>
 9    2  0.9254368E-005  0.1048377E+03  0.7546771E-02  0.1274708E+00
         -3   -1    0    0    0  501 -0.00000000000E+00  0.00000000000E+00  0.38561078195E+03  0.38561078195E+03  0.00000000000E+00 0.  1.
         21   -1    0    0  501  502  0.00000000000E+00 -0.00000000000E+00 -0.71233998928E+02  0.71233998928E+02  0.00000000000E+00 0. -1.
         24    2    1    2    0    0 -0.55753191762E+02 -0.12712471935E+02  0.31247671227E+03  0.32764230971E+03  0.80235665780E+02 0.  0.
         23    2    1    2    0    0  0.29091816373E+02  0.24093439655E+02  0.12314566907E+02  0.98399596396E+02  0.90022243909E+02 0.  0.
        -13    1    3    3    0    0 -0.53578538059E+02  0.10510098683E+02  0.29053058938E+03  0.29561655109E+03  0.00000000000E+00 0.  1.
         14    1    3    3    0    0 -0.21746537030E+01 -0.23222570618E+02  0.21946122895E+02  0.32025758616E+02  0.00000000000E+00 0. -1.
        -13    1    4    4    0    0 -0.13750663833E+01 -0.29019686706E+02 -0.13393244531E+02  0.31990811542E+02  0.00000000000E+00 0.  1.
         13    1    4    4    0    0  0.30466882756E+02  0.53113126361E+02  0.25707811438E+02  0.66408784853E+02  0.00000000000E+00 0. -1.
         -4    1    1    2    0  502  0.26661375389E+02 -0.11380967720E+02 -0.10414496161E+02  0.30802874772E+02  0.00000000000E+00 0.  1.
<scales pt_clust_5="13000.00000" pt_clust_6="13000.00000" pt_clust_7="13000.00000" pt_clust_8="13000.00000" pt_clust_9="28.98888"></scales>
<clustering>
<clus scale="   28.989">  2  9  1 -1</clus>
<clus scale="   80.236">  5  6 -1 -1</clus>
<clus scale="   90.022">  7  8 -1 -1</clus>
<clus scale="   96.564">  1  5  2 -1</clus>
<clus scale="   28.989">  2  5  1 -1</clus>
</clustering>
</event>
<event>
 9    2  0.9254368E-005  0.9083780E+02  0.7546771E-02  0.1307112E+00
          2   -1    0    0  502    0 -0.00000000000E+00  0.00000000000E+00  0.14135491607E+03  0.14135491607E+03  0.00000000000E+00 0. -1.
         21   -1    0    0  501  502  0.00000000000E+00 -0.00000000000E+00 -0.20592896850E+03  0.20592896850E+03  0.00000000000E+00 0.  1.
         24    2    1    2    0    0 -0.12419293768E+02  0.11925359055E+02  0.10522538397E+03  0.13309394202E+03  0.79656530968E+02 0.  0.
         23    2    1    2    0    0 -0.14760830222E+02 -0.61617441543E+01 -0.83638200678E+02  0.12365963306E+03  0.89668874400E+02 0.  0.
        -13    1    3    3    0    0  0.83598624523E+01  0.43114675314E+02  0.53461223298E+02  0.69187173119E+02  0.00000000000E+00 0.  1.
         14    1    3    3    0    0 -0.20779156220E+02 -0.31189316259E+02  0.51764160668E+02  0.63906768903E+02  0.00000000000E+00 0. -1.
        -11    1    4    4    0    0 -0.36113225248E+02 -0.35911165802E+02 -0.31285149221E+02  0.59770707114E+02  0.00000000000E+00 0. -1.
         11    1    4    4    0    0  0.21352395026E+02  0.29749421648E+02 -0.52353051457E+02  0.63888925947E+02  0.00000000000E+00 0.  1.
          1    1    1    2  501    0  0.27180123990E+02 -0.57636149004E+01 -0.86161235712E+02  0.90530309490E+02  0.00000000000E+00 0. -1.
<scales pt_clust_5="13000.00000" pt_clust_6="13000.00000" pt_clust_7="13000.00000" pt_clust_8="13000.00000" pt_clust_9="27.78450"></scales>
<clustering>
<clus scale="   27.784">  2  9  1 -1</clus>
<clus scale="   79.657">  5  6 -1 -1</clus>
<clus scale="   80.970">  1  5  2 -1</clus>
<clus scale="   89.669">  7  8 -1 -1</clus>
<clus scale="   27.784">  2  5  1 -1</clus>
</clustering>
</event>
<event>
 9    2  0.9254368E-005  0.2077436E+03  0.7546771E-02  0.1173431E+00
         -1   -1    0    0    0  501 -0.00000000000E+00  0.00000000000E+00  0.10667359557E+03  0.10667359557E+03  0.00000000000E+00 0.  1.
         21   -1    0    0  501  502  0.00000000000E+00 -0.00000000000E+00 -0.77396839763E+03  0.77396839763E+03  0.00000000000E+00 0.  1.
         23    2    1    2    0    0 -0.29206994466E+02 -0.39061407868E+02 -0.26391084272E+03  0.28328331841E+03  0.90673389016E+02 0.  0.
         24    2    1    2    0    0  0.86836799575E+02  0.20818908924E+03 -0.13473667905E+03  0.27471842892E+03  0.80205460326E+02 0.  0.
        -11    1    4    4    0    0  0.48215952368E+02  0.18049908580E+03 -0.82897666994E+02  0.20439354498E+03  0.00000000000E+00 0.  1.
         12    1    4    4    0    0  0.38620847207E+02  0.27690003442E+02 -0.51839012058E+02  0.70324883937E+02  0.00000000000E+00 0. -1.
        -11    1    3    3    0    0  0.32568743174E+02 -0.19360925814E+02 -0.10659991164E+03  0.11313315006E+03  0.00000000000E+00 0.  1.
         11    1    3    3    0    0 -0.61775737640E+02 -0.19700482053E+02 -0.15731093107E+03  0.17015016835E+03  0.00000000000E+00 0. -1.
         -2    1    1    2    0  502 -0.57629805109E+02 -0.16912768138E+03 -0.26864728029E+03  0.32264024587E+03  0.00000000000E+00 0.  1.
<scales pt_clust_5="13000.00000" pt_clust_6="13000.00000" pt_clust_7="13000.00000" pt_clust_8="13000.00000" pt_clust_9="191.63633"></scales>
<clustering>
<clus scale="   80.205">  5  6 -1 -1</clus>
<clus scale="   90.673">  7  8 -1 -1</clus>
<clus scale="  102.959">  1  7  2 -1</clus>
<clus scale="  191.636">  2  9  1 -1</clus>
<clus scale="  191.636">  2  5  1 -1</clus>
</clustering>
</event>
<event>
 9    2  0.9254368E-005  0.1045823E+03  0.7546771E-02  0.1276394E+00
          2   -1    0    0  502    0 -0.00000000000E+00  0.00000000000E+00  0.10544340683E+03  0.10544340683E+03  0.00000000000E+00 0. -1.
         21   -1    0    0  501  502  0.00000000000E+00 -0.00000000000E+00 -0.21477638070E+03  0.21477638070E+03  0.00000000000E+00 0.  1.
         24    2    1    2    0    0  0.49996244645E+01  0.24032398971E+02 -0.39001928061E+02  0.92243685251E+02  0.79907412867E+02 0.  0.
         23    2    1    2    0    0  0.70705786185E+02 -0.57650789976E+02 -0.20017288095E+02  0.13105871668E+03  0.91938966767E+02 0.  0.
        -11    1    3    3    0    0 -0.24250585352E+02 -0.19471359159E+02 -0.12710207636E+02  0.33597233451E+02  0.00000000000E+00 0.  1.
         12    1    3    3    0    0  0.29250209817E+02  0.43503758130E+02 -0.26291720425E+02  0.58646451800E+02  0.00000000000E+00 0. -1.
        -13    1    4    4    0    0  0.42891532174E+02  0.21845727795E+01  0.26373772143E+02  0.50398727638E+02  0.00000000000E+00 0. -1.
         13    1    4    4    0    0  0.27814254011E+02 -0.59835362755E+02 -0.46391060238E+02  0.80659989042E+02  0.00000000000E+00 0.  1.
          1    1    1    2  501    0 -0.75705410649E+02  0.33618391005E+02 -0.50313757723E+02  0.96917385600E+02  0.00000000000E+00 0. -1.
<scales pt_clust_5="13000.00000" pt_clust_6="13000.00000" pt_clust_7="13000.00000" pt_clust_8="13000.00000" pt_clust_9="82.83420"></scales>
<clustering>
<clus scale="   79.907">  5  6 -1 -1</clus>
<clus scale="   82.834">  2  9  1 -1</clus>
<clus scale="   91.939">  7  8 -1 -1</clus>
<clus scale="   94.180">  1  5  2 -1</clus>
<clus scale="   82.834">  2  5  1 -1</clus>
</clustering>
</event>
<event>
 9    2  0.9254368E-005  0.1333081E+03  0.7546771E-02  0.1242556E+00
         21   -1    0    0  501  502  0.00000000000E+00  0.00000000000E+00  0.40376888079E+02  0.40376888079E+02  0.00000000000E+00 0. -1.
          2   -1    0    0  502    0 -0.00000000000E+00 -0.00000000000E+00 -0.77219691215E+03  0.77219691215E+03  0.00000000000E+00 0. -1.
         24    2    1    2    0    0  0.34950462309E+02 -0.76585564362E+00 -0.32355206406E+03  0.33543534944E+03  0.81294613259E+02 0.  0.
         23    2    1    2    0    0 -0.84414623922E+02  0.76296865964E+02 -0.31371089889E+03  0.34639949481E+03  0.92903398381E+02 0.  0.
        -11    1    3    3    0    0 -0.16368475730E+02 -0.23720927180E+02 -0.15775865267E+03  0.16036957902E+03  0.00000000000E+00 0.  1.
         12    1    3    3    0    0  0.51318938038E+02  0.22955071536E+02 -0.16579341139E+03  0.17506577042E+03  0.00000000000E+00 0. -1.
        -13    1    4    4    0    0 -0.58151058693E+02  0.50993729541E+01 -0.69993603713E+02  0.91140845905E+02  0.00000000000E+00 0.  1.
         13    1    4    4    0    0 -0.26263565230E+02  0.71197493010E+02 -0.24371729518E+03  0.25525864890E+03  0.00000000000E+00 0. -1.
          1    1    1    2  501    0  0.49464161614E+02 -0.75531010320E+02 -0.94557061119E+02  0.13073895598E+03  0.00000000000E+00 0. -1.
<scales pt_clust_5="13000.00000" pt_clust_6="13000.00000" pt_clust_7="13000.00000" pt_clust_8="13000.00000" pt_clust_9="95.60337"></scales>
<clustering>
<clus scale="   81.295">  5  6 -1 -1</clus>
<clus scale="   88.493">  2  5  1 -1</clus>
<clus scale="   92.903">  7  8 -1 -1</clus>
<clus scale="   95.603">  1  9  2 -1</clus>
<clus scale="   95.603">  1  5  2 -1</clus>
</clustering>
</event>
<event>
 9    2  0.9254368E-005  0.1773995E+03  0.7546771E-02  0.1171355E+00
         21   -1    0    0  501  502  0.00000000000E+00  0.00000000000E+00  0.67606001981E+02  0.67606001981E+02  0.00000000000E+00 0.  1.
         -3   -1    0    0    0  501 -0.00000000000E+00 -0.00000000000E+00 -0.76864310516E+03  0.76864310516E+03  0.00000000000E+00 0.  1.
         24    2    1    2    0    0  0.95094219794E+02  0.14175355114E+03 -0.30668027127E+03  0.36031476087E+03  0.81467528621E+02 0.  0.
         23    2    1    2    0    0 -0.66227524185E+01 -0.14472835600E+03 -0.20274878726E+03  0.26486636486E+03  0.89760584973E+02 0.  0.
        -11    1    3    3    0    0  0.20892719859E+02  0.10360055903E+03 -0.16890443722E+03  0.19924429851E+03  0.00000000000E+00 0.  1.
         12    1    3    3    0    0  0.74201499935E+02  0.38152992105E+02 -0.13777583404E+03  0.16107046236E+03  0.00000000000E+00 0. -1.
        -11    1    4    4    0    0 -0.41365328315E+02 -0.81061502116E+02 -0.74846514692E+02  0.11783063385E+03  0.00000000000E+00 0. -1.
         11    1    4    4    0    0  0.34742575896E+02 -0.63666853885E+02 -0.12790227257E+03  0.14703573101E+03  0.00000000000E+00 0.  1.
         -4    1    1    2    0  502 -0.88471467375E+02  0.29748048641E+01 -0.19160804465E+03  0.21106798141E+03  0.00000000000E+00 0.  1.
<scales pt_clust_5="13000.00000" pt_clust_6="13000.00000" pt_clust_7="13000.00000" pt_clust_8="13000.00000" pt_clust_9="88.52151"></scales>
<clustering>
<clus scale="   81.468">  5  6 -1 -1</clus>
<clus scale="   88.522">  1  9  2 -1</clus>
<clus scale="   89.761">  7  8 -1 -1</clus>
<clus scale="  173.351">  2  5  1 -1</clus>
<clus scale="   88.522">  1  5  2 -1</clus>
</clustering>
</event>
<event>
 9    2  0.9254368E-005  0.9301089E+02  0.7546771E-02  0.1301690E+00
         21   -1    0    0  501  502  0.00000000000E+00  0.00000000000E+00  0.56936940352E+02  0.56936940352E+02  0.00000000000E+00 0.  1.
          4   -1    0    0  502    0 -0.00000000000E+00 -0.00000000000E+00 -0.36994534154E+03  0.36994534154E+03  0.00000000000E+00 0. -1.
         23    2    1    2    0    0  0.17897805201E+02  0.23436237737E+02 -0.12549717020E+03  0.15775244343E+03  0.90921422177E+02 0.  0.
         24    2    1    2    0    0 -0.88354312526E+01  0.14337469854E+02 -0.53419247192E+01  0.82864877307E+02  0.80959396268E+02 0.  0.
        -11    1    4    4    0    0  0.34753357648E+01  0.46194211618E+02  0.63681293936E+01  0.46760412933E+02  0.00000000000E+00 0.  1.
         12    1    4    4    0    0 -0.12310767017E+02 -0.31856741764E+02 -0.11710054113E+02  0.36104464374E+02  0.00000000000E+00 0. -1.
        -13    1    3    3    0    0  0.73936748806E+01 -0.28995107033E+02 -0.86612901787E+02  0.91636114148E+02  0.00000000000E+00 0.  1.
         13    1    3    3    0    0  0.10504130320E+02  0.52431344770E+02 -0.38884268412E+02  0.66116329285E+02  0.00000000000E+00 0. -1.
          3    1    1    2  501    0 -0.90623739482E+01 -0.37773707591E+02 -0.18216930627E+03  0.18626496116E+03  0.00000000000E+00 0. -1.
<scales pt_clust_5="13000.00000" pt_clust_6="13000.00000" pt_clust_7="13000.00000" pt_clust_8="13000.00000" pt_clust_9="38.84561"></scales>
<clustering>
<clus scale="   38.846">  1  9  2 -1</clus>
<clus scale="   80.959">  5  6 -1 -1</clus>
<clus scale="   83.299">  1  5  2 -1</clus>
<clus scale="   90.921">  7  8 -1 -1</clus>
<clus scale="   38.846">  1  5  2 -1</clus>
</clustering>
</event>
<event>
 9    2  0.9254368E-005  0.1028145E+03  0.7546771E-02  0.1279542E+00
         21   -1    0    0  501  502  0.00000000000E+00  0.00000000000E+00  0.44823536421E+03  0.44823536421E+03  0.00000000000E+00 0. -1.
         -3   -1    0    0    0  501 -0.00000000000E+00 -0.00000000000E+00 -0.53601988906E+02  0.53601988906E+02  0.00000000000E+00 0.  1.
         23    2    1    2    0    0  0.54964243015E+02  0.20404447507E+02  0.37528344213E+02  0.11467267872E+03  0.91126489765E+02 0.  0.
         24    2    1    2    0    0 -0.20422284413E+02  0.28994305019E+02  0.23816140744E+03  0.25381937353E+03  0.80284985912E+02 0.  0.
        -13    1    4    4    0    0  0.16185696598E+02 -0.20247029379E+02  0.83512611348E+02  0.87442982722E+02  0.00000000000E+00 0.  1.
         14    1    4    4    0    0 -0.36607981011E+02  0.49241334398E+02  0.15464879609E+03  0.16637639081E+03  0.00000000000E+00 0. -1.
        -11    1    3    3    0    0  0.73441706520E+02 -0.26737394702E+01  0.42195836174E+02  0.84742679505E+02  0.00000000000E+00 0.  1.
         11    1    3    3    0    0 -0.18477463505E+02  0.23078186978E+02 -0.46674919611E+01  0.29929999214E+02  0.00000000000E+00 0. -1.
         -4    1    1    2    0  502 -0.34541958602E+02 -0.49398752526E+02  0.11894362365E+03  0.13334530086E+03  0.00000000000E+00 0.  1.
<scales pt_clust_5="13000.00000" pt_clust_6="13000.00000" pt_clust_7="13000.00000" pt_clust_8="13000.00000" pt_clust_9="60.27756"></scales>
<clustering>
<clus scale="   60.278">  1  9  2 -1</clus>
<clus scale="   80.285">  5  6 -1 -1</clus>
<clus scale="   91.126">  7  8 -1 -1</clus>
<clus scale="   93.341">  1  5  2 -1</clus>
<clus scale="   60.278">  1  5  2 -1</clus>
</clustering>
</event>
<event>
 9    2  0.9254368E-005  0.1265286E+03  0.7546771E-02  0.1236771E+00
         21   -1    0    0  501  502  0.00000000000E+00  0.00000000000E+00  0.40543122707E+02  0.40543122707E+02  0.00000000000E+00 0. -1.
          2   -1    0    0  502    0 -0.00000000000E+00 -0.00000000000E+00 -0.51637919008E+03  0.51637919008E+03  0.00000000000E+00 0. -1.
         24    2    1    2    0    0 -0.47016109015E+02  0.82834750727E+02 -0.19317099110E+03  0.22876677685E+03  0.77117416658E+02 0.  0.
         23    2    1    2    0    0  0.12161427221E+02 -0.80227845770E+02 -0.16536766888E+03  0.20576139156E+03  0.91689022232E+02 0.  0.
        -13    1    3    3    0    0 -0.77757558050E+01  0.38242629631E+02 -0.16486158260E+02  0.42364543118E+02  0.00000000000E+00 0.  1.
         14    1    3    3    0    0 -0.39240353210E+02  0.44592121097E+02 -0.17668483284E+03  0.18640223373E+03  0.00000000000E+00 0. -1.
        -11    1    4    4    0    0  0.41396927471E+02 -0.79451470235E+02 -0.14379372927E+03  0.16941923830E+03  0.00000000000E+00 0. -1.
         11    1    4    4    0    0 -0.29235500250E+02 -0.77637553551E+00 -0.21573939602E+02  0.36342153263E+02  0.00000000000E+00 0.  1.
          1    1    1    2  501    0  0.34854681793E+02 -0.26069049567E+01 -0.11729740739E+03  0.12239414438E+03  0.00000000000E+00 0. -1.
<scales pt_clust_5="13000.00000" pt_clust_6="13000.00000" pt_clust_7="13000.00000" pt_clust_8="13000.00000" pt_clust_9="34.95205"></scales>
<clustering>
<clus scale="   34.952">  1  9  2 -1</clus>
<clus scale="   77.117">  5  6 -1 -1</clus>
<clus scale="   91.689">  7  8 -1 -1</clus>
<clus scale="  116.403">  2  5  1 -1</clus>
<clus scale="   34.952">  1  5  2 -1</clus>
</clustering>
</event>
<event>
 9    2  0.9254368E-005  0.1245476E+03  0.7546771E-02  0.1251507E+00
          2   -1    0    0  502    0 -0.00000000000E+00  0.00000000000E+00  0.38561075710E+03  0.38561075710E+03  0.00000000000E+00 0. -1.
         21   -1    0    0  501  502  0.00000000000E+00 -0.00000000000E+00 -0.68290069782E+02  0.68290069782E+02  0.00000000000E+00 0. -1.
         24    2    1    2    0    0  0.14479296364E+02 -0.32423033565E+02  0.33432094368E+02  0.96630530957E+02  0.83419730583E+02 0.  0.
         23    2    1    2    0    0  0.75413096915E+02 -0.21817468399E+01  0.13298384970E+03  0.17824411144E+03  0.91620760617E+02 0.  0.
        -11    1    3    3    0    0 -0.11004202240E+02 -0.39363650017E+02  0.50663231025E+02  0.65094949017E+02  0.00000000000E+00 0.  1.
         12    1    3    3    0    0  0.25483498603E+02  0.69406164520E+01 -0.17231136657E+02  0.31535581940E+02  0.00000000000E+00 0. -1.
        -13    1    4    4    0    0  0.29663230613E+02 -0.22229091270E+02  0.12144924771E+03  0.12698015404E+03  0.00000000000E+00 0. -1.
         13    1    4    4    0    0  0.45749866302E+02  0.20047344430E+02  0.11534601984E+02  0.51263957399E+02  0.00000000000E+00 0.  1.
          1    1    1    2  501    0 -0.89892393278E+02  0.34604780405E+02  0.15090474326E+03  0.17902618449E+03  0.00000000000E+00 0. -1.
<scales pt_clust_5="13000.00000" pt_clust_6="13000.00000" pt_clust_7="13000.00000" pt_clust_8="13000.00000" pt_clust_9="84.36680"></scales>
<clustering>
<clus scale="   83.420">  5  6 -1 -1</clus>
<clus scale="   90.663">  1  5  2 -1</clus>
<clus scale="   84.367">  2  9  1 -1</clus>
<clus scale="   91.621">  7  8 -1 -1</clus>
<clus scale="   84.367">  2  5  1 -1</clus>
</clustering>
</event>
<event>
 9    2  0.9254368E-005  0.9548549E+02  0.7546771E-02  0.1291864E+00
         21   -1    0    0  501  502  0.00000000000E+00  0.00000000000E+00  0.11208124936E+03  0.11208124936E+03  0.00000000000E+00 0. -1.
          2   -1    0    0  502    0 -0.00000000000E+00 -0.00000000000E+00 -0.24387759353E+03  0.24387759353E+03  0.00000000000E+00 0. -1.
         23    2    1    2    0    0 -0.57226438932E+02 -0.73139782282E+00 -0.14585089768E+03  0.17952951158E+03  0.87652500914E+02 0.  0.
         24    2    1    2    0    0 -0.27214909926E+02  0.76795916444E+01  0.21348843137E+02  0.91389191050E+02  0.84241223207E+02 0.  0.
        -13    1    4    4    0    0  0.26121530286E+02  0.10301488219E+02 -0.95915600767E+01  0.29672428764E+02  0.00000000000E+00 0.  1.
         14    1    4    4    0    0 -0.53336440212E+02 -0.26218965741E+01  0.30940403214E+02  0.61716762287E+02  0.00000000000E+00 0. -1.
        -11    1    3    3    0    0 -0.41174970656E+02  0.29691694781E+02 -0.13375935403E+03  0.14306830445E+03  0.00000000000E+00 0. -1.
         11    1    3    3    0    0 -0.16051468276E+02 -0.30423092604E+02 -0.12091543656E+02  0.36461207130E+02  0.00000000000E+00 0.  1.
          1    1    1    2  501    0  0.84441348857E+02 -0.69481938216E+01 -0.72942896311E+01  0.85040140260E+02  0.00000000000E+00 0. -1.
<scales pt_clust_5="13000.00000" pt_clust_6="13000.00000" pt_clust_7="13000.00000" pt_clust_8="13000.00000" pt_clust_9="84.72673"></scales>
<clustering>
<clus scale="   84.241">  5  6 -1 -1</clus>
<clus scale="   84.727">  1  9  2 -1</clus>
<clus scale="   87.653">  7  8 -1 -1</clus>
<clus scale="   92.364">  1  5  2 -1</clus>
<clus scale="   84.727">  1  5  2 -1</clus>
</clustering>
</event>
<event>
 9    2  0.9254368E-005  0.1873136E+03  0.7546771E-02  0.1169753E+00
         21   -1    0    0  501  502  0.00000000000E+00  0.00000000000E+00  0.29494945857E+03  0.29494945857E+03  0.00000000000E+00 0. -1.
          2   -1    0    0  502    0 -0.00000000000E+00 -0.00000000000E+00 -0.48959903384E+03  0.48959903384E+03  0.00000000000E+00 0. -1.
         24    2    1    2    0    0 -0.37996325098E+02  0.11238839747E+03  0.17308293444E+03  0.23084331841E+03  0.96208434410E+02 0.  0.
         23    2    1    2    0    0  0.27741670928E+02  0.12940590285E+03 -0.87173433015E+02  0.18318791785E+03  0.91886439817E+02 0.  0.
        -11    1    3    3    0    0  0.27983830712E+02  0.30172377151E+02  0.22130024189E+02  0.46724780309E+02  0.00000000000E+00 0.  1.
         12    1    3    3    0    0 -0.65980155810E+02  0.82216020314E+02  0.15095291025E+03  0.18411853810E+03  0.00000000000E+00 0. -1.
        -11    1    4    4    0    0 -0.16441993819E+01  0.25847057939E+02  0.18898590322E+02  0.32061355427E+02  0.00000000000E+00 0.  1.
         11    1    4    4    0    0  0.29385870310E+02  0.10355884491E+03 -0.10607202334E+03  0.15112656242E+03  0.00000000000E+00 0. -1.
          1    1    1    2  501    0  0.10254654170E+02 -0.24179430032E+03 -0.28055907669E+03  0.37051725616E+03  0.00000000000E+00 0. -1.
<scales pt_clust_5="13000.00000" pt_clust_6="13000.00000" pt_clust_7="13000.00000" pt_clust_8="13000.00000" pt_clust_9="163.22773"></scales>
<clustering>
<clus scale="   91.886">  7  8 -1 -1</clus>
<clus scale="   96.208">  5  6 -1 -1</clus>
<clus scale="  152.745">  2  5  1 -1</clus>
<clus scale="  163.228">  1  9  2 -1</clus>
<clus scale="  163.228">  1  5  2 -1</clus>
</clustering>
</event>
<event>
 9    2  0.9254368E-005  0.3568384E+03  0.7546771E-02  0.1092588E+00
         21   -1    0    0  501  502  0.00000000000E+00  0.00000000000E+00  0.20979547649E+03  0.20979547649E+03  0.00000000000E+00 0. -1.
          2   -1    0    0  502    0 -0.00000000000E+00 -0.00000000000E+00 -0.93881252927E+03  0.93881252927E+03  0.00000000000E+00 0. -1.
         24    2    1    2    0    0  0.12274474374E+03 -0.88600236344E+01 -0.10495773852E+03  0.18041072800E+03  0.79919533075E+02 0.  0.
         23    2    1    2    0    0 -0.26201774491E+03  0.27032698008E+03 -0.16505770747E+03  0.42189661585E+03  0.94988066969E+02 0.  0.
        -13    1    3    3    0    0  0.11621629282E+03  0.88660402063E+01 -0.58818692692E+02  0.13055447904E+03  0.00000000000E+00 0.  1.
         14    1    3    3    0    0  0.65284509182E+01 -0.17726063841E+02 -0.46139045827E+02  0.49856248962E+02  0.00000000000E+00 0. -1.
        -13    1    4    4    0    0 -0.55346572222E+02  0.10749506267E+03 -0.81602203652E+02  0.14586758103E+03  0.00000000000E+00 0.  1.
         13    1    4    4    0    0 -0.20667117268E+03  0.16283191741E+03 -0.83455503818E+02  0.27602903482E+03  0.00000000000E+00 0. -1.
          1    1    1    2  501    0  0.13927300116E+03 -0.26146695645E+03 -0.45900160679E+03  0.54630066191E+03  0.00000000000E+00 0. -1.
<scales pt_clust_5="13000.00000" pt_clust_6="13000.00000" pt_clust_7="13000.00000" pt_clust_8="13000.00000" pt_clust_9="343.96367"></scales>
<clustering>
<clus scale="   79.920">  5  6 -1 -1</clus>
<clus scale="   94.988">  7  8 -1 -1</clus>
<clus scale="  146.738">  2  5  1 -1</clus>
<clus scale="  343.964">  1  9  2 -1</clus>
<clus scale="  343.964">  1  5  2 -1</clus>
</clustering>
</event>
<event>
 9    2  0.9254368E-005  0.1504993E+03  0.7546771E-02  0.1201990E+00
         -3   -1    0    0    0  501 -0.00000000000E+00  0.00000000000E+00  0.44584910549E+03  0.44584910549E+03  0.00000000000E+00 0.  1.
         21   -1    0    0  501  502  0.00000000000E+00 -0.00000000000E+00 -0.66255549219E+02  0.66255549219E+02  0.00000000000E+00 0. -1.
         23    2    1    2    0    0 -0.35395437785E+02 -0.12315492441E+03  0.23457230723E+03  0.28288488673E+03  0.92626774754E+02 0.  0.
         24    2    1    2    0    0  0.49879008468E+00  0.10961323148E+03  0.13142879660E+03  0.18939630465E+03  0.81130279979E+02 0.  0.
        -13    1    4    4    0    0  0.25247922364E+02  0.10060525204E+03  0.12472390505E+03  0.16221876221E+03  0.00000000000E+00 0.  1.
         14    1    4    4    0    0 -0.24749132280E+02  0.90079794462E+01  0.67048915529E+01  0.27177542439E+02  0.00000000000E+00 0. -1.
        -13    1    3    3    0    0  0.11117903869E+02 -0.65058922828E+02  0.17665399492E+03  0.18858129585E+03  0.00000000000E+00 0.  1.
         13    1    3    3    0    0 -0.46513341654E+02 -0.58096001584E+02  0.57918312312E+02  0.94303590880E+02  0.00000000000E+00 0. -1.
         -4    1    1    2    0  502  0.34896647700E+02  0.13541692928E+02  0.13592452438E+02  0.39823463327E+02  0.00000000000E+00 0.  1.
<scales pt_clust_5="13000.00000" pt_clust_6="13000.00000" pt_clust_7="13000.00000" pt_clust_8="13000.00000" pt_clust_9="37.43198"></scales>
<clustering>
<clus scale="   37.432">  2  9  1 -1</clus>
<clus scale="   81.130">  5  6 -1 -1</clus>
<clus scale="   92.627">  7  8 -1 -1</clus>
<clus scale="  143.710">  2  5  1 -1</clus>
<clus scale="   37.432">  2  5  1 -1</clus>
</clustering>
</event>
<event>
 9    2  0.9254368E-005  0.1738670E+03  0.7546771E-02  0.1200050E+00
         21   -1    0    0  501  502  0.00000000000E+00  0.00000000000E+00  0.87908522345E+03  0.87908522345E+03  0.00000000000E+00 0.  1.
         -3   -1    0    0    0  501 -0.00000000000E+00 -0.00000000000E+00 -0.22302096267E+03  0.22302096267E+03  0.00000000000E+00 0.  1.
         24    2    1    2    0    0  0.40639810600E+02  0.29038079455E+02 -0.17420711252E+03  0.19949346979E+03  0.83394976896E+02 0.  0.
         23    2    1    2    0    0  0.76625096494E+02  0.81459754266E+02  0.17062329213E+03  0.22357190703E+03  0.91460334687E+02 0.  0.
        -11    1    3    3    0    0  0.12972035281E+02  0.38623952335E+02 -0.25801067699E+02  0.48226325671E+02  0.00000000000E+00 0.  1.
         12    1    3    3    0    0  0.27667775318E+02 -0.95858728792E+01 -0.14840604482E+03  0.15126714412E+03  0.00000000000E+00 0. -1.
        -13    1    4    4    0    0  0.32072237894E+02 -0.11038549147E+02  0.14894644279E+02  0.37044951599E+02  0.00000000000E+00 0. -1.
         13    1    4    4    0    0  0.44552858600E+02  0.92498303412E+02  0.15572864785E+03  0.18652695543E+03  0.00000000000E+00 0.  1.
         -4    1    1    2    0  502 -0.11726490709E+03 -0.11049783372E+03  0.65964808117E+03  0.67904080930E+03  0.00000000000E+00 0.  1.
<scales pt_clust_5="13000.00000" pt_clust_6="13000.00000" pt_clust_7="13000.00000" pt_clust_8="13000.00000" pt_clust_9="147.86733"></scales>
<clustering>
<clus scale="   83.395">  5  6 -1 -1</clus>
<clus scale="   91.460">  7  8 -1 -1</clus>
<clus scale="   97.209">  2  5  1 -1</clus>
<clus scale="  147.867">  1  9  2 -1</clus>
<clus scale="  147.867">  1  5  2 -1</clus>
</clustering>
</event>
<event>
 9    2  0.9254368E-005  0.1238799E+03  0.7546771E-02  0.1253868E+00
          2   -1    0    0  502    0 -0.00000000000E+00  0.00000000000E+00  0.11341939994E+03  0.11341939994E+03  0.00000000000E+00 0. -1.
         21   -1    0    0  501  502  0.00000000000E+00 -0.00000000000E+00 -0.20725568007E+03  0.20725568007E+03  0.00000000000E+00 0. -1.
         24    2    1    2    0    0 -0.10934185719E+02 -0.40118703354E+02 -0.58562428425E+01  0.88104057113E+02  0.77452969752E+02 0.  0.
         23    2    1    2    0    0 -0.36890192604E+02 -0.42224450590E+02 -0.76437417508E+01  0.10798576476E+03  0.91971234991E+02 0.  0.
        -11    1    3    3    0    0  0.20406611601E+02 -0.44242027877E+01 -0.28622205057E+02  0.35429281529E+02  0.00000000000E+00 0.  1.
         12    1    3    3    0    0 -0.31340797320E+02 -0.35694500566E+02  0.22765962215E+02  0.52674775584E+02  0.00000000000E+00 0. -1.
        -11    1    4    4    0    0 -0.35824971895E+02  0.21809774796E+02 -0.12483848281E+02  0.43760042914E+02  0.00000000000E+00 0.  1.
         11    1    4    4    0    0 -0.10652207096E+01 -0.64034225386E+02  0.48401065300E+01  0.64225721850E+02  0.00000000000E+00 0. -1.
          1    1    1    2  501    0  0.47824378323E+02  0.82343153944E+02 -0.80336295542E+02  0.12458525814E+03  0.00000000000E+00 0. -1.
<scales pt_clust_5="13000.00000" pt_clust_6="13000.00000" pt_clust_7="13000.00000" pt_clust_8="13000.00000" pt_clust_9="82.99103"></scales>
<clustering>
<clus scale="   77.453">  5  6 -1 -1</clus>
<clus scale="   87.909">  1  5  2 -1</clus>
<clus scale="   82.991">  2  9  1 -1</clus>
<clus scale="   91.971">  7  8 -1 -1</clus>
<clus scale="   82.991">  2  5  1 -1</clus>
</clustering>
</event>
<event>
 9    2  0.9254368E-005  0.1012615E+03  0.7546771E-02  0.1284342E+00
          2   -1    0    0  502    0 -0.00000000000E+00  0.00000000000E+00  0.49317059564E+03  0.49317059564E+03  0.00000000000E+00 0. -1.
         21   -1    0    0  501  502  0.00000000000E+00 -0.00000000000E+00 -0.48112087439E+02  0.48112087439E+02  0.00000000000E+00 0.  1.
         23    2    1    2    0    0  0.13519628374E+02  0.13993539505E+01  0.14098841025E+03  0.16683509362E+03  0.88155987299E+02 0.  0.
         24    2    1    2    0    0  0.76749058745E+02 -0.16262877166E+02  0.63781666983E+02  0.11733304251E+03  0.59531862296E+02 0.  0.
        -11    1    4    4    0    0  0.46238771958E+02  0.12562904418E+02  0.97218874530E+01  0.48891366265E+02  0.00000000000E+00 0.  1.
         12    1    4    4    0    0  0.30510286787E+02 -0.28825781584E+02  0.54059779530E+02  0.68441676241E+02  0.00000000000E+00 0. -1.
        -13    1    3    3    0    0 -0.34418051390E+02  0.14014335459E+02  0.41669321641E+02  0.55833110480E+02  0.00000000000E+00 0. -1.
         13    1    3    3    0    0  0.47937679764E+02 -0.12614981508E+02  0.99319088610E+02  0.11100198314E+03  0.00000000000E+00 0.  1.
          1    1    1    2  501    0 -0.90268687120E+02  0.14863523215E+02  0.24028843097E+03  0.25711454695E+03  0.00000000000E+00 0. -1.
<scales pt_clust_5="13000.00000" pt_clust_6="13000.00000" pt_clust_7="13000.00000" pt_clust_8="13000.00000" pt_clust_9="81.91371"></scales>
<clustering>
<clus scale="   59.532">  5  6 -1 -1</clus>
<clus scale="   88.156">  7  8 -1 -1</clus>
<clus scale="   89.198">  1  7  2 -1</clus>
<clus scale="   81.914">  2  9  1 -1</clus>
<clus scale="   81.914">  2  5  1 -1</clus>
</clustering>
</event>
<event>
 9    2  0.9254368E-005  0.1166816E+03  0.7546771E-02  0.1251082E+00
         21   -1    0    0  501  502  0.00000000000E+00  0.00000000000E+00  0.26113001356E+03  0.26113001356E+03  0.00000000000E+00 0. -1.
          4   -1    0    0  502    0 -0.00000000000E+00 -0.00000000000E+00 -0.76349897780E+02  0.76349897780E+02  0.00000000000E+00 0. -1.
         24    2    1    2    0    0 -0.45210439377E+02 -0.53520818001E+02  0.49747409168E+02  0.11881604401E+03  0.82060866479E+02 0.  0.
         23    2    1    2    0    0  0.18248762714E+02  0.87794965148E+02  0.11354937280E+03  0.17005128868E+03  0.89347677494E+02 0.  0.
        -11    1    3    3    0    0 -0.36442917216E+01  0.20888188031E+02  0.24616832401E+01  0.21346127184E+02  0.00000000000E+00 0.  1.
         12    1    3    3    0    0 -0.41566147656E+02 -0.74409006033E+02  0.47285725928E+02  0.97469916827E+02  0.00000000000E+00 0. -1.
        -13    1    4    4    0    0  0.54596632055E+02  0.50742278106E+02  0.70926366214E+02  0.10288887425E+03  0.00000000000E+00 0. -1.
         13    1    4    4    0    0 -0.36347869341E+02  0.37052687042E+02  0.42623006587E+02  0.67162414438E+02  0.00000000000E+00 0.  1.
          3    1    1    2  501    0  0.26961676663E+02 -0.34274147146E+02  0.21483333811E+02  0.48612578647E+02  0.00000000000E+00 0. -1.
<scales pt_clust_5="13000.00000" pt_clust_6="13000.00000" pt_clust_7="13000.00000" pt_clust_8="13000.00000" pt_clust_9="43.60792"></scales>
<clustering>
<clus scale="   43.608">  1  9  2 -1</clus>
<clus scale="   82.061">  5  6 -1 -1</clus>
<clus scale="   89.348">  7  8 -1 -1</clus>
<clus scale="  111.201">  2  5  1 -1</clus>
<clus scale="   43.608">  1  5  2 -1</clus>
</clustering>
</event>
<event>
 9    2  0.9254368E-005  0.1529336E+03  0.7546771E-02  0.1199351E+00
         21   -1    0    0  501  502  0.00000000000E+00  0.00000000000E+00  0.28472696133E+02  0.28472696133E+02  0.00000000000E+00 0.  1.
          2   -1    0    0  502    0 -0.00000000000E+00 -0.00000000000E+00 -0.13599321977E+04  0.13599321977E+04  0.00000000000E+00 0. -1.
         24    2    1    2    0    0 -0.90046963469E+02 -0.75865678070E+02 -0.61226308818E+03  0.62831056469E+03  0.77743294275E+02 0.  0.
         23    2    1    2    0    0  0.49413222902E+02  0.13487607975E+03 -0.43971163197E+03  0.47157210917E+03  0.91655394670E+02 0.  0.
        -11    1    3    3    0    0 -0.19297920486E+02 -0.65517343603E+02 -0.25681342428E+03  0.26574060085E+03  0.00000000000E+00 0.  1.
         12    1    3    3    0    0 -0.70749042983E+02 -0.10348334467E+02 -0.35544966390E+03  0.36256996384E+03  0.00000000000E+00 0. -1.
        -11    1    4    4    0    0  0.88386133960E+01  0.12189786249E+03 -0.26633174276E+03  0.29303550496E+03  0.00000000000E+00 0.  1.
         11    1    4    4    0    0  0.40574609506E+02  0.12978217254E+02 -0.17337988921E+03  0.17853660421E+03  0.00000000000E+00 0. -1.
          1    1    1    2  501    0  0.40633740568E+02 -0.59010401675E+02 -0.27948478138E+03  0.28852221994E+03  0.00000000000E+00 0. -1.
<scales pt_clust_5="13000.00000" pt_clust_6="13000.00000" pt_clust_7="13000.00000" pt_clust_8="13000.00000" pt_clust_9="71.64729"></scales>
<clustering>
<clus scale="   71.647">  1  9  2 -1</clus>
<clus scale="   77.743">  5  6 -1 -1</clus>
<clus scale="   91.655">  7  8 -1 -1</clus>
<clus scale="  145.024">  2  5  1 -1</clus>
<clus scale="   71.647">  1  5  2 -1</clus>
</clustering>
</event>
<event>
 9    2  0.9254368E-005  0.1300959E+03  0.7546771E-02  0.1231102E+00
         21   -1    0    0  501  502  0.00000000000E+00  0.00000000000E+00  0.25833802873E+03  0.25833802873E+03  0.00000000000E+00 0. -1.
          4   -1    0    0  502    0 -0.00000000000E+00 -0.00000000000E+00 -0.42297359066E+03  0.42297359066E+03  0.00000000000E+00 0. -1.
         24    2    1    2    0    0  0.42510798231E+02 -0.86998283837E+02 -0.37237065449E+03  0.39270669837E+03  0.78630638193E+02 0.  0.
         23    2    1    2    0    0 -0.22864726945E+02  0.43090564591E+02  0.37109350404E+02  0.11132830153E+03  0.92937045037E+02 0.  0.
        -13    1    3    3    0    0 -0.77864061718E+01 -0.64037425502E+02 -0.25393653435E+03  0.26200225851E+03  0.00000000000E+00 0.  1.
         14    1    3    3    0    0  0.50297204402E+02 -0.22960858335E+02 -0.11843412014E+03  0.13070443986E+03  0.00000000000E+00 0. -1.
        -11    1    4    4    0    0 -0.57990135114E+02  0.24016109517E+02  0.33626392527E+02  0.71206485388E+02  0.00000000000E+00 0.  1.
         11    1    4    4    0    0  0.35125408169E+02  0.19074455074E+02  0.34829578762E+01  0.40121816147E+02  0.00000000000E+00 0. -1.
          3    1    1    2  501    0 -0.19646071285E+02  0.43907719246E+02  0.17062574216E+03  0.17727661948E+03  0.00000000000E+00 0. -1.
<scales pt_clust_5="13000.00000" pt_clust_6="13000.00000" pt_clust_7="13000.00000" pt_clust_8="13000.00000" pt_clust_9="48.10256"></scales>
<clustering>
<clus scale="   48.103">  1  9  2 -1</clus>
<clus scale="   78.631">  5  6 -1 -1</clus>
<clus scale="   92.937">  7  8 -1 -1</clus>
<clus scale="  120.293">  2  5  1 -1</clus>
<clus scale="   48.103">  1  5  2 -1</clus>
</clustering>
</event>
<event>
 9    2  0.9254368E-005  0.9166732E+02  0.7546771E-02  0.1300270E+00
         21   -1    0    0  501  502  0.00000000000E+00  0.00000000000E+00  0.11554707548E+03  0.11554707548E+03  0.00000000000E+00 0.  1.
          2   -1    0    0  502    0 -0.00000000000E+00 -0.00000000000E+00 -0.21883564757E+03  0.21883564757E+03  0.00000000000E+00 0. -1.
         23    2    1    2    0    0  0.38344808532E+02  0.14860650959E+02 -0.17135835530E+03  0.19509215829E+03  0.83702455205E+02 0.  0.
         24    2    1    2    0    0 -0.18594687088E+02 -0.97023569672E+01  0.18680729952E+02  0.85849439428E+02  0.81124955839E+02 0.  0.
        -11    1    4    4    0    0 -0.29278146505E+02 -0.39075940809E+02 -0.11357220541E+01  0.48840852547E+02  0.00000000000E+00 0.  1.
         12    1    4    4    0    0  0.10683459417E+02  0.29373583842E+02  0.19816452007E+02  0.37008586881E+02  0.00000000000E+00 0. -1.
        -13    1    3    3    0    0  0.14726674559E+02  0.25025394682E+02 -0.16638911882E+03  0.16890377196E+03  0.00000000000E+00 0. -1.
         13    1    3    3    0    0  0.23618133973E+02 -0.10164743723E+02 -0.49692364856E+01  0.26188386331E+02  0.00000000000E+00 0.  1.
          1    1    1    2  501    0 -0.19750121444E+02 -0.51582939914E+01  0.49389053265E+02  0.53441125328E+02  0.00000000000E+00 0. -1.
<scales pt_clust_5="13000.00000" pt_clust_6="13000.00000" pt_clust_7="13000.00000" pt_clust_8="13000.00000" pt_clust_9="20.41263"></scales>
<clustering>
<clus scale="   20.413">  1  9  2 -1</clus>
<clus scale="   81.125">  5  6 -1 -1</clus>
<clus scale="   83.702">  7  8 -1 -1</clus>
<clus scale="   89.320">  1  5  2 -1</clus>
<clus scale="   20.413">  1  5  2 -1</clus>
</clustering>
</event>
<event>
 9    2  0.9254368E-005  0.2294271E+03  0.7546771E-02  0.1127044E+00
          2   -1    0    0  502    0 -0.00000000000E+00  0.00000000000E+00  0.12636638037E+03  0.12636638037E+03  0.00000000000E+00 0. -1.
         21   -1    0    0  501  502  0.00000000000E+00 -0.00000000000E+00 -0.26520187411E+03  0.26520187411E+03  0.00000000000E+00 0. -1.
         24    2    1    2    0    0 -0.74205416321E+01  0.98931940955E+02 -0.53231688217E+02  0.13836674756E+03  0.80431031462E+02 0.  0.
         23    2    1    2    0    0 -0.30166007224E+02  0.29379444518E+02 -0.10050280624E+02  0.99627761047E+02  0.89730389939E+02 0.  0.
        -13    1    3    3    0    0 -0.43525870335E+02  0.43352209475E+02 -0.26369226742E+02  0.66852461240E+02  0.00000000000E+00 0.  1.
         14    1    3    3    0    0  0.36105328703E+02  0.55579731480E+02 -0.26862461475E+02  0.71514286325E+02  0.00000000000E+00 0. -1.
        -13    1    4    4    0    0  0.29418663956E+01 -0.26570408152E+02 -0.20621516194E+02  0.33762228856E+02  0.00000000000E+00 0.  1.
         13    1    4    4    0    0 -0.33107873619E+02  0.55949852669E+02  0.10571235570E+02  0.65865532191E+02  0.00000000000E+00 0. -1.
          1    1    1    2  501    0  0.37586548856E+02 -0.12831138547E+03 -0.75553524893E+02  0.15357374587E+03  0.00000000000E+00 0. -1.
<scales pt_clust_5="13000.00000" pt_clust_6="13000.00000" pt_clust_7="13000.00000" pt_clust_8="13000.00000" pt_clust_9="133.70325"></scales>
<clustering>
<clus scale="   80.431">  5  6 -1 -1</clus>
<clus scale="   89.730">  7  8 -1 -1</clus>
<clus scale="   98.564">  5  7 -1 -1</clus>
<clus scale="  133.703">  2  9  1 -1</clus>
<clus scale="  133.703">  2  5  1 -1</clus>
</clustering>
</event>
<event>
 9    2  0.9254368E-005  0.1766683E+03  0.7546771E-02  0.1186810E+00
          2   -1    0    0  502    0 -0.00000000000E+00  0.00000000000E+00  0.23017811351E+03  0.23017811351E+03  0.00000000000E+00 0. -1.
         21   -1    0    0  501  502  0.00000000000E+00 -0.00000000000E+00 -0.40242167257E+03  0.40242167257E+03  0.00000000000E+00 0.  1.
         23    2    1    2    0    0  0.52989578270E+02 -0.66799325921E+02  0.35530292008E+02  0.12892180660E+03  0.89935450282E+02 0.  0.
         24    2    1    2    0    0  0.13741613719E+03  0.67463177529E+02 -0.25432563545E+03  0.30766306728E+03  0.80873722805E+02 0.  0.
        -11    1    4    4    0    0  0.60604692725E+02  0.47346737660E+02 -0.19165041239E+03  0.20650550336E+03  0.00000000000E+00 0.  1.
         12    1    4    4    0    0  0.76811444461E+02  0.20116439868E+02 -0.62675223054E+02  0.10115756392E+03  0.00000000000E+00 0. -1.
        -13    1    3    3    0    0  0.11344000253E+01 -0.52952687848E+02 -0.15164818945E+02  0.55093064422E+02  0.00000000000E+00 0.  1.
         13    1    3    3    0    0  0.51855178245E+02 -0.13846638073E+02  0.50695110952E+02  0.73828742175E+02  0.00000000000E+00 0. -1.
          1    1    1    2  501    0 -0.19040571546E+03 -0.66385160771E+00  0.46551784380E+02  0.19601491220E+03  0.00000000000E+00 0. -1.
<scales pt_clust_5="13000.00000" pt_clust_6="13000.00000" pt_clust_7="13000.00000" pt_clust_8="13000.00000" pt_clust_9="157.07055"></scales>
<clustering>
<clus scale="   80.874">  5  6 -1 -1</clus>
<clus scale="   89.935">  7  8 -1 -1</clus>
<clus scale="  123.929">  1  7  2 -1</clus>
<clus scale="  157.071">  2  9  1 -1</clus>
<clus scale="  157.071">  2  5  1 -1</clus>
</clustering>
</event>
<event>
 9    2  0.9254368E-005  0.1007518E+03  0.7546771E-02  0.1283754E+00
          2   -1    0    0  502    0 -0.00000000000E+00  0.00000000000E+00  0.46665779937E+03  0.46665779937E+03  0.00000000000E+00 0. -1.
         21   -1    0    0  501  502  0.00000000000E+00 -0.00000000000E+00 -0.69489105242E+02  0.69489105242E+02  0.00000000000E+00 0.  1.
         24    2    1    2    0    0  0.42205407477E+02 -0.16660066298E+02  0.39468716039E+03  0.40546638483E+03  0.81031971607E+02 0.  0.
         23    2    1    2    0    0 -0.18152045836E+02 -0.49509824533E+01 -0.14234125778E+02  0.94279765566E+02  0.91280090180E+02 0.  0.
        -11    1    3    3    0    0 -0.22441654931E+02  0.67072777895E+01  0.12358730207E+03  0.12578726758E+03  0.00000000000E+00 0.  1.
         12    1    3    3    0    0  0.64647062408E+02 -0.23367344087E+02  0.27109985832E+03  0.27967911725E+03  0.00000000000E+00 0. -1.
        -11    1    4    4    0    0 -0.26204105429E+02  0.39571881507E+02 -0.12123766714E+02  0.48985453624E+02  0.00000000000E+00 0.  1.
         11    1    4    4    0    0  0.80520595932E+01 -0.44522863961E+02 -0.21103590644E+01  0.45294311942E+02  0.00000000000E+00 0. -1.
          1    1    1    2  501    0 -0.24053361641E+02  0.21611048751E+02  0.16715659517E+02  0.36400754215E+02  0.00000000000E+00 0. -1.
<scales pt_clust_5="13000.00000" pt_clust_6="13000.00000" pt_clust_7="13000.00000" pt_clust_8="13000.00000" pt_clust_9="32.33576"></scales>
<clustering>
<clus scale="   32.336">  2  9  1 -1</clus>
<clus scale="   81.032">  5  6 -1 -1</clus>
<clus scale="   91.280">  7  8 -1 -1</clus>
<clus scale="   91.570">  1  5  2 -1</clus>
<clus scale="   32.336">  2  5  1 -1</clus>
</clustering>
</event>
<event>
 9    2  0.9254368E-005  0.9776728E+02  0.7546771E-02  0.1290591E+00
          4   -1    0    0  502    0 -0.00000000000E+00  0.00000000000E+00  0.26348899666E+03  0.26348899666E+03  0.00000000000E+00 0. -1.
         21   -1    0    0  501  502  0.00000000000E+00 -0.00000000000E+00 -0.66865608406E+02  0.66865608406E+02  0.00000000000E+00 0.  1.
         23    2    1    2    0    0 -0.43390634220E+02 -0.12846695098E+02  0.17935248099E+03  0.20558815178E+03  0.89729543649E+02 0.  0.
         24    2    1    2    0    0  0.27030855323E+02 -0.17727249979E+02  0.25398651290E+02  0.89150884970E+02  0.79106676534E+02 0.  0.
        -13    1    4    4    0    0  0.29710453813E+02 -0.10163539445E+02 -0.23737765407E+02  0.39363563181E+02  0.00000000000E+00 0.  1.
         14    1    4    4    0    0 -0.26795984895E+01 -0.75637105334E+01  0.49136416697E+02  0.49787321789E+02  0.00000000000E+00 0. -1.
        -13    1    3    3    0    0 -0.37459534805E+02  0.17273236851E+02  0.25047799312E+02  0.48259441662E+02  0.00000000000E+00 0. -1.
         13    1    3    3    0    0 -0.59310994154E+01 -0.30119931949E+02  0.15430468168E+03  0.15732871012E+03  0.00000000000E+00 0.  1.
          3    1    1    2  501    0  0.16359778897E+02  0.30573945076E+02 -0.81277440273E+01  0.35615568310E+02  0.00000000000E+00 0. -1.
<scales pt_clust_5="13000.00000" pt_clust_6="13000.00000" pt_clust_7="13000.00000" pt_clust_8="13000.00000" pt_clust_9="34.67576"></scales>
<clustering>
<clus scale="   34.676">  2  9  1 -1</clus>
<clus scale="   79.107">  5  6 -1 -1</clus>
<clus scale="   88.119">  2  5  1 -1</clus>
<clus scale="   89.730">  7  8 -1 -1</clus>
<clus scale="   34.676">  2  5  1 -1</clus>
</clustering>
</event>
<event>
 9    2  0.9254368E-005  0.1007525E+03  0.7546771E-02  0.1283369E+00
         21   -1    0    0  501  502  0.00000000000E+00  0.00000000000E+00  0.66615216298E+02  0.66615216298E+02  0.00000000000E+00 0.  1.
          2   -1    0    0  502    0 -0.00000000000E+00 -0.00000000000E+00 -0.31270543740E+03  0.31270543740E+03  0.00000000000E+00 0. -1.
         24    2    1    2    0    0  0.98463050335E+01  0.45563382689E+02 -0.16871403750E+03  0.19245854556E+03  0.80018083859E+02 0.  0.
         23    2    1    2    0    0  0.24832671350E+02 -0.46604472584E+02 -0.22539962437E+01  0.10411515469E+03  0.89700872383E+02 0.  0.
        -11    1    3    3    0    0 -0.26526773986E+02 -0.74652570351E+01 -0.39974554172E+02  0.48552701078E+02  0.00000000000E+00 0.  1.
         12    1    3    3    0    0  0.36373079020E+02  0.53028639724E+02 -0.12873948333E+03  0.14390584448E+03  0.00000000000E+00 0. -1.
        -13    1    4    4    0    0  0.54802996067E+02 -0.13202720329E+02  0.10762392280E+02  0.57389104276E+02  0.00000000000E+00 0.  1.
         13    1    4    4    0    0 -0.29970324717E+02 -0.33401752255E+02 -0.13016388524E+02  0.46726050417E+02  0.00000000000E+00 0. -1.
          1    1    1    2  501    0 -0.34678976384E+02  0.10410898949E+01 -0.75122187351E+02  0.82746953440E+02  0.00000000000E+00 0. -1.
<scales pt_clust_5="13000.00000" pt_clust_6="13000.00000" pt_clust_7="13000.00000" pt_clust_8="13000.00000" pt_clust_9="34.69462"></scales>
<clustering>
<clus scale="   34.695">  1  9  2 -1</clus>
<clus scale="   80.018">  5  6 -1 -1</clus>
<clus scale="   89.701">  7  8 -1 -1</clus>
<clus scale="   92.237">  2  5  1 -1</clus>
<clus scale="   34.695">  1  5  2 -1</clus>
</clustering>
</event>
<event>
 9    2  0.9254368E-005  0.3892090E+03  0.7546771E-02  0.1096664E+00
          2   -1    0    0  502    0 -0.00000000000E+00  0.00000000000E+00  0.51043199272E+03  0.51043199272E+03  0.00000000000E+00 0. -1.
         21   -1    0    0  501  502  0.00000000000E+00 -0.00000000000E+00 -0.45247831751E+03  0.45247831751E+03  0.00000000000E+00 0.  1.
         23    2    1    2    0    0 -0.13247375850E+02 -0.42173321002E+02 -0.11185826738E+02  0.10224157483E+03  0.91510299604E+02 0.  0.
         24    2    1    2    0    0 -0.35476657835E+03 -0.79625477770E+02  0.23343596619E+03  0.43964314706E+03  0.81204708117E+02 0.  0.
        -13    1    4    4    0    0 -0.26125041352E+03 -0.55521493917E+02  0.12641539638E+03  0.29549156890E+03  0.00000000000E+00 0.  1.
         14    1    4    4    0    0 -0.93516164835E+02 -0.24103983853E+02  0.10702056981E+03  0.14415157816E+03  0.00000000000E+00 0. -1.
        -13    1    3    3    0    0 -0.21092525739E+02 -0.67804725385E+02 -0.20425051454E+02  0.73888822926E+02  0.00000000000E+00 0.  1.
         13    1    3    3    0    0  0.78451498893E+01  0.25631404383E+02  0.92392247158E+01  0.28352751908E+02  0.00000000000E+00 0. -1.
          1    1    1    2  501    0  0.36801395420E+03  0.12179879877E+03 -0.16429646424E+03  0.42102558833E+03  0.00000000000E+00 0. -1.
<scales pt_clust_5="13000.00000" pt_clust_6="13000.00000" pt_clust_7="13000.00000" pt_clust_8="13000.00000" pt_clust_9="380.64345"></scales>
<clustering>
<clus scale="   81.205">  5  6 -1 -1</clus>
<clus scale="   91.510">  7  8 -1 -1</clus>
<clus scale="  101.628">  1  7  2 -1</clus>
<clus scale="  380.643">  2  9  1 -1</clus>
<clus scale="  380.643">  2  5  1 -1</clus>
</clustering>
</event>
<event>
 9    2  0.9254368E-005  0.1043555E+03  0.7546771E-02  0.1277635E+00
         21   -1    0    0  501  502  0.00000000000E+00  0.00000000000E+00  0.43559869378E+03  0.43559869378E+03  0.00000000000E+00 0. -1.
         -1   -1    0    0    0  501 -0.00000000000E+00 -0.00000000000E+00 -0.43978371397E+02  0.43978371397E+02  0.00000000000E+00 0.  1.
         23    2    1    2    0    0  0.47984886014E+02  0.46916962547E+02  0.12702795006E+03  0.17165200473E+03  0.93939129071E+02 0.  0.
         24    2    1    2    0    0 -0.14998983998E+02 -0.11709917860E+01  0.22367964344E+03  0.23824999348E+03  0.80648222301E+02 0.  0.
        -13    1    4    4    0    0 -0.32535369378E+02  0.20856218405E+02  0.54900965001E+02  0.67139020434E+02  0.00000000000E+00 0.  1.
         14    1    4    4    0    0  0.17536385380E+02 -0.22027210191E+02  0.16877867844E+03  0.17111097304E+03  0.00000000000E+00 0. -1.
        -11    1    3    3    0    0  0.93541891743E+01  0.67268324518E+02  0.97950610544E+02  0.11919249324E+03  0.00000000000E+00 0. -1.
         11    1    3    3    0    0  0.38630696839E+02 -0.20351361971E+02  0.29077339513E+02  0.52459511488E+02  0.00000000000E+00 0.  1.
         -2    1    1    2    0  502 -0.32985902016E+02 -0.45745970761E+02  0.40912728889E+02  0.69675066974E+02  0.00000000000E+00 0.  1.
<scales pt_clust_5="13000.00000" pt_clust_6="13000.00000" pt_clust_7="13000.00000" pt_clust_8="13000.00000" pt_clust_9="56.39829"></scales>
<clustering>
<clus scale="   56.398">  1  9  2 -1</clus>
<clus scale="   80.648">  5  6 -1 -1</clus>
<clus scale="   92.572">  1  5  2 -1</clus>
<clus scale="   93.939">  7  8 -1 -1</clus>
<clus scale="   56.398">  1  5  2 -1</clus>
</clustering>
</event>
<event>
 9    2  0.9254368E-005  0.2385218E+03  0.7546771E-02  0.1146271E+00
          2   -1    0    0  502    0 -0.00000000000E+00  0.00000000000E+00  0.18104722745E+03  0.18104722745E+03  0.00000000000E+00 0. -1.
         21   -1    0    0  501  502  0.00000000000E+00 -0.00000000000E+00 -0.98413121619E+03  0.98413121619E+03  0.00000000000E+00 0. -1.
         24    2    1    2    0    0  0.12411680166E+02  0.10160105869E+03  0.86401364437E+02  0.15446474700E+03  0.76924231281E+02 0.  0.
         23    2    1    2    0    0 -0.15988607649E+03  0.94223603783E+02 -0.24591370840E+03  0.32203346752E+03  0.93756905129E+02 0.  0.
        -11    1    3    3    0    0 -0.30552079386E+02  0.55072104345E+02  0.30432405417E+02  0.69946390409E+02  0.00000000000E+00 0.  1.
         12    1    3    3    0    0  0.42963759552E+02  0.46528954345E+02  0.55968959020E+02  0.84518356592E+02  0.00000000000E+00 0. -1.
        -13    1    4    4    0    0 -0.29624447481E+02 -0.52098831452E+01 -0.93564307634E+02  0.98280366473E+02  0.00000000000E+00 0.  1.
         13    1    4    4    0    0 -0.13026162901E+03  0.99433486929E+02 -0.15234940076E+03  0.22375310105E+03  0.00000000000E+00 0. -1.
          1    1    1    2  501    0  0.14747439633E+03 -0.19582466247E+03 -0.64357164478E+03  0.68868022912E+03  0.00000000000E+00 0. -1.
<scales pt_clust_5="13000.00000" pt_clust_6="13000.00000" pt_clust_7="13000.00000" pt_clust_8="13000.00000" pt_clust_9="219.32237"></scales>
<clustering>
<clus scale="   76.924">  5  6 -1 -1</clus>
<clus scale="   93.757">  7  8 -1 -1</clus>
<clus scale="  128.040">  1  5  2 -1</clus>
<clus scale="  219.322">  2  9  1 -1</clus>
<clus scale="  219.322">  2  5  1 -1</clus>
</clustering>
</event>
<event>
 9    2  0.9254368E-005  0.1723138E+03  0.7546771E-02  0.1176679E+00
          2   -1    0    0  502    0 -0.00000000000E+00  0.00000000000E+00  0.69300433365E+03  0.69300433365E+03  0.00000000000E+00 0. -1.
         21   -1    0    0  501  502  0.00000000000E+00 -0.00000000000E+00 -0.61523730804E+02  0.61523730804E+02  0.00000000000E+00 0.  1.
         24    2    1    2    0    0 -0.11374356628E+02 -0.14206842993E+03  0.37839289529E+03  0.41696034111E+03  0.10179355619E+03 0.  0.
         23    2    1    2    0    0 -0.89819043500E+01  0.13530001451E+03  0.26572892461E+03  0.31266814147E+03  0.93609490899E+02 0.  0.
        -11    1    3    3    0    0 -0.52864157325E+02 -0.99968185671E+02  0.28276035740E+03  0.30453518187E+03  0.00000000000E+00 0.  1.
         12    1    3    3    0    0  0.41489800697E+02 -0.42100244259E+02  0.95632537886E+02  0.11242515924E+03  0.00000000000E+00 0. -1.
        -13    1    4    4    0    0  0.10413239476E+02  0.12509712026E+03  0.15337040358E+03  0.19819234533E+03  0.00000000000E+00 0.  1.
         13    1    4    4    0    0 -0.19395143826E+02  0.10202894255E+02  0.11235852103E+03  0.11447579614E+03  0.00000000000E+00 0. -1.
          1    1    1    2  501    0  0.20356260978E+02  0.67684154186E+01 -0.12641217058E+02  0.24899581864E+02  0.00000000000E+00 0. -1.
<scales pt_clust_5="13000.00000" pt_clust_6="13000.00000" pt_clust_7="13000.00000" pt_clust_8="13000.00000" pt_clust_9="21.45201"></scales>
<clustering>
<clus scale="   21.452">  2  9  1 -1</clus>
<clus scale="   93.609">  7  8 -1 -1</clus>
<clus scale="  101.794">  5  6 -1 -1</clus>
<clus scale="  167.609">  2  7  1 -1</clus>
<clus scale="   21.452">  2  5  1 -1</clus>
</clustering>
</event>
<event>
 9    2  0.9254368E-005  0.3087085E+03  0.7546771E-02  0.1081366E+00
         21   -1    0    0  501  502  0.00000000000E+00  0.00000000000E+00  0.82943908390E+03  0.82943908390E+03  0.00000000000E+00 0.  1.
          4   -1    0    0  502    0 -0.00000000000E+00 -0.00000000000E+00 -0.15760260457E+03  0.15760260457E+03  0.00000000000E+00 0. -1.
         23    2    1    2    0    0  0.34343216697E+02  0.27763163974E+03  0.16607422449E+03  0.33810926408E+03  0.92078458397E+02 0.  0.
         24    2    1    2    0    0 -0.96750184665E+02 -0.31124874056E+03  0.41554113484E+03  0.53419537887E+03  0.80336114744E+02 0.  0.
        -13    1    4    4    0    0 -0.40792282299E+02 -0.19674951262E+03  0.30638748060E+03  0.36639823864E+03  0.00000000000E+00 0.  1.
         14    1    4    4    0    0 -0.55957902366E+02 -0.11449922794E+03  0.10915365424E+03  0.16779714024E+03  0.00000000000E+00 0. -1.
        -13    1    3    3    0    0  0.34382042680E+01  0.91114491582E+02  0.77434433542E+01  0.91507555644E+02  0.00000000000E+00 0.  1.
         13    1    3    3    0    0  0.30905012429E+02  0.18651714816E+03  0.15833078113E+03  0.24660170844E+03  0.00000000000E+00 0. -1.
          3    1    1    2  501    0  0.62406967968E+02  0.33617100821E+02  0.90221120003E+02  0.11473704551E+03  0.00000000000E+00 0. -1.
<scales pt_clust_5="13000.00000" pt_clust_6="13000.00000" pt_clust_7="13000.00000" pt_clust_8="13000.00000" pt_clust_9="70.88539"></scales>
<clustering>
<clus scale="   70.885">  1  9  2 -1</clus>
<clus scale="   80.336">  5  6 -1 -1</clus>
<clus scale="   92.078">  7  8 -1 -1</clus>
<clus scale="  305.412">  1  5  2 -1</clus>
<clus scale="   70.885">  1  5  2 -1</clus>
</clustering>
</event>
<event>
 9    2  0.9254368E-005  0.1529998E+03  0.7546771E-02  0.1198218E+00
         21   -1    0    0  501  502  0.00000000000E+00  0.00000000000E+00  0.50080685625E+03  0.50080685625E+03  0.00000000000E+00 0.  1.
         -3   -1    0    0    0  501 -0.00000000000E+00 -0.00000000000E+00 -0.11595344726E+03  0.11595344726E+03  0.00000000000E+00 0.  1.
         23    2    1    2    0    0 -0.11096219960E+03 -0.13057124010E+01  0.94570601352E+01  0.14065815562E+03  0.85912549321E+02 0.  0.
         24    2    1    2    0    0  0.18151080356E+03  0.52206025560E+02  0.23904247960E+03  0.31436061006E+03  0.77521901371E+02 0.  0.
        -13    1    4    4    0    0  0.16649442485E+03  0.39978203687E+02  0.24017516753E+03  0.29496230500E+03  0.00000000000E+00 0.  1.
         14    1    4    4    0    0  0.15016378707E+02  0.12227821873E+02 -0.11326879262E+01  0.19398305059E+02  0.00000000000E+00 0. -1.
        -11    1    3    3    0    0 -0.99867787765E+02  0.27149926166E+02 -0.10730688834E+02  0.10404730274E+03  0.00000000000E+00 0. -1.
         11    1    3    3    0    0 -0.11094411831E+02 -0.28455638567E+02  0.20187748969E+02  0.36610852880E+02  0.00000000000E+00 0.  1.
         -4    1    1    2    0  502 -0.70548603963E+02 -0.50900313159E+02  0.13635386925E+03  0.16174153783E+03  0.00000000000E+00 0.  1.
<scales pt_clust_5="13000.00000" pt_clust_6="13000.00000" pt_clust_7="13000.00000" pt_clust_8="13000.00000" pt_clust_9="86.99395"></scales>
<clustering>
<clus scale="   77.522">  5  6 -1 -1</clus>
<clus scale="   85.913">  7  8 -1 -1</clus>
<clus scale="   86.994">  1  9  2 -1</clus>
<clus scale="  148.451">  1  5  2 -1</clus>
<clus scale="   86.994">  1  5  2 -1</clus>
</clustering>
</event>
<event>
 9    2  0.9254368E-005  0.1202908E+03  0.7546771E-02  0.1245330E+00
          2   -1    0    0  502    0 -0.00000000000E+00  0.00000000000E+00  0.29365686246E+03  0.29365686246E+03  0.00000000000E+00 0. -1.
         21   -1    0    0  501  502  0.00000000000E+00 -0.00000000000E+00 -0.12402947945E+03  0.12402947945E+03  0.00000000000E+00 0.  1.
         23    2    1    2    0    0 -0.47454627386E+02  0.35403297414E+02  0.16065508934E+02  0.10880489928E+03  0.89861395508E+02 0.  0.
         24    2    1    2    0    0  0.42527128503E+02 -0.11068861311E+03  0.67409990754E+01  0.14381016002E+03  0.81088811359E+02 0.  0.
        -11    1    4    4    0    0  0.44640644690E+02 -0.79471000440E+02 -0.29617797530E+02  0.95841749774E+02  0.00000000000E+00 0.  1.
         12    1    4    4    0    0 -0.21135161870E+01 -0.31217612666E+02  0.36358796606E+02  0.47968410250E+02  0.00000000000E+00 0. -1.
        -11    1    3    3    0    0 -0.23344395108E+02  0.56735562214E+02 -0.15963288724E+02  0.63393307135E+02  0.00000000000E+00 0. -1.
         11    1    3    3    0    0 -0.24110232278E+02 -0.21332264800E+02  0.32028797659E+02  0.45411592148E+02  0.00000000000E+00 0.  1.
          1    1    1    2  501    0  0.49274988825E+01  0.75285315692E+02  0.14682087500E+03  0.16507128260E+03  0.00000000000E+00 0. -1.
<scales pt_clust_5="13000.00000" pt_clust_6="13000.00000" pt_clust_7="13000.00000" pt_clust_8="13000.00000" pt_clust_9="75.44644"></scales>
<clustering>
<clus scale="   75.446">  2  9  1 -1</clus>
<clus scale="   81.089">  5  6 -1 -1</clus>
<clus scale="   89.861">  7  8 -1 -1</clus>
<clus scale="  113.887">  2  5  1 -1</clus>
<clus scale="   75.446">  2  5  1 -1</clus>
</clustering>
</event>
<event>
 9    2  0.9254368E-005  0.9603522E+02  0.7546771E-02  0.1294258E+00
         21   -1    0    0  501  502  0.00000000000E+00  0.00000000000E+00  0.55956866097E+02  0.55956866097E+02  0.00000000000E+00 0. -1.
         -3   -1    0    0    0  501 -0.00000000000E+00 -0.00000000000E+00 -0.25769293233E+03  0.25769293233E+03  0.00000000000E+00 0.  1.
         23    2    1    2    0    0  0.41743843558E+01  0.55731572037E+01 -0.77367836437E+02  0.11988573287E+03  0.91314408859E+02 0.  0.
         24    2    1    2    0    0 -0.52976023831E+02 -0.43321069219E+01 -0.98578488403E+02  0.13855309760E+03  0.81572153511E+02 0.  0.
        -11    1    4    4    0    0 -0.38761698473E+02  0.15006594619E+02 -0.10565000296E+03  0.11353233141E+03  0.00000000000E+00 0.  1.
         12    1    4    4    0    0 -0.14214325358E+02 -0.19338701541E+02  0.70715145563E+01  0.25020766191E+02  0.00000000000E+00 0. -1.
        -13    1    3    3    0    0  0.35979985549E+02 -0.19780063018E+02 -0.65868303257E+02  0.77617289485E+02  0.00000000000E+00 0.  1.
         13    1    3    3    0    0 -0.31805601193E+02  0.25353220222E+02 -0.11499533180E+02  0.42268443386E+02  0.00000000000E+00 0. -1.
         -4    1    1    2    0  502  0.48801639475E+02 -0.12410502818E+01 -0.25789741397E+02  0.55210967956E+02  0.00000000000E+00 0.  1.
<scales pt_clust_5="13000.00000" pt_clust_6="13000.00000" pt_clust_7="13000.00000" pt_clust_8="13000.00000" pt_clust_9="48.81742"></scales>
<clustering>
<clus scale="   48.817">  1  9  2 -1</clus>
<clus scale="   81.572">  5  6 -1 -1</clus>
<clus scale="   86.824">  1  5  2 -1</clus>
<clus scale="   91.314">  7  8 -1 -1</clus>
<clus scale="   48.817">  1  5  2 -1</clus>
</clustering>
</event>
<event>
 9    2  0.9254368E-005  0.3710197E+03  0.7546771E-02  0.1054304E+00
          2   -1    0    0  502    0 -0.00000000000E+00  0.00000000000E+00  0.75112472293E+03  0.75112472293E+03  0.00000000000E+00 0. -1.
         21   -1    0    0  501  502  0.00000000000E+00 -0.00000000000E+00 -0.21010796089E+03  0.21010796089E+03  0.00000000000E+00 0. -1.
         24    2    1    2    0    0  0.72037474242E+02 -0.23621754918E+03  0.35280157206E+03  0.43856639837E+03  0.82966308221E+02 0.  0.
         23    2    1    2    0    0 -0.15278470307E+01 -0.57388456574E+02  0.19213824344E+03  0.22068700720E+03  0.92140551824E+02 0.  0.
        -11    1    3    3    0    0  0.59815341270E+02 -0.99007978666E+02  0.21250227676E+03  0.24194559826E+03  0.00000000000E+00 0.  1.
         12    1    3    3    0    0  0.12222132972E+02 -0.13720957051E+03  0.14029929530E+03  0.19662080011E+03  0.00000000000E+00 0. -1.
        -11    1    4    4    0    0 -0.36947875429E+02 -0.47177924971E+02  0.16310326249E+03  0.17376298898E+03  0.00000000000E+00 0. -1.
         11    1    4    4    0    0  0.35420028398E+02 -0.10210531603E+02  0.29034980945E+02  0.46924018219E+02  0.00000000000E+00 0.  1.
          1    1    1    2  501    0 -0.70509627211E+02  0.29360600575E+03 -0.39230534558E+01  0.30197927825E+03  0.00000000000E+00 0. -1.
<scales pt_clust_5="13000.00000" pt_clust_6="13000.00000" pt_clust_7="13000.00000" pt_clust_8="13000.00000" pt_clust_9="301.95379"></scales>
<clustering>
<clus scale="   82.966">  5  6 -1 -1</clus>
<clus scale="   92.141">  7  8 -1 -1</clus>
<clus scale="  101.532">  5  7 -1 -1</clus>
<clus scale="  301.954">  2  9  1 -1</clus>
<clus scale="  301.954">  2  5  1 -1</clus>
</clustering>
</event>
<event>
 9    2  0.9254368E-005  0.9008603E+02  0.7546771E-02  0.1305554E+00
          2   -1    0    0  502    0 -0.00000000000E+00  0.00000000000E+00  0.63255532683E+03  0.63255532683E+03  0.00000000000E+00 0. -1.
         21   -1    0    0  501  502  0.00000000000E+00 -0.00000000000E+00 -0.52783430450E+02  0.52783430450E+02  0.00000000000E+00 0. -1.
         23    2    1    2    0    0  0.23335634013E+02 -0.47329058621E+00  0.48566072792E+03  0.49385158987E+03  0.86477016333E+02 0.  0.
         24    2    1    2    0    0 -0.28426722673E+02 -0.35046605702E+02  0.11648021026E+03  0.14920293574E+03  0.81593710040E+02 0.  0.
        -11    1    4    4    0    0  0.22977438834E+02  0.79783529755E+01  0.45364497625E+02  0.51473823020E+02  0.00000000000E+00 0.  1.
         12    1    4    4    0    0 -0.51404161507E+02 -0.43024958678E+02  0.71115712638E+02  0.97729112722E+02  0.00000000000E+00 0. -1.
        -11    1    3    3    0    0  0.55847692685E+02 -0.72555541831E+01  0.31278820119E+03  0.31781766258E+03  0.00000000000E+00 0. -1.
         11    1    3    3    0    0 -0.32512058672E+02  0.67822635969E+01  0.17287252674E+03  0.17603392730E+03  0.00000000000E+00 0.  1.
          1    1    1    2  501    0  0.50910886597E+01  0.35519896288E+02 -0.22369041807E+02  0.42284231665E+02  0.00000000000E+00 0. -1.
<scales pt_clust_5="13000.00000" pt_clust_6="13000.00000" pt_clust_7="13000.00000" pt_clust_8="13000.00000" pt_clust_9="35.88290"></scales>
<clustering>
<clus scale="   35.883">  2  9  1 -1</clus>
<clus scale="   81.594">  5  6 -1 -1</clus>
<clus scale="   85.409">  2  5  1 -1</clus>
<clus scale="   86.477">  7  8 -1 -1</clus>
<clus scale="   35.883">  2  5  1 -1</clus>
</clustering>
</event>
<event>
 9    2  0.9254368E-005  0.1362291E+03  0.7546771E-02  0.1235579E+00
          2   -1    0    0  502    0 -0.00000000000E+00  0.00000000000E+00  0.52837317375E+03  0.52837317375E+03  0.00000000000E+00 0. -1.
         21   -1    0    0  501  502  0.00000000000E+00 -0.00000000000E+00 -0.27840430701E+03  0.27840430701E+03  0.00000000000E+00 0. -1.
         23    2    1    2    0    0  0.22567776181E+02 -0.19974257346E+02 -0.13363138534E+02  0.96494936539E+02  0.90688609140E+02 0.  0.
         24    2    1    2    0    0  0.76189783778E+02  0.71083055990E+02  0.46332870710E+03  0.48145106542E+03  0.79145142421E+02 0.  0.
        -11    1    4    4    0    0  0.16711030047E+02  0.56713425995E+02  0.32292572614E+03  0.32829361221E+03  0.00000000000E+00 0.  1.
         12    1    4    4    0    0  0.59478753731E+02  0.14369629995E+02  0.14040298096E+03  0.15315745321E+03  0.00000000000E+00 0. -1.
        -11    1    3    3    0    0 -0.18578930996E+02 -0.35258751619E+02 -0.29653356036E+02  0.49675726133E+02  0.00000000000E+00 0.  1.
         11    1    3    3    0    0  0.41146707177E+02  0.15284494274E+02  0.16290217502E+02  0.46819210405E+02  0.00000000000E+00 0. -1.
          1    1    1    2  501    0 -0.98757559960E+02 -0.51108798644E+02 -0.19999670183E+03  0.22883147880E+03  0.00000000000E+00 0. -1.
<scales pt_clust_5="13000.00000" pt_clust_6="13000.00000" pt_clust_7="13000.00000" pt_clust_8="13000.00000" pt_clust_9="110.88019"></scales>
<clustering>
<clus scale="   79.145">  5  6 -1 -1</clus>
<clus scale="   90.689">  7  8 -1 -1</clus>
<clus scale="   95.565">  1  7  2 -1</clus>
<clus scale="  110.880">  2  9  1 -1</clus>
<clus scale="  110.880">  2  5  1 -1</clus>
</clustering>
</event>
<event>
 9    2  0.9254368E-005  0.1230864E+03  0.7546771E-02  0.1240650E+00
         21   -1    0    0  501  502  0.00000000000E+00  0.00000000000E+00  0.46127301186E+03  0.46127301186E+03  0.00000000000E+00 0.  1.
          2   -1    0    0  502    0 -0.00000000000E+00 -0.00000000000E+00 -0.66690675744E+02  0.66690675744E+02  0.00000000000E+00 0. -1.
         23    2    1    2    0    0  0.57366785604E+01  0.76224536276E+02  0.37931228826E+02  0.12378153207E+03  0.89666047920E+02 0.  0.
         24    2    1    2    0    0  0.15032492400E+01 -0.10291401455E+03  0.16536487288E+03  0.21090730389E+03  0.80887548489E+02 0.  0.
        -13    1    4    4    0    0  0.36251727771E+02 -0.62618880625E+02  0.12377888846E+03  0.14337546933E+03  0.00000000000E+00 0.  1.
         14    1    4    4    0    0 -0.34748478531E+02 -0.40295133929E+02  0.41585984421E+02  0.67531834558E+02  0.00000000000E+00 0. -1.
        -13    1    3    3    0    0 -0.25358509286E+02  0.57463209548E+02  0.55153514137E+02  0.83588184371E+02  0.00000000000E+00 0.  1.
         13    1    3    3    0    0  0.31095187847E+02  0.18761326728E+02 -0.17222285311E+02  0.40193347698E+02  0.00000000000E+00 0. -1.
          1    1    1    2  501    0 -0.72399278004E+01  0.26689478277E+02  0.19128623441E+03  0.19327485165E+03  0.00000000000E+00 0. -1.
<scales pt_clust_5="13000.00000" pt_clust_6="13000.00000" pt_clust_7="13000.00000" pt_clust_8="13000.00000" pt_clust_9="27.65402"></scales>
<clustering>
<clus scale="   27.654">  1  9  2 -1</clus>
<clus scale="   80.888">  5  6 -1 -1</clus>
<clus scale="   89.666">  7  8 -1 -1</clus>
<clus scale="  116.846">  1  5  2 -1</clus>
<clus scale="   27.654">  1  5  2 -1</clus>
</clustering>
</event>
<event>
 9    2  0.9254368E-005  0.1048196E+03  0.7546771E-02  0.1273808E+00
          2   -1    0    0  502    0 -0.00000000000E+00  0.00000000000E+00  0.89643433992E+03  0.89643433992E+03  0.00000000000E+00 0. -1.
         21   -1    0    0  501  502  0.00000000000E+00 -0.00000000000E+00 -0.20288895948E+02  0.20288895948E+02  0.00000000000E+00 0. -1.
         24    2    1    2    0    0  0.20389907770E+02  0.48884025514E+02  0.49445372229E+03  0.50513766060E+03  0.88736556037E+02 0.  0.
         23    2    1    2    0    0  0.60047036263E+01 -0.19325684716E+02  0.17015486423E+03  0.19636890983E+03  0.95908979625E+02 0.  0.
        -13    1    3    3    0    0  0.54738797400E+02  0.39977442486E+02  0.33352918740E+03  0.34034725017E+03  0.00000000000E+00 0.  1.
         14    1    3    3    0    0 -0.34348889630E+02  0.89065830275E+01  0.16092453489E+03  0.16479041043E+03  0.00000000000E+00 0. -1.
        -13    1    4    4    0    0 -0.33520718906E+02 -0.40886804889E+02  0.96835432682E+02  0.11032891929E+03  0.00000000000E+00 0.  1.
         13    1    4    4    0    0  0.39525422532E+02  0.21561120173E+02  0.73319431548E+02  0.86039990539E+02  0.00000000000E+00 0. -1.
          1    1    1    2  501    0 -0.26394611396E+02 -0.29558340797E+02  0.21153685745E+03  0.21521666543E+03  0.00000000000E+00 0. -1.
<scales pt_clust_5="13000.00000" pt_clust_6="13000.00000" pt_clust_7="13000.00000" pt_clust_8="13000.00000" pt_clust_9="39.62793"></scales>
<clustering>
<clus scale="   39.628">  2  9  1 -1</clus>
<clus scale="   88.737">  5  6 -1 -1</clus>
<clus scale="   95.909">  7  8 -1 -1</clus>
<clus scale="   98.300">  1  5  2 -1</clus>
<clus scale="   39.628">  2  5  1 -1</clus>
</clustering>
</event>
<event>
 9    2  0.9254368E-005  0.9306644E+02  0.7546771E-02  0.1306252E+00
         -1   -1    0    0    0  501 -0.00000000000E+00  0.00000000000E+00  0.86548358731E+02  0.86548358731E+02  0.00000000000E+00 0.  1.
         21   -1    0    0  501  502  0.00000000000E+00 -0.00000000000E+00 -0.36207282808E+03  0.36207282808E+03  0.00000000000E+00 0. -1.
         24    2    1    2    0    0 -0.43269578168E+01  0.39950049361E+01  0.57198523990E+02  0.95496811180E+02  0.76244915704E+02 0.  0.
         23    2    1    2    0    0 -0.10894140667E+02 -0.19256308943E+02 -0.24910962024E+03  0.26677748570E+03  0.92871611633E+02 0.  0.
        -13    1    3    3    0    0 -0.31509739317E+02 -0.91474111316E+01  0.23595606683E+01  0.32895384612E+02  0.00000000000E+00 0.  1.
         14    1    3    3    0    0  0.27182781500E+02  0.13142416068E+02  0.54838963321E+02  0.62601426568E+02  0.00000000000E+00 0. -1.
        -11    1    4    4    0    0  0.17097823762E+02  0.29940819568E+02 -0.13590672546E+03  0.14021207608E+03  0.00000000000E+00 0. -1.
         11    1    4    4    0    0 -0.27991964429E+02 -0.49197128511E+02 -0.11320289478E+03  0.12656540962E+03  0.00000000000E+00 0.  1.
         -2    1    1    2    0  502  0.15221098484E+02  0.15261304007E+02 -0.83613373099E+02  0.86346889927E+02  0.00000000000E+00 0.  1.
<scales pt_clust_5="13000.00000" pt_clust_6="13000.00000" pt_clust_7="13000.00000" pt_clust_8="13000.00000" pt_clust_9="21.55433"></scales>
<clustering>
<clus scale="   21.554">  2  9  1 -1</clus>
<clus scale="   76.245">  5  6 -1 -1</clus>
<clus scale="   76.482">  1  5  2 -1</clus>
<clus scale="   92.872">  7  8 -1 -1</clus>
<clus scale="   21.554">  2  5  1 -1</clus>
</clustering>
</event>
<event>
 9    2  0.9254368E-005  0.1055394E+03  0.7546771E-02  0.1274767E+00
         21   -1    0    0  501  502  0.00000000000E+00  0.00000000000E+00  0.12635495817E+03  0.12635495817E+03  0.00000000000E+00 0.  1.
          2   -1    0    0  502    0 -0.00000000000E+00 -0.00000000000E+00 -0.39541998917E+03  0.39541998917E+03  0.00000000000E+00 0. -1.
         24    2    1    2    0    0  0.46091496633E+02 -0.21232165170E+02 -0.34702159795E+03  0.35982295376E+03  0.80457055081E+02 0.  0.
         23    2    1    2    0    0 -0.27619016303E+02  0.31408042846E+02  0.25228159749E+02  0.10516232954E+03  0.93130984600E+02 0.  0.
        -13    1    3    3    0    0  0.43067642707E+02  0.16702420592E+02 -0.10342653977E+03  0.11327330590E+03  0.00000000000E+00 0.  1.
         14    1    3    3    0    0  0.30238539253E+01 -0.37934585762E+02 -0.24359505818E+03  0.24654964786E+03  0.00000000000E+00 0. -1.
        -13    1    4    4    0    0 -0.42412363332E+02  0.53621583019E+02 -0.10140522039E+00  0.68367338780E+02  0.00000000000E+00 0.  1.
         13    1    4    4    0    0  0.14793347030E+02 -0.22213540173E+02  0.25329564969E+02  0.36794990758E+02  0.00000000000E+00 0. -1.
          1    1    1    2  501    0 -0.18472480330E+02 -0.10175877675E+02  0.52728407200E+02  0.56789664041E+02  0.00000000000E+00 0. -1.
<scales pt_clust_5="13000.00000" pt_clust_6="13000.00000" pt_clust_7="13000.00000" pt_clust_8="13000.00000" pt_clust_9="21.08983"></scales>
<clustering>
<clus scale="   21.090">  1  9  2 -1</clus>
<clus scale="   80.457">  5  6 -1 -1</clus>
<clus scale="   93.131">  7  8 -1 -1</clus>
<clus scale="   94.544">  2  5  1 -1</clus>
<clus scale="   21.090">  1  5  2 -1</clus>
</clustering>
</event>
<event>
 9    2  0.9254368E-005  0.1678375E+03  0.7546771E-02  0.1199138E+00
         21   -1    0    0  501  502  0.00000000000E+00  0.00000000000E+00  0.18872892613E+03  0.18872892613E+03  0.00000000000E+00 0.  1.
         -3   -1    0    0    0  501 -0.00000000000E+00 -0.00000000000E+00 -0.25382953078E+03  0.25382953078E+03  0.00000000000E+00 0.  1.
         23    2    1    2    0    0 -0.41704790093E+02 -0.41936771413E+02 -0.11155844453E+01  0.11023345421E+03  0.93017135972E+02 0.  0.
         24    2    1    2    0    0  0.53369037012E+02  0.15927683733E+03  0.18485677661E+02  0.18842864510E+03  0.83344279904E+02 0.  0.
        -13    1    4    4    0    0  0.46502359784E+02  0.10039058473E+03  0.49859466485E+02  0.12135363763E+03  0.00000000000E+00 0.  1.
         14    1    4    4    0    0  0.68666772287E+01  0.58886252604E+02 -0.31373788823E+02  0.67075007469E+02  0.00000000000E+00 0. -1.
        -11    1    3    3    0    0 -0.22020926422E+02  0.97836252975E+01 -0.37089014494E+02  0.44229351347E+02  0.00000000000E+00 0. -1.
         11    1    3    3    0    0 -0.19683863671E+02 -0.51720396710E+02  0.35973430048E+02  0.66004102860E+02  0.00000000000E+00 0.  1.
         -4    1    1    2    0  502 -0.11664246920E+02 -0.11734006592E+03 -0.82470697869E+02  0.14389635761E+03  0.00000000000E+00 0.  1.
<scales pt_clust_5="13000.00000" pt_clust_6="13000.00000" pt_clust_7="13000.00000" pt_clust_8="13000.00000" pt_clust_9="145.68177"></scales>
<clustering>
<clus scale="   83.344">  5  6 -1 -1</clus>
<clus scale="   93.017">  7  8 -1 -1</clus>
<clus scale="  110.228">  2  7  1 -1</clus>
<clus scale="  145.682">  1  9  2 -1</clus>
<clus scale="  145.682">  1  5  2 -1</clus>
</clustering>
</event>
<event>
 9    2  0.9254368E-005  0.1058976E+03  0.7546771E-02  0.1271494E+00
         21   -1    0    0  501  502  0.00000000000E+00  0.00000000000E+00  0.72365021113E+02  0.72365021113E+02  0.00000000000E+00 0.  1.
         -1   -1    0    0    0  501 -0.00000000000E+00 -0.00000000000E+00 -0.31476894729E+03  0.31476894729E+03  0.00000000000E+00 0.  1.
         24    2    1    2    0    0  0.13192025333E+02 -0.52279389452E+02 -0.13324328929E+03  0.16548044795E+03  0.81992929081E+02 0.  0.
         23    2    1    2    0    0 -0.36233575234E+02  0.58074327841E+02 -0.28056292727E+01  0.11267700015E+03  0.89458008466E+02 0.  0.
        -13    1    3    3    0    0  0.45687689765E+02 -0.45164890601E+02 -0.96356234133E+02  0.11580913693E+03  0.00000000000E+00 0.  1.
         14    1    3    3    0    0 -0.32495664433E+02 -0.71144988516E+01 -0.36887055157E+02  0.49671311026E+02  0.00000000000E+00 0. -1.
        -13    1    4    4    0    0 -0.33384050934E+02  0.80302475249E+02 -0.13221377097E+02  0.87964692918E+02  0.00000000000E+00 0.  1.
         13    1    4    4    0    0 -0.28495242998E+01 -0.22228147408E+02  0.10415747824E+02  0.24712307231E+02  0.00000000000E+00 0. -1.
         -2    1    1    2    0  502  0.23041549901E+02 -0.57949383884E+01 -0.10635500761E+03  0.10897652030E+03  0.00000000000E+00 0.  1.
<scales pt_clust_5="13000.00000" pt_clust_6="13000.00000" pt_clust_7="13000.00000" pt_clust_8="13000.00000" pt_clust_9="23.75910"></scales>
<clustering>
<clus scale="   23.759">  1  9  2 -1</clus>
<clus scale="   81.993">  5  6 -1 -1</clus>
<clus scale="   89.458">  7  8 -1 -1</clus>
<clus scale="   99.672">  2  5  1 -1</clus>
<clus scale="   23.759">  1  5  2 -1</clus>
</clustering>
</event>
<event>
 9    2  0.9254368E-005  0.1314587E+03  0.7546771E-02  0.1227269E+00
         21   -1    0    0  501  502  0.00000000000E+00  0.00000000000E+00  0.14813429420E+03  0.14813429420E+03  0.00000000000E+00 0.  1.
          2   -1    0    0  502    0 -0.00000000000E+00 -0.00000000000E+00 -0.26077221395E+03  0.26077221395E+03  0.00000000000E+00 0. -1.
         24    2    1    2    0    0  0.10347462232E+03  0.82353298716E+02 -0.44597283047E+02  0.16178486458E+03  0.81831298892E+02 0.  0.
         23    2    1    2    0    0 -0.63023079634E+02  0.12454861499E+01  0.28367393411E+02  0.11325756173E+03  0.89716812677E+02 0.  0.
        -13    1    3    3    0    0  0.10558890323E+03  0.77117377164E+02 -0.14949255373E+02  0.13160390033E+03  0.00000000000E+00 0.  1.
         14    1    3    3    0    0 -0.21142809057E+01  0.52359215528E+01 -0.29648027675E+02  0.30180964253E+02  0.00000000000E+00 0. -1.
        -13    1    4    4    0    0 -0.15625844150E+02 -0.19236172893E+02  0.51137503123E+02  0.56826416204E+02  0.00000000000E+00 0.  1.
         13    1    4    4    0    0 -0.47397235484E+02  0.20481659043E+02 -0.22770109712E+02  0.56431145522E+02  0.00000000000E+00 0. -1.
          1    1    1    2  501    0 -0.40451542689E+02 -0.83598784866E+02 -0.96408030114E+02  0.13386408184E+03  0.00000000000E+00 0. -1.
<scales pt_clust_5="13000.00000" pt_clust_6="13000.00000" pt_clust_7="13000.00000" pt_clust_8="13000.00000" pt_clust_9="92.87138"></scales>
<clustering>
<clus scale="   81.831">  5  6 -1 -1</clus>
<clus scale="   89.717">  7  8 -1 -1</clus>
<clus scale="   92.871">  1  9  2 -1</clus>
<clus scale="  126.209">  2  5  1 -1</clus>
<clus scale="   92.871">  1  5  2 -1</clus>
</clustering>
</event>
<event>
 9    2  0.9254368E-005  0.1863459E+03  0.7546771E-02  0.1188937E+00
          2   -1    0    0  502    0 -0.00000000000E+00  0.00000000000E+00  0.11401376872E+04  0.11401376872E+04  0.00000000000E+00 0. -1.
         21   -1    0    0  501  502  0.00000000000E+00 -0.00000000000E+00 -0.58136838033E+02  0.58136838033E+02  0.00000000000E+00 0.  1.
         23    2    1    2    0    0  0.24451772375E+02 -0.34590637901E+02  0.63012056773E+02  0.11882444629E+03  0.91402014935E+02 0.  0.
         24    2    1    2    0    0  0.15265147306E+03  0.41786901516E+02  0.54394839084E+03  0.57241878912E+03  0.82065832573E+02 0.  0.
        -11    1    4    4    0    0  0.12195356867E+03 -0.52440197513E+01  0.36619329633E+03  0.38600220586E+03  0.00000000000E+00 0.  1.
         12    1    4    4    0    0  0.30697904389E+02  0.47030921268E+02  0.17775509451E+03  0.18641658326E+03  0.00000000000E+00 0. -1.
        -13    1    3    3    0    0  0.41851031778E+02 -0.18623374980E+02 -0.57061529726E+01  0.46161663080E+02  0.00000000000E+00 0.  1.
         13    1    3    3    0    0 -0.17399259403E+02 -0.15967262921E+02  0.68718209745E+02  0.72662783208E+02  0.00000000000E+00 0. -1.
          1    1    1    2  501    0 -0.17710324543E+03 -0.71962636154E+01  0.47504040155E+03  0.50703128982E+03  0.00000000000E+00 0. -1.
<scales pt_clust_5="13000.00000" pt_clust_6="13000.00000" pt_clust_7="13000.00000" pt_clust_8="13000.00000" pt_clust_9="167.30215"></scales>
<clustering>
<clus scale="   82.066">  5  6 -1 -1</clus>
<clus scale="   91.402">  7  8 -1 -1</clus>
<clus scale="  100.741">  1  7  2 -1</clus>
<clus scale="  167.302">  2  9  1 -1</clus>
<clus scale="  167.302">  2  5  1 -1</clus>
</clustering>
</event>
<event>
 9    2  0.9254368E-005  0.8895058E+02  0.7546771E-02  0.1311027E+00
         21   -1    0    0  501  502  0.00000000000E+00  0.00000000000E+00  0.59115340198E+02  0.59115340198E+02  0.00000000000E+00 0. -1.
          2   -1    0    0  502    0 -0.00000000000E+00 -0.00000000000E+00 -0.77040415732E+03  0.77040415732E+03  0.00000000000E+00 0. -1.
         24    2    1    2    0    0 -0.23105620639E+02  0.28233744093E+01 -0.51490603089E+03  0.52154546411E+03  0.79621663799E+02 0.  0.
         23    2    1    2    0    0 -0.28743873927E+02 -0.10201981436E+02 -0.22827132786E+03  0.24665769777E+03  0.88328534634E+02 0.  0.
        -13    1    3    3    0    0  0.24733722690E+02  0.11923970911E+02 -0.96989317578E+02  0.10080112025E+03  0.00000000000E+00 0.  1.
         14    1    3    3    0    0 -0.47839343328E+02 -0.91005965014E+01 -0.41791671331E+03  0.42074434386E+03  0.00000000000E+00 0. -1.
        -11    1    4    4    0    0  0.82734341163E+01  0.27463228888E+02 -0.14674094679E+03  0.14951783880E+03  0.00000000000E+00 0.  1.
         11    1    4    4    0    0 -0.37017308044E+02 -0.37665210324E+02 -0.81530381073E+02  0.97139858973E+02  0.00000000000E+00 0. -1.
          1    1    1    2  501    0  0.51849494566E+02  0.73786070265E+01  0.31888541629E+02  0.61316335634E+02  0.00000000000E+00 0. -1.
<scales pt_clust_5="13000.00000" pt_clust_6="13000.00000" pt_clust_7="13000.00000" pt_clust_8="13000.00000" pt_clust_9="52.37188"></scales>
<clustering>
<clus scale="   52.372">  1  9  2 -1</clus>
<clus scale="   79.622">  5  6 -1 -1</clus>
<clus scale="   80.311">  2  5  1 -1</clus>
<clus scale="   88.329">  7  8 -1 -1</clus>
<clus scale="   52.372">  1  5  2 -1</clus>
</clustering>
</event>
<event>
 9    2  0.9254368E-005  0.1450873E+03  0.7546771E-02  0.1208827E+00
         21   -1    0    0  501  502  0.00000000000E+00  0.00000000000E+00  0.41252468946E+02  0.41252468946E+02  0.00000000000E+00 0. -1.
          2   -1    0    0  502    0 -0.00000000000E+00 -0.00000000000E+00 -0.82634185503E+03  0.82634185503E+03  0.00000000000E+00 0. -1.
         24    2    1    2    0    0  0.43427648031E+02  0.12909625608E+03 -0.48293273409E+03  0.50818818690E+03  0.80494743312E+02 0.  0.
         23    2    1    2    0    0 -0.35255311782E+02 -0.79631049402E+02 -0.27449247349E+03  0.30214445247E+03  0.91439111554E+02 0.  0.
        -13    1    3    3    0    0  0.55159142078E+01  0.81351020597E+02 -0.37919011008E+03  0.38785764585E+03  0.00000000000E+00 0.  1.
         14    1    3    3    0    0  0.37911733824E+02  0.47745235481E+02 -0.10374262401E+03  0.12033054105E+03  0.00000000000E+00 0. -1.
        -13    1    4    4    0    0  0.15648607413E+02 -0.58843106596E+02 -0.20310881176E+03  0.21203909904E+03  0.00000000000E+00 0.  1.
         13    1    4    4    0    0 -0.50903919195E+02 -0.20787942806E+02 -0.71383661726E+02  0.90105353431E+02  0.00000000000E+00 0. -1.
          1    1    1    2  501    0 -0.81723362491E+01 -0.49465206675E+02 -0.27664178505E+02  0.57261684603E+02  0.00000000000E+00 0. -1.
<scales pt_clust_5="13000.00000" pt_clust_6="13000.00000" pt_clust_7="13000.00000" pt_clust_8="13000.00000" pt_clust_9="50.13575"></scales>
<clustering>
<clus scale="   50.136">  1  9  2 -1</clus>
<clus scale="   80.495">  5  6 -1 -1</clus>
<clus scale="   91.439">  7  8 -1 -1</clus>
<clus scale="  138.451">  2  5  1 -1</clus>
<clus scale="   50.136">  1  5  2 -1</clus>
</clustering>
</event>
<event>
 9    2  0.9254368E-005  0.1886798E+03  0.7546771E-02  0.1173858E+00
         21   -1    0    0  501  502  0.00000000000E+00  0.00000000000E+00  0.25344340290E+03  0.25344340290E+03  0.00000000000E+00 0. -1.
          2   -1    0    0  502    0 -0.00000000000E+00 -0.00000000000E+00 -0.51944127427E+03  0.51944127427E+03  0.00000000000E+00 0. -1.
         23    2    1    2    0    0  0.81955932300E+02  0.64748689511E+02  0.14434830509E+03  0.19839192164E+03  0.87256826406E+02 0.  0.
         24    2    1    2    0    0 -0.21310768083E+03  0.24568980057E+02 -0.31364030282E+03  0.38866904005E+03  0.81699845338E+02 0.  0.
        -11    1    4    4    0    0 -0.45445178375E+02  0.14831514223E+02 -0.23127012973E+02  0.53104583425E+02  0.00000000000E+00 0.  1.
         12    1    4    4    0    0 -0.16766250246E+03  0.97374658338E+01 -0.29051328985E+03  0.33556445663E+03  0.00000000000E+00 0. -1.
        -13    1    3    3    0    0  0.83414977810E+02  0.26236564771E+02  0.13120186734E+03  0.15767163933E+03  0.00000000000E+00 0. -1.
         13    1    3    3    0    0 -0.14590455095E+01  0.38512124740E+02  0.13146437751E+02  0.40720282309E+02  0.00000000000E+00 0.  1.
          1    1    1    2  501    0  0.13115174853E+03 -0.89317669567E+02 -0.96705873643E+02  0.18582371549E+03  0.00000000000E+00 0. -1.
<scales pt_clust_5="13000.00000" pt_clust_6="13000.00000" pt_clust_7="13000.00000" pt_clust_8="13000.00000" pt_clust_9="170.07416"></scales>
<clustering>
<clus scale="   81.700">  5  6 -1 -1</clus>
<clus scale="   87.257">  7  8 -1 -1</clus>
<clus scale="  136.099">  2  7  1 -1</clus>
<clus scale="  170.074">  1  9  2 -1</clus>
<clus scale="  170.074">  1  5  2 -1</clus>
</clustering>
</event>
<event>
 9    2  0.9254368E-005  0.1039526E+03  0.7546771E-02  0.1277346E+00
          4   -1    0    0  502    0 -0.00000000000E+00  0.00000000000E+00  0.10230342873E+03  0.10230342873E+03  0.00000000000E+00 0. -1.
         21   -1    0    0  501  502  0.00000000000E+00 -0.00000000000E+00 -0.19589253706E+03  0.19589253706E+03  0.00000000000E+00 0. -1.
         24    2    1    2    0    0 -0.34908533924E+02  0.20782938032E+02 -0.15724923861E+02  0.90426604503E+02  0.79241159239E+02 0.  0.
         23    2    1    2    0    0  0.20166794215E+02 -0.82518038512E+02 -0.73053865290E+02  0.14411654760E+03  0.90646488011E+02 0.  0.
        -13    1    3    3    0    0  0.22416642554E+02 -0.48494223257E+01  0.64607858617E+01  0.23827809682E+02  0.00000000000E+00 0.  1.
         14    1    3    3    0    0 -0.57325176478E+02  0.25632360358E+02 -0.22185709723E+02  0.66598794821E+02  0.00000000000E+00 0. -1.
        -13    1    4    4    0    0 -0.71932145302E+01 -0.40632712921E+02  0.14114305873E+02  0.43611619150E+02  0.00000000000E+00 0.  1.
         13    1    4    4    0    0  0.27360008745E+02 -0.41885325591E+02 -0.87168171162E+02  0.10050492845E+03  0.00000000000E+00 0. -1.
          3    1    1    2  501    0  0.14741739710E+02  0.61735100480E+02 -0.48103191758E+01  0.63652813696E+02  0.00000000000E+00 0. -1.
<scales pt_clust_5="13000.00000" pt_clust_6="13000.00000" pt_clust_7="13000.00000" pt_clust_8="13000.00000" pt_clust_9="63.47082"></scales>
<clustering>
<clus scale="   63.471">  2  9  1 -1</clus>
<clus scale="   79.241">  5  6 -1 -1</clus>
<clus scale="   90.646">  7  8 -1 -1</clus>
<clus scale="   94.173">  1  5  2 -1</clus>
<clus scale="   63.471">  2  5  1 -1</clus>
</clustering>
</event>
<event>
 9    2  0.9254368E-005  0.9234445E+02  0.7546771E-02  0.1303395E+00
          2   -1    0    0  502    0 -0.00000000000E+00  0.00000000000E+00  0.79576118972E+02  0.79576118972E+02  0.00000000000E+00 0. -1.
         21   -1    0    0  501  502  0.00000000000E+00 -0.00000000000E+00 -0.22129096474E+03  0.22129096474E+03  0.00000000000E+00 0.  1.
         23    2    1    2    0    0  0.55049185265E+01  0.27485126906E+01  0.26212013005E+02  0.95448910538E+02  0.91572738559E+02 0.  0.
         24    2    1    2    0    0 -0.23451913399E+02 -0.22368409758E+02 -0.10362669348E+03  0.13583695270E+03  0.81626271018E+02 0.  0.
        -13    1    4    4    0    0 -0.51729880935E+02 -0.21148281730E+01 -0.72977707680E+02  0.89477365283E+02  0.00000000000E+00 0.  1.
         14    1    4    4    0    0  0.28277967537E+02 -0.20253581585E+02 -0.30648985802E+02  0.46359587419E+02  0.00000000000E+00 0. -1.
        -13    1    3    3    0    0 -0.24771524999E+02  0.29890654396E+02  0.36736285553E+02  0.53447491496E+02  0.00000000000E+00 0. -1.
         13    1    3    3    0    0  0.30276443525E+02 -0.27142141706E+02 -0.10524272548E+02  0.42001419042E+02  0.00000000000E+00 0.  1.
          1    1    1    2  501    0  0.17946994872E+02  0.19619897067E+02 -0.64300165287E+02  0.69581220468E+02  0.00000000000E+00 0. -1.
<scales pt_clust_5="13000.00000" pt_clust_6="13000.00000" pt_clust_7="13000.00000" pt_clust_8="13000.00000" pt_clust_9="26.59013"></scales>
<clustering>
<clus scale="   26.590">  2  9  1 -1</clus>
<clus scale="   81.626">  5  6 -1 -1</clus>
<clus scale="   82.491">  2  5  1 -1</clus>
<clus scale="   91.573">  7  8 -1 -1</clus>
<clus scale="   26.590">  2  5  1 -1</clus>
</clustering>
</event>
<event>
 9    2  0.9254368E-005  0.1400146E+03  0.7546771E-02  0.1237735E+00
          2   -1    0    0  502    0 -0.00000000000E+00  0.00000000000E+00  0.20868362970E+03  0.20868362970E+03  0.00000000000E+00 0. -1.
         21   -1    0    0  501  502  0.00000000000E+00 -0.00000000000E+00 -0.18851072430E+03  0.18851072430E+03  0.00000000000E+00 0. -1.
         24    2    1    2    0    0  0.13560805840E+01 -0.39220215762E+00  0.10657278571E+03  0.13584017827E+03  0.84218778190E+02 0.  0.
         23    2    1    2    0    0 -0.55499315780E+02 -0.90285403225E+02 -0.38427122870E+02  0.14535717797E+03  0.91762940924E+02 0.  0.
        -11    1    3    3    0    0 -0.34351896553E+02  0.26596094539E+01  0.89972525242E+02  0.96344079308E+02  0.00000000000E+00 0.  1.
         12    1    3    3    0    0  0.35707977137E+02 -0.30518116115E+01  0.16600260472E+02  0.39496098960E+02  0.00000000000E+00 0. -1.
        -13    1    4    4    0    0  0.21482329364E+02 -0.12954979943E+02 -0.25004028662E+02  0.35419252245E+02  0.00000000000E+00 0.  1.
         13    1    4    4    0    0 -0.76981645144E+02 -0.77330423282E+02 -0.13423094208E+02  0.10993792572E+03  0.00000000000E+00 0. -1.
          1    1    1    2  501    0  0.54143235196E+02  0.90677605383E+02 -0.47972757442E+02  0.11599699777E+03  0.00000000000E+00 0. -1.
<scales pt_clust_5="13000.00000" pt_clust_6="13000.00000" pt_clust_7="13000.00000" pt_clust_8="13000.00000" pt_clust_9="105.75282"></scales>
<clustering>
<clus scale="   84.219">  5  6 -1 -1</clus>
<clus scale="   84.231">  1  5  2 -1</clus>
<clus scale="   91.763">  7  8 -1 -1</clus>
<clus scale="  105.753">  2  9  1 -1</clus>
<clus scale="  105.753">  2  5  1 -1</clus>
</clustering>
</event>
<event>
 9    2  0.9254368E-005  0.4475320E+03  0.7546771E-02  0.1028606E+00
         21   -1    0    0  501  502  0.00000000000E+00  0.00000000000E+00  0.12949964532E+03  0.12949964532E+03  0.00000000000E+00 0.  1.
          2   -1    0    0  502    0 -0.00000000000E+00 -0.00000000000E+00 -0.24297320310E+04  0.24297320310E+04  0.00000000000E+00 0. -1.
         23    2    1    2    0    0 -0.13681294416E+03 -0.41154386767E+03 -0.14623524522E+04  0.15280375276E+04  0.91311854309E+02 0.  0.
         24    2    1    2    0    0  0.25979071398E+03  0.37887730608E+03 -0.71876480564E+03  0.85689828011E+03  0.81317824046E+02 0.  0.
        -13    1    4    4    0    0  0.25042629047E+03  0.32479234918E+03 -0.65451325338E+03  0.77239303201E+03  0.00000000000E+00 0.  1.
         14    1    4    4    0    0  0.93644235183E+01  0.54084956895E+02 -0.64251552259E+02  0.84505248109E+02  0.00000000000E+00 0. -1.
        -13    1    3    3    0    0 -0.39358397455E+00 -0.78462939194E+02 -0.35844904879E+03  0.36693638183E+03  0.00000000000E+00 0.  1.
         13    1    3    3    0    0 -0.13641936019E+03 -0.33308092848E+03 -0.11039034034E+04  0.11611011458E+04  0.00000000000E+00 0. -1.
          1    1    1    2  501    0 -0.12297776982E+03  0.32666561593E+02 -0.11911512788E+03  0.17429586858E+03  0.00000000000E+00 0. -1.
<scales pt_clust_5="13000.00000" pt_clust_6="13000.00000" pt_clust_7="13000.00000" pt_clust_8="13000.00000" pt_clust_9="127.24243"></scales>
<clustering>
<clus scale="   81.318">  5  6 -1 -1</clus>
<clus scale="   91.312">  7  8 -1 -1</clus>
<clus scale="  127.242">  1  9  2 -1</clus>
<clus scale="  445.600">  1  5  2 -1</clus>
<clus scale="  127.242">  1  5  2 -1</clus>
</clustering>
</event>
<event>
 9    2  0.9254368E-005  0.3336744E+03  0.7546771E-02  0.1090810E+00
         21   -1    0    0  501  502  0.00000000000E+00  0.00000000000E+00  0.19437704715E+03  0.19437704715E+03  0.00000000000E+00 0. -1.
          2   -1    0    0  502    0 -0.00000000000E+00 -0.00000000000E+00 -0.17753961585E+04  0.17753961585E+04  0.00000000000E+00 0. -1.
         24    2    1    2    0    0  0.10918160555E+02 -0.17020598565E+03  0.28701824484E+02  0.19025669034E+03  0.79275025756E+02 0.  0.
         23    2    1    2    0    0  0.14457342807E+03  0.40756463575E+03 -0.12172938389E+04  0.12952482123E+04  0.94091618924E+02 0.  0.
        -11    1    3    3    0    0 -0.25492689780E+02 -0.19323422637E+02 -0.19395280247E+01  0.32047365938E+02  0.00000000000E+00 0.  1.
         12    1    3    3    0    0  0.36410850335E+02 -0.15088256302E+03  0.30641352509E+02  0.15820932440E+03  0.00000000000E+00 0. -1.
        -13    1    4    4    0    0  0.37056104462E+02  0.62399632179E+02 -0.12336265339E+03  0.14312656366E+03  0.00000000000E+00 0.  1.
         13    1    4    4    0    0  0.10751732361E+03  0.34516500357E+03 -0.10939311855E+04  0.11521216486E+04  0.00000000000E+00 0. -1.
          1    1    1    2  501    0 -0.15549158862E+03 -0.23735865010E+03 -0.39242709694E+03  0.48426830303E+03  0.00000000000E+00 0. -1.
<scales pt_clust_5="13000.00000" pt_clust_6="13000.00000" pt_clust_7="13000.00000" pt_clust_8="13000.00000" pt_clust_9="320.13334"></scales>
<clustering>
<clus scale="   79.275">  5  6 -1 -1</clus>
<clus scale="   94.092">  7  8 -1 -1</clus>
<clus scale="  188.079">  2  5  1 -1</clus>
<clus scale="  320.133">  1  9  2 -1</clus>
<clus scale="  320.133">  1  5  2 -1</clus>
</clustering>
</event>
<event>
 9    2  0.9254368E-005  0.1427251E+03  0.7546771E-02  0.1235479E+00
          2   -1    0    0  502    0 -0.00000000000E+00  0.00000000000E+00  0.32088469609E+03  0.32088469609E+03  0.00000000000E+00 0. -1.
         21   -1    0    0  501  502  0.00000000000E+00 -0.00000000000E+00 -0.52517838470E+03  0.52517838470E+03  0.00000000000E+00 0. -1.
         24    2    1    2    0    0  0.67380104850E+01  0.18245618138E+02  0.27656314943E+03  0.28882775278E+03  0.80969079194E+02 0.  0.
         23    2    1    2    0    0  0.17269102010E+02 -0.11458472109E+03 -0.40902265308E+03  0.43468854373E+03  0.90701263063E+02 0.  0.
        -11    1    3    3    0    0 -0.50737924589E+01 -0.20599040791E+02  0.20280423678E+02  0.29348925636E+02  0.00000000000E+00 0.  1.
         12    1    3    3    0    0  0.11811802944E+02  0.38844658929E+02  0.25628272575E+03  0.25947882714E+03  0.00000000000E+00 0. -1.
        -11    1    4    4    0    0  0.47893788153E+02 -0.84350428576E+02 -0.33802038241E+03  0.35166260630E+03  0.00000000000E+00 0. -1.
         11    1    4    4    0    0 -0.30624686143E+02 -0.30234292514E+02 -0.71002270678E+02  0.83025937433E+02  0.00000000000E+00 0.  1.
          1    1    1    2  501    0 -0.24007112495E+02  0.96339102952E+02 -0.71834184961E+02  0.12254678428E+03  0.00000000000E+00 0. -1.
<scales pt_clust_5="13000.00000" pt_clust_6="13000.00000" pt_clust_7="13000.00000" pt_clust_8="13000.00000" pt_clust_9="110.19861"></scales>
<clustering>
<clus scale="   80.969">  5  6 -1 -1</clus>
<clus scale="   83.272">  1  5  2 -1</clus>
<clus scale="   90.701">  7  8 -1 -1</clus>
<clus scale="  110.199">  2  9  1 -1</clus>
<clus scale="  110.199">  2  5  1 -1</clus>
</clustering>
</event>
<event>
 9    2  0.9254368E-005  0.2230408E+03  0.7546771E-02  0.1133011E+00
         21   -1    0    0  501  502  0.00000000000E+00  0.00000000000E+00  0.47416239244E+02  0.47416239244E+02  0.00000000000E+00 0. -1.
          2   -1    0    0  502    0 -0.00000000000E+00 -0.00000000000E+00 -0.15056626115E+04  0.15056626115E+04  0.00000000000E+00 0. -1.
         23    2    1    2    0    0 -0.18412859240E+03 -0.29915491484E+02 -0.62680829263E+03  0.66142310568E+03  0.98962689195E+02 0.  0.
         24    2    1    2    0    0  0.20709611578E+03  0.86665439346E+02 -0.49305495535E+03  0.54777901932E+03  0.80987440141E+02 0.  0.
        -13    1    4    4    0    0  0.93549569209E+02 -0.35017046185E+01 -0.18787421659E+03  0.20990594344E+03  0.00000000000E+00 0.  1.
         14    1    4    4    0    0  0.11354654657E+03  0.90167143965E+02 -0.30518073876E+03  0.33787307588E+03  0.00000000000E+00 0. -1.
        -11    1    3    3    0    0 -0.46169044573E+02  0.21257609759E+02 -0.76983224789E+02  0.92249030067E+02  0.00000000000E+00 0.  1.
         11    1    3    3    0    0 -0.13795954783E+03 -0.51173101244E+02 -0.54982506784E+03  0.56917407561E+03  0.00000000000E+00 0. -1.
          1    1    1    2  501    0 -0.22967523383E+02 -0.56749947862E+02 -0.33838312430E+03  0.34387672577E+03  0.00000000000E+00 0. -1.
<scales pt_clust_5="13000.00000" pt_clust_6="13000.00000" pt_clust_7="13000.00000" pt_clust_8="13000.00000" pt_clust_9="61.22146"></scales>
<clustering>
<clus scale="   61.221">  1  9  2 -1</clus>
<clus scale="   80.987">  5  6 -1 -1</clus>
<clus scale="   98.963">  7  8 -1 -1</clus>
<clus scale="  215.668">  1  5  2 -1</clus>
<clus scale="   61.221">  1  5  2 -1</clus>
</clustering>
</event>
<event>
 9    2  0.9254368E-005  0.1641842E+03  0.7546771E-02  0.1185142E+00
         21   -1    0    0  501  502  0.00000000000E+00  0.00000000000E+00  0.83774562188E+02  0.83774562188E+02  0.00000000000E+00 0. -1.
          2   -1    0    0  502    0 -0.00000000000E+00 -0.00000000000E+00 -0.63380847712E+03  0.63380847712E+03  0.00000000000E+00 0. -1.
         24    2    1    2    0    0 -0.11825714718E+03  0.53591535198E+01 -0.28549434699E+03  0.32037766514E+03  0.84388107991E+02 0.  0.
         23    2    1    2    0    0  0.16976451042E+03  0.47582530330E+02 -0.25415766381E+03  0.32261573488E+03  0.91655376956E+02 0.  0.
        -13    1    3    3    0    0 -0.28221429960E+02 -0.35903968357E+02 -0.76296080427E+02  0.88919266423E+02  0.00000000000E+00 0.  1.
         14    1    3    3    0    0 -0.90035717222E+02  0.41263121877E+02 -0.20919826656E+03  0.23145839871E+03  0.00000000000E+00 0. -1.
        -11    1    4    4    0    0  0.75052712218E+02  0.22160134640E+01 -0.42355270556E+02  0.86207826041E+02  0.00000000000E+00 0. -1.
         11    1    4    4    0    0  0.94711798207E+02  0.45366516866E+02 -0.21180239326E+03  0.23640790884E+03  0.00000000000E+00 0.  1.
          1    1    1    2  501    0 -0.51507363243E+02 -0.52941683850E+02 -0.10381904138E+02  0.74589639298E+02  0.00000000000E+00 0. -1.
<scales pt_clust_5="13000.00000" pt_clust_6="13000.00000" pt_clust_7="13000.00000" pt_clust_8="13000.00000" pt_clust_9="73.86359"></scales>
<clustering>
<clus scale="   73.864">  1  9  2 -1</clus>
<clus scale="   84.388">  5  6 -1 -1</clus>
<clus scale="   91.655">  7  8 -1 -1</clus>
<clus scale="  160.241">  2  5  1 -1</clus>
<clus scale="   73.864">  1  5  2 -1</clus>
</clustering>
</event>
<event>
 9    2  0.9254368E-005  0.1108088E+03  0.7546771E-02  0.1263266E+00
         21   -1    0    0  501  502  0.00000000000E+00  0.00000000000E+00  0.15837333400E+03  0.15837333400E+03  0.00000000000E+00 0.  1.
          2   -1    0    0  502    0 -0.00000000000E+00 -0.00000000000E+00 -0.33958109649E+03  0.33958109649E+03  0.00000000000E+00 0. -1.
         23    2    1    2    0    0 -0.17166280127E+02 -0.34641771571E+02  0.61441188296E+01  0.99148815069E+02  0.91093379685E+02 0.  0.
         24    2    1    2    0    0  0.36126816945E+02  0.10397734774E+03  0.54338131951E+02  0.14665291050E+03  0.80237197302E+02 0.  0.
        -11    1    4    4    0    0  0.22269531044E+02  0.90224160281E+02  0.44022668919E+01  0.93036073999E+02  0.00000000000E+00 0.  1.
         12    1    4    4    0    0  0.13857285901E+02  0.13753187455E+02  0.49935865059E+02  0.53616836506E+02  0.00000000000E+00 0. -1.
        -11    1    3    3    0    0  0.25815621529E+02  0.14553882333E+02  0.15014674822E+02  0.33222014778E+02  0.00000000000E+00 0. -1.
         11    1    3    3    0    0 -0.42981901656E+02 -0.49195653903E+02 -0.88705559924E+01  0.65926800291E+02  0.00000000000E+00 0.  1.
          1    1    1    2  501    0 -0.18960536818E+02 -0.69335576166E+02 -0.24169001327E+03  0.25215270491E+03  0.00000000000E+00 0. -1.
<scales pt_clust_5="13000.00000" pt_clust_6="13000.00000" pt_clust_7="13000.00000" pt_clust_8="13000.00000" pt_clust_9="71.88136"></scales>
<clustering>
<clus scale="   71.881">  1  9  2 -1</clus>
<clus scale="   80.237">  5  6 -1 -1</clus>
<clus scale="   91.093">  7  8 -1 -1</clus>
<clus scale="  102.072">  1  5  2 -1</clus>
<clus scale="   71.881">  1  5  2 -1</clus>
</clustering>
</event>
<event>
 9    2  0.9254368E-005  0.1001537E+03  0.7546771E-02  0.1281994E+00
         21   -1    0    0  501  502  0.00000000000E+00  0.00000000000E+00  0.26344571484E+02  0.26344571484E+02  0.00000000000E+00 0.  1.
          2   -1    0    0  502    0 -0.00000000000E+00 -0.00000000000E+00 -0.72954185819E+03  0.72954185819E+03  0.00000000000E+00 0. -1.
         24    2    1    2    0    0 -0.29181291853E+02 -0.66729005680E+02 -0.25974011418E+03  0.28191125010E+03  0.81882342560E+02 0.  0.
         23    2    1    2    0    0  0.19234698984E+02  0.17904463425E+02 -0.14061590460E+03  0.16706215575E+03  0.86292455069E+02 0.  0.
        -11    1    3    3    0    0 -0.21652134869E+02  0.14871328857E+02 -0.45562820345E+02  0.52592223419E+02  0.00000000000E+00 0.  1.
         12    1    3    3    0    0 -0.75291569841E+01 -0.81600334537E+02 -0.21417729384E+03  0.22931902668E+03  0.00000000000E+00 0. -1.
        -13    1    4    4    0    0 -0.71203050547E+01 -0.31874049267E+02 -0.38897878555E+02  0.50790734557E+02  0.00000000000E+00 0.  1.
         13    1    4    4    0    0  0.26355004039E+02  0.49778512693E+02 -0.10171802604E+03  0.11627142119E+03  0.00000000000E+00 0. -1.
          1    1    1    2  501    0  0.99465928696E+01  0.48824542255E+02 -0.30284126793E+03  0.30691302383E+03  0.00000000000E+00 0. -1.
<scales pt_clust_5="13000.00000" pt_clust_6="13000.00000" pt_clust_7="13000.00000" pt_clust_8="13000.00000" pt_clust_9="49.82743"></scales>
<clustering>
<clus scale="   49.827">  1  9  2 -1</clus>
<clus scale="   81.882">  5  6 -1 -1</clus>
<clus scale="   86.292">  7  8 -1 -1</clus>
<clus scale="   96.380">  2  5  1 -1</clus>
<clus scale="   49.827">  1  5  2 -1</clus>
</clustering>
</event>
<event>
 9    2  0.9254368E-005  0.1282176E+03  0.7546771E-02  0.1233962E+00
         21   -1    0    0  501  502  0.00000000000E+00  0.00000000000E+00  0.40574833816E+03  0.40574833816E+03  0.00000000000E+00 0.  1.
         -1   -1    0    0    0  501 -0.00000000000E+00 -0.00000000000E+00 -0.70111984679E+02  0.70111984679E+02  0.00000000000E+00 0.  1.
         23    2    1    2    0    0 -0.88756199548E+02  0.42694267161E+02  0.39588479672E+02  0.14132707848E+03  0.93303976238E+02 0.  0.
         24    2    1    2    0    0  0.62295697366E+02 -0.31492009581E+02  0.13771570892E+03  0.17361487005E+03  0.79397771020E+02 0.  0.
        -11    1    4    4    0    0  0.14068035521E+02  0.26493742039E+02  0.33442343716E+02  0.44924585072E+02  0.00000000000E+00 0.  1.
         12    1    4    4    0    0  0.48227661845E+02 -0.57985751620E+02  0.10427336520E+03  0.12869028498E+03  0.00000000000E+00 0. -1.
        -13    1    3    3    0    0 -0.59443774928E+02 -0.21299353022E+02  0.31229203703E+02  0.70444928709E+02  0.00000000000E+00 0.  1.
         13    1    3    3    0    0 -0.29312424619E+02  0.63993620183E+02  0.83592759688E+01  0.70882149769E+02  0.00000000000E+00 0. -1.
         -2    1    1    2    0  502  0.26460502182E+02 -0.11202257580E+02  0.15833216489E+03  0.16091837431E+03  0.00000000000E+00 0.  1.
<scales pt_clust_5="13000.00000" pt_clust_6="13000.00000" pt_clust_7="13000.00000" pt_clust_8="13000.00000" pt_clust_9="28.73410"></scales>
<clustering>
<clus scale="   28.734">  1  9  2 -1</clus>
<clus scale="   79.398">  5  6 -1 -1</clus>
<clus scale="   93.304">  7  8 -1 -1</clus>
<clus scale="  118.483">  1  5  2 -1</clus>
<clus scale="   28.734">  1  5  2 -1</clus>
</clustering>
</event>
<event>
 9    2  0.9254368E-005  0.1381338E+03  0.7546771E-02  0.1218290E+00
         21   -1    0    0  501  502  0.00000000000E+00  0.00000000000E+00  0.58300720575E+02  0.58300720575E+02  0.00000000000E+00 0.  1.
          2   -1    0    0  502    0 -0.00000000000E+00 -0.00000000000E+00 -0.69472491391E+03  0.69472491391E+03  0.00000000000E+00 0. -1.
         24    2    1    2    0    0  0.59225728302E+02  0.61883315945E+02 -0.17134552686E+03  0.20779456864E+03  0.80511250753E+02 0.  0.
         23    2    1    2    0    0 -0.12247144132E+03 -0.73237412371E+02 -0.15854159807E+03  0.23203159262E+03  0.91324964523E+02 0.  0.
        -11    1    3    3    0    0 -0.66436997790E+01  0.48638407356E+02 -0.57532880508E+02  0.75629794105E+02  0.00000000000E+00 0.  1.
         12    1    3    3    0    0  0.65869428082E+02  0.13244908589E+02 -0.11381264635E+03  0.13216477454E+03  0.00000000000E+00 0. -1.
        -11    1    4    4    0    0 -0.86059280734E+01 -0.25338331765E+02 -0.83063391496E+02  0.87267520083E+02  0.00000000000E+00 0. -1.
         11    1    4    4    0    0 -0.11386551325E+03 -0.47899080606E+02 -0.75478206579E+02  0.14476407254E+03  0.00000000000E+00 0.  1.
          1    1    1    2  501    0  0.63245713018E+02  0.11354096426E+02 -0.30653706840E+03  0.31319947322E+03  0.00000000000E+00 0. -1.
<scales pt_clust_5="13000.00000" pt_clust_6="13000.00000" pt_clust_7="13000.00000" pt_clust_8="13000.00000" pt_clust_9="64.25683"></scales>
<clustering>
<clus scale="   64.257">  1  9  2 -1</clus>
<clus scale="   80.511">  5  6 -1 -1</clus>
<clus scale="   91.325">  7  8 -1 -1</clus>
<clus scale="  131.236">  2  5  1 -1</clus>
<clus scale="   64.257">  1  5  2 -1</clus>
</clustering>
</event>
<event>
 9    2  0.9254368E-005  0.1034536E+03  0.7546771E-02  0.1280140E+00
          2   -1    0    0  502    0 -0.00000000000E+00  0.00000000000E+00  0.67090971650E+02  0.67090971650E+02  0.00000000000E+00 0. -1.
         21   -1    0    0  501  502  0.00000000000E+00 -0.00000000000E+00 -0.21124104600E+03  0.21124104600E+03  0.00000000000E+00 0.  1.
         23    2    1    2    0    0 -0.10024938479E+02  0.37470385884E+02 -0.35367201324E+02  0.10746925396E+03  0.93777782057E+02 0.  0.
         24    2    1    2    0    0  0.32842867679E+02 -0.43825842529E+02 -0.11105218652E+03  0.14706781663E+03  0.79353614452E+02 0.  0.
        -13    1    4    4    0    0  0.10037192229E+02 -0.63924313345E+02 -0.63717773686E+02  0.90813092382E+02  0.00000000000E+00 0.  1.
         14    1    4    4    0    0  0.22805675450E+02  0.20098470816E+02 -0.47334412831E+02  0.56254724245E+02  0.00000000000E+00 0. -1.
        -13    1    3    3    0    0 -0.46208527365E+02  0.44225911991E+02 -0.28504375826E+02  0.70026128938E+02  0.00000000000E+00 0.  1.
         13    1    3    3    0    0  0.36183588887E+02 -0.67555261074E+01 -0.68628254978E+01  0.37443125023E+02  0.00000000000E+00 0. -1.
          1    1    1    2  501    0 -0.22817929200E+02  0.63554566454E+01  0.22693134871E+01  0.23794947066E+02  0.00000000000E+00 0. -1.
<scales pt_clust_5="13000.00000" pt_clust_6="13000.00000" pt_clust_7="13000.00000" pt_clust_8="13000.00000" pt_clust_9="23.68650"></scales>
<clustering>
<clus scale="   23.687">  2  9  1 -1</clus>
<clus scale="   79.354">  5  6 -1 -1</clus>
<clus scale="   90.584">  2  5  1 -1</clus>
<clus scale="   93.778">  7  8 -1 -1</clus>
<clus scale="   23.687">  2  5  1 -1</clus>
</clustering>
</event>
<event>
 9    2  0.9254368E-005  0.1080047E+03  0.7546771E-02  0.1268973E+00
          2   -1    0    0  502    0 -0.00000000000E+00  0.00000000000E+00  0.76067348602E+02  0.76067348602E+02  0.00000000000E+00 0. -1.
         21   -1    0    0  501  502  0.00000000000E+00 -0.00000000000E+00 -0.61510521817E+03  0.61510521817E+03  0.00000000000E+00 0. -1.
         24    2    1    2    0    0  0.39930578336E+02  0.54526613666E+02  0.17918571663E+02  0.10589966687E+03  0.79536542220E+02 0.  0.
         23    2    1    2    0    0 -0.34833120387E+02  0.15171942759E+02 -0.21854108369E+03  0.23971707653E+03  0.90887498582E+02 0.  0.
        -11    1    3    3    0    0  0.36023701277E+02  0.49277649343E+02 -0.22424331638E+02  0.65029565798E+02  0.00000000000E+00 0.  1.
         12    1    3    3    0    0  0.39068770587E+01  0.52489643235E+01  0.40342903301E+02  0.40870101071E+02  0.00000000000E+00 0. -1.
        -11    1    4    4    0    0  0.30388828147E+02  0.18265403753E+01 -0.50465897955E+02  0.58937458227E+02  0.00000000000E+00 0.  1.
         11    1    4    4    0    0 -0.65221948534E+02  0.13345402384E+02 -0.16807518574E+03  0.18077961831E+03  0.00000000000E+00 0. -1.
          1    1    1    2  501    0 -0.50974579489E+01 -0.69698556425E+02 -0.33841535754E+03  0.34555582337E+03  0.00000000000E+00 0. -1.
<scales pt_clust_5="13000.00000" pt_clust_6="13000.00000" pt_clust_7="13000.00000" pt_clust_8="13000.00000" pt_clust_9="69.88471"></scales>
<clustering>
<clus scale="   69.885">  2  9  1 -1</clus>
<clus scale="   79.537">  5  6 -1 -1</clus>
<clus scale="   90.887">  7  8 -1 -1</clus>
<clus scale="   98.644">  1  5  2 -1</clus>
<clus scale="   69.885">  2  5  1 -1</clus>
</clustering>
</event>
<event>
 9    2  0.9254368E-005  0.9376519E+02  0.7546771E-02  0.1299699E+00
          2   -1    0    0  502    0 -0.00000000000E+00  0.00000000000E+00  0.21567737808E+03  0.21567737808E+03  0.00000000000E+00 0. -1.
         21   -1    0    0  501  502  0.00000000000E+00 -0.00000000000E+00 -0.13603800799E+03  0.13603800799E+03  0.00000000000E+00 0. -1.
         23    2    1    2    0    0  0.31814751110E+02 -0.95472657084E+01  0.16000182420E+03  0.18639820908E+03  0.89668165653E+02 0.  0.
         24    2    1    2    0    0 -0.97036633974E+01  0.25667906740E+01  0.13268805577E+01  0.80400896863E+02  0.79760855730E+02 0.  0.
        -13    1    4    4    0    0 -0.39767553775E+02  0.98081944081E+01 -0.17119902048E+02  0.44393130740E+02  0.00000000000E+00 0.  1.
         14    1    4    4    0    0  0.30063890377E+02 -0.72414037340E+01  0.18446782606E+02  0.36007766123E+02  0.00000000000E+00 0. -1.
        -11    1    3    3    0    0 -0.21642072462E+02  0.21615288930E+02  0.32240396626E+02  0.44441458016E+02  0.00000000000E+00 0.  1.
         11    1    3    3    0    0  0.53456823572E+02 -0.31162554638E+02  0.12776142757E+03  0.14195675107E+03  0.00000000000E+00 0. -1.
          1    1    1    2  501    0 -0.22111087712E+02  0.69804750344E+01 -0.81689334667E+02  0.84916280123E+02  0.00000000000E+00 0. -1.
<scales pt_clust_5="13000.00000" pt_clust_6="13000.00000" pt_clust_7="13000.00000" pt_clust_8="13000.00000" pt_clust_9="23.18679"></scales>
<clustering>
<clus scale="   23.187">  2  9  1 -1</clus>
<clus scale="   79.761">  5  6 -1 -1</clus>
<clus scale="   84.341">  2  5  1 -1</clus>
<clus scale="   89.668">  7  8 -1 -1</clus>
<clus scale="   23.187">  2  5  1 -1</clus>
</clustering>
</event>
<event>
 9    2  0.9254368E-005  0.1200133E+03  0.7546771E-02  0.1247175E+00
          2   -1    0    0  502    0 -0.00000000000E+00  0.00000000000E+00  0.33341409896E+03  0.33341409896E+03  0.00000000000E+00 0. -1.
         21   -1    0    0  501  502  0.00000000000E+00 -0.00000000000E+00 -0.78844020392E+02  0.78844020392E+02  0.00000000000E+00 0. -1.
         24    2    1    2    0    0  0.49846166931E+02  0.63778402229E+02  0.12343171699E+03  0.16718516570E+03  0.78505833692E+02 0.  0.
         23    2    1    2    0    0 -0.28045973815E+01 -0.81380818501E+02  0.21247861783E+02  0.12424797167E+03  0.91407786582E+02 0.  0.
        -11    1    3    3    0    0  0.66316876808E+02  0.53908313186E+02  0.12054589368E+03  0.14776788171E+03  0.00000000000E+00 0.  1.
         12    1    3    3    0    0 -0.16470709877E+02  0.98700890435E+01  0.28858233023E+01  0.19417283994E+02  0.00000000000E+00 0. -1.
        -11    1    4    4    0    0  0.39417922885E+02 -0.16832191347E+02  0.19520383840E+02  0.47097141053E+02  0.00000000000E+00 0. -1.
         11    1    4    4    0    0 -0.42222520266E+02 -0.64548627154E+02  0.17274779430E+01  0.77150830619E+02  0.00000000000E+00 0.  1.
          1    1    1    2  501    0 -0.47041569550E+02  0.17602416271E+02  0.10989049980E+03  0.12082498198E+03  0.00000000000E+00 0. -1.
<scales pt_clust_5="13000.00000" pt_clust_6="13000.00000" pt_clust_7="13000.00000" pt_clust_8="13000.00000" pt_clust_9="50.22705"></scales>
<clustering>
<clus scale="   50.227">  2  9  1 -1</clus>
<clus scale="   78.506">  5  6 -1 -1</clus>
<clus scale="   91.408">  7  8 -1 -1</clus>
<clus scale="  110.503">  1  5  2 -1</clus>
<clus scale="   50.227">  2  5  1 -1</clus>
</clustering>
</event>
<event>
 9    2  0.9254368E-005  0.1704340E+03  0.7546771E-02  0.1203070E+00
         21   -1    0    0  501  502  0.00000000000E+00  0.00000000000E+00  0.33627143221E+02  0.33627143221E+02  0.00000000000E+00 0. -1.
          2   -1    0    0  502    0 -0.00000000000E+00 -0.00000000000E+00 -0.14764696166E+04  0.14764696166E+04  0.00000000000E+00 0. -1.
         24    2    1    2    0    0  0.51307675413E+02  0.11913363579E+02 -0.50042576541E+03  0.50967658357E+03  0.81054718364E+02 0.  0.
         23    2    1    2    0    0 -0.29318345398E+02 -0.14242186028E+03 -0.33192025080E+03  0.37574272143E+03  0.99337747877E+02 0.  0.
        -13    1    3    3    0    0  0.52003430134E+02  0.38129215351E+02 -0.26225907307E+03  0.27007038937E+03  0.00000000000E+00 0.  1.
         14    1    3    3    0    0 -0.69575472103E+00 -0.26215851772E+02 -0.23816669234E+03  0.23960619420E+03  0.00000000000E+00 0. -1.
        -13    1    4    4    0    0 -0.54624173677E+01 -0.38919354321E+02 -0.15979157515E+02  0.42425082429E+02  0.00000000000E+00 0. -1.
         13    1    4    4    0    0 -0.23855928030E+02 -0.10350250596E+03 -0.31594109329E+03  0.33331763900E+03  0.00000000000E+00 0.  1.
          1    1    1    2  501    0 -0.21989330015E+02  0.13050849670E+03 -0.61049645722E+03  0.62467745487E+03  0.00000000000E+00 0. -1.
<scales pt_clust_5="13000.00000" pt_clust_6="13000.00000" pt_clust_7="13000.00000" pt_clust_8="13000.00000" pt_clust_9="138.49114"></scales>
<clustering>
<clus scale="   81.055">  5  6 -1 -1</clus>
<clus scale="   96.666">  2  5  1 -1</clus>
<clus scale="   99.338">  7  8 -1 -1</clus>
<clus scale="  138.491">  1  9  2 -1</clus>
<clus scale="  138.491">  1  5  2 -1</clus>
</clustering>
</event>
<event>
 9    2  0.9254368E-005  0.1038574E+03  0.7546771E-02  0.1276895E+00
         -3   -1    0    0    0  501 -0.00000000000E+00  0.00000000000E+00  0.11283854491E+03  0.11283854491E+03  0.00000000000E+00 0.  1.
         21   -1    0    0  501  502  0.00000000000E+00 -0.00000000000E+00 -0.15968269464E+03  0.15968269464E+03  0.00000000000E+00 0.  1.
         23    2    1    2    0    0 -0.42572631301E+02  0.14466721280E+02  0.48497847579E+02  0.11287994510E+03  0.91477460752E+02 0.  0.
         24    2    1    2    0    0  0.64023921885E+02 -0.90457591053E+01 -0.88075567276E+02  0.13635297755E+03  0.81571689972E+02 0.  0.
        -11    1    4    4    0    0  0.27191358617E+02  0.36453307549E+02 -0.41065272638E+02  0.61274547992E+02  0.00000000000E+00 0.  1.
         12    1    4    4    0    0  0.36832563268E+02 -0.45499066654E+02 -0.47010294637E+02  0.75078429560E+02  0.00000000000E+00 0. -1.
        -11    1    3    3    0    0 -0.63018765704E+02 -0.14362823471E+02  0.20554900648E+02  0.67824475446E+02  0.00000000000E+00 0. -1.
         11    1    3    3    0    0  0.20446134403E+02  0.28829544751E+02  0.27942946931E+02  0.45055469654E+02  0.00000000000E+00 0.  1.
         -4    1    1    2    0  502 -0.21451290584E+02 -0.54209621747E+01 -0.72664300305E+01  0.23288316899E+02  0.00000000000E+00 0.  1.
<scales pt_clust_5="13000.00000" pt_clust_6="13000.00000" pt_clust_7="13000.00000" pt_clust_8="13000.00000" pt_clust_9="22.12566"></scales>
<clustering>
<clus scale="   22.126">  2  9  1 -1</clus>
<clus scale="   81.572">  5  6 -1 -1</clus>
<clus scale="   91.477">  7  8 -1 -1</clus>
<clus scale="   95.248">  2  5  1 -1</clus>
<clus scale="   22.126">  2  5  1 -1</clus>
</clustering>
</event>
<event>
 9    2  0.9254368E-005  0.1091588E+03  0.7546771E-02  0.1266170E+00
         21   -1    0    0  501  502  0.00000000000E+00  0.00000000000E+00  0.57967064240E+02  0.57967064240E+02  0.00000000000E+00 0. -1.
          2   -1    0    0  502    0 -0.00000000000E+00 -0.00000000000E+00 -0.17542517756E+04  0.17542517756E+04  0.00000000000E+00 0. -1.
         24    2    1    2    0    0  0.25101655895E+02  0.50596994066E+02 -0.13973987384E+04  0.14007958319E+04  0.79470621463E+02 0.  0.
         23    2    1    2    0    0 -0.57634928180E+02 -0.13231853309E+03 -0.26964134097E+03  0.31872957641E+03  0.89733555458E+02 0.  0.
        -11    1    3    3    0    0  0.26734963718E+02  0.20265154866E+01 -0.14521753283E+03  0.14767192316E+03  0.00000000000E+00 0.  1.
         12    1    3    3    0    0 -0.16333078235E+01  0.48570478579E+02 -0.12521812056E+04  0.12531239087E+04  0.00000000000E+00 0. -1.
        -13    1    4    4    0    0 -0.23380997002E+02  0.83405226593E+01 -0.47141630562E+02  0.53278219481E+02  0.00000000000E+00 0.  1.
         13    1    4    4    0    0 -0.34253931179E+02 -0.14065905575E+03 -0.22249971041E+03  0.26545135693E+03  0.00000000000E+00 0. -1.
          1    1    1    2  501    0  0.32533272286E+02  0.81721539024E+02 -0.29244631992E+02  0.92693431517E+02  0.00000000000E+00 0. -1.
<scales pt_clust_5="13000.00000" pt_clust_6="13000.00000" pt_clust_7="13000.00000" pt_clust_8="13000.00000" pt_clust_9="87.95922"></scales>
<clustering>
<clus scale="   79.471">  5  6 -1 -1</clus>
<clus scale="   87.959">  1  9  2 -1</clus>
<clus scale="   89.734">  7  8 -1 -1</clus>
<clus scale="  100.892">  2  5  1 -1</clus>
<clus scale="   87.959">  1  5  2 -1</clus>
</clustering>
</event>
<event>
 9    2  0.9254368E-005  0.9927128E+02  0.7546771E-02  0.1286458E+00
         21   -1    0    0  501  502  0.00000000000E+00  0.00000000000E+00  0.34072335791E+03  0.34072335791E+03  0.00000000000E+00 0. -1.
          2   -1    0    0  502    0 -0.00000000000E+00 -0.00000000000E+00 -0.45691185821E+02  0.45691185821E+02  0.00000000000E+00 0. -1.
         24    2    1    2    0    0 -0.47945412022E+02 -0.98833384677E+01  0.47528136880E+02  0.10569610731E+03  0.80723604925E+02 0.  0.
         23    2    1    2    0    0  0.29376070829E+02 -0.13659022479E+02  0.14326244680E+03  0.17225013716E+03  0.89980323710E+02 0.  0.
        -13    1    3    3    0    0 -0.70649480948E+02 -0.11133020626E+02  0.33495215611E+02  0.78976089896E+02  0.00000000000E+00 0.  1.
         14    1    3    3    0    0  0.22704068926E+02  0.12496821583E+01  0.14032921269E+02  0.26720017414E+02  0.00000000000E+00 0. -1.
        -11    1    4    4    0    0  0.21545265527E+02  0.37272180362E+02  0.78049805759E+02  0.89135773260E+02  0.00000000000E+00 0.  1.
         11    1    4    4    0    0  0.78308053027E+01 -0.50931202841E+02  0.65212641039E+02  0.83114363896E+02  0.00000000000E+00 0. -1.
          1    1    1    2  501    0  0.18569341193E+02  0.23542360947E+02  0.10424158841E+03  0.10846829927E+03  0.00000000000E+00 0. -1.
<scales pt_clust_5="13000.00000" pt_clust_6="13000.00000" pt_clust_7="13000.00000" pt_clust_8="13000.00000" pt_clust_9="29.98438"></scales>
<clustering>
<clus scale="   29.984">  1  9  2 -1</clus>
<clus scale="   80.724">  5  6 -1 -1</clus>
<clus scale="   89.980">  7  8 -1 -1</clus>
<clus scale="   90.965">  2  5  1 -1</clus>
<clus scale="   29.984">  1  5  2 -1</clus>
</clustering>
</event>
<event>
 9    2  0.9254368E-005  0.9378510E+02  0.7546771E-02  0.1298588E+00
         -1   -1    0    0    0  501 -0.00000000000E+00  0.00000000000E+00  0.34529313123E+03  0.34529313123E+03  0.00000000000E+00 0.  1.
         21   -1    0    0  501  502  0.00000000000E+00 -0.00000000000E+00 -0.43658684883E+02  0.43658684883E+02  0.00000000000E+00 0. -1.
         24    2    1    2    0    0 -0.94377066012E+01  0.21762486764E+02  0.20810014803E+03  0.22558667037E+03  0.83791396342E+02 0.  0.
         23    2    1    2    0    0  0.21387389842E+02  0.16289893923E+01  0.98865661489E+02  0.13656254289E+03  0.91732410021E+02 0.  0.
        -11    1    3    3    0    0  0.33422338189E+02  0.27793111990E+02  0.11413462391E+03  0.12213198655E+03  0.00000000000E+00 0.  1.
         12    1    3    3    0    0 -0.42860044790E+02 -0.60306252259E+01  0.93965524124E+02  0.10345468382E+03  0.00000000000E+00 0. -1.
        -13    1    4    4    0    0 -0.22257332654E+02 -0.29199725957E+02  0.60544268683E+02  0.70806929910E+02  0.00000000000E+00 0.  1.
         13    1    4    4    0    0  0.43644722496E+02  0.30828715350E+02  0.38321392806E+02  0.65755612980E+02  0.00000000000E+00 0. -1.
         -2    1    1    2    0  502 -0.11949683240E+02 -0.23391476157E+02 -0.53313631757E+01  0.26802602852E+02  0.00000000000E+00 0.  1.
<scales pt_clust_5="13000.00000" pt_clust_6="13000.00000" pt_clust_7="13000.00000" pt_clust_8="13000.00000" pt_clust_9="26.26702"></scales>
<clustering>
<clus scale="   26.267">  2  9  1 -1</clus>
<clus scale="   83.791">  5  6 -1 -1</clus>
<clus scale="   86.034">  1  5  2 -1</clus>
<clus scale="   91.732">  7  8 -1 -1</clus>
<clus scale="   26.267">  2  5  1 -1</clus>
</clustering>
</event>
<event>
 9    2  0.9254368E-005  0.1033683E+03  0.7546771E-02  0.1284505E+00
          2   -1    0    0  502    0 -0.00000000000E+00  0.00000000000E+00  0.15436742361E+03  0.15436742361E+03  0.00000000000E+00 0. -1.
         21   -1    0    0  501  502  0.00000000000E+00 -0.00000000000E+00 -0.14088321679E+03  0.14088321679E+03  0.00000000000E+00 0.  1.
         24    2    1    2    0    0 -0.24852154249E+02  0.15115177051E+02  0.61806168463E+02  0.10530586992E+03  0.80145028743E+02 0.  0.
         23    2    1    2    0    0 -0.27052320069E+02 -0.30609733213E+02 -0.72571757558E+02  0.13059657484E+03  0.10059831795E+03 0.  0.
        -11    1    3    3    0    0  0.23698935947E+02  0.30268815937E+01  0.47657031154E+02  0.53310357301E+02  0.00000000000E+00 0.  1.
         12    1    3    3    0    0 -0.48551090196E+02  0.12088295457E+02  0.14149137309E+02  0.51995512622E+02  0.00000000000E+00 0. -1.
        -11    1    4    4    0    0 -0.26313308218E+02 -0.66265177806E+02 -0.58616178137E+02  0.92300164238E+02  0.00000000000E+00 0. -1.
         11    1    4    4    0    0 -0.73901185053E+00  0.35655444593E+02 -0.13955579421E+02  0.38296410597E+02  0.00000000000E+00 0.  1.
          1    1    1    2  501    0  0.51904474317E+02  0.15494556162E+02  0.24249795917E+02  0.59348195649E+02  0.00000000000E+00 0. -1.
<scales pt_clust_5="13000.00000" pt_clust_6="13000.00000" pt_clust_7="13000.00000" pt_clust_8="13000.00000" pt_clust_9="54.16787"></scales>
<clustering>
<clus scale="   54.168">  2  9  1 -1</clus>
<clus scale="   80.145">  5  6 -1 -1</clus>
<clus scale="   83.596">  1  5  2 -1</clus>
<clus scale="  100.598">  7  8 -1 -1</clus>
<clus scale="   54.168">  2  5  1 -1</clus>
</clustering>
</event>
<event>
 9    2  0.9254368E-005  0.8472490E+02  0.7546771E-02  0.1318168E+00
         21   -1    0    0  501  502  0.00000000000E+00  0.00000000000E+00  0.51959129586E+02  0.51959129586E+02  0.00000000000E+00 0. -1.
          2   -1    0    0  502    0 -0.00000000000E+00 -0.00000000000E+00 -0.57487189554E+03  0.57487189554E+03  0.00000000000E+00 0. -1.
         24    2    1    2    0    0  0.42241143412E+00 -0.98822187864E+01 -0.38907248060E+03  0.39740578934E+03  0.80350043913E+02 0.  0.
         23    2    1    2    0    0  0.59035516973E+02  0.45117634266E+02 -0.54774597152E+02  0.12441017589E+03  0.83407686615E+02 0.  0.
        -11    1    3    3    0    0 -0.28392993522E+02  0.18319482616E+02 -0.10045725776E+03  0.10598785856E+03  0.00000000000E+00 0.  1.
         12    1    3    3    0    0  0.28815404956E+02 -0.28201701403E+02 -0.28861522284E+03  0.29141793078E+03  0.00000000000E+00 0. -1.
        -11    1    4    4    0    0  0.33160554935E+02  0.21990192094E+02  0.18085800436E+02  0.43706831609E+02  0.00000000000E+00 0. -1.
         11    1    4    4    0    0  0.25874962038E+02  0.23127442172E+02 -0.72860397587E+02  0.80703344283E+02  0.00000000000E+00 0.  1.
          1    1    1    2  501    0 -0.59457928407E+02 -0.35235415479E+02 -0.79065688199E+02  0.10501505990E+03  0.00000000000E+00 0. -1.
<scales pt_clust_5="13000.00000" pt_clust_6="13000.00000" pt_clust_7="13000.00000" pt_clust_8="13000.00000" pt_clust_9="69.11425"></scales>
<clustering>
<clus scale="   69.114">  1  9  2 -1</clus>
<clus scale="   80.350">  5  6 -1 -1</clus>
<clus scale="   81.717">  2  5  1 -1</clus>
<clus scale="   83.408">  7  8 -1 -1</clus>
<clus scale="   69.114">  1  5  2 -1</clus>
</clustering>
</event>
<event>
 9    2  0.9254368E-005  0.1473837E+03  0.7546771E-02  0.1206165E+00
          2   -1    0    0  502    0 -0.00000000000E+00  0.00000000000E+00  0.39343140192E+03  0.39343140192E+03  0.00000000000E+00 0. -1.
         21   -1    0    0  501  502  0.00000000000E+00 -0.00000000000E+00 -0.74655811508E+02  0.74655811508E+02  0.00000000000E+00 0. -1.
         23    2    1    2    0    0 -0.12279326471E+03 -0.27259572963E+02  0.15053126916E+03  0.21589976597E+03  0.90176359287E+02 0.  0.
         24    2    1    2    0    0  0.10003170837E+03  0.33426841589E+02  0.64449919537E+02  0.14574778626E+03  0.77232950557E+02 0.  0.
        -13    1    4    4    0    0  0.55000969176E+02 -0.12823969112E+02  0.28926314772E+01  0.56550226444E+02  0.00000000000E+00 0.  1.
         14    1    4    4    0    0  0.45030739196E+02  0.46250810701E+02  0.61557288059E+02  0.89197559811E+02  0.00000000000E+00 0. -1.
        -11    1    3    3    0    0 -0.10047070167E+03 -0.36935404069E+02  0.15764363593E+03  0.19055209765E+03  0.00000000000E+00 0. -1.
         11    1    3    3    0    0 -0.22322563046E+02  0.96758311060E+01 -0.71123667699E+01  0.25347668327E+02  0.00000000000E+00 0.  1.
          1    1    1    2  501    0  0.22761556342E+02 -0.61672686267E+01  0.10379440171E+03  0.10643966120E+03  0.00000000000E+00 0. -1.
<scales pt_clust_5="13000.00000" pt_clust_6="13000.00000" pt_clust_7="13000.00000" pt_clust_8="13000.00000" pt_clust_9="23.58229"></scales>
<clustering>
<clus scale="   23.582">  2  9  1 -1</clus>
<clus scale="   77.233">  5  6 -1 -1</clus>
<clus scale="   90.176">  7  8 -1 -1</clus>
<clus scale="  139.840">  2  5  1 -1</clus>
<clus scale="   23.582">  2  5  1 -1</clus>
</clustering>
</event>
<event>
 9    2  0.9254368E-005  0.2763379E+03  0.7546771E-02  0.1141450E+00
         21   -1    0    0  501  502  0.00000000000E+00  0.00000000000E+00  0.11729614692E+03  0.11729614692E+03  0.00000000000E+00 0. -1.
          2   -1    0    0  502    0 -0.00000000000E+00 -0.00000000000E+00 -0.88729818076E+03  0.88729818076E+03  0.00000000000E+00 0. -1.
         24    2    1    2    0    0 -0.43072139123E+02 -0.10887099320E+02 -0.19631750377E+03  0.21698399624E+03  0.81041682089E+02 0.  0.
         23    2    1    2    0    0 -0.10339736554E+03  0.23445481388E+03 -0.27679514638E+03  0.38813674666E+03  0.91512327560E+02 0.  0.
        -11    1    3    3    0    0 -0.65523917774E+02  0.23938550273E+01 -0.15235426374E+03  0.16586420959E+03  0.00000000000E+00 0.  1.
         12    1    3    3    0    0  0.22451778652E+02 -0.13280954347E+02 -0.43963240027E+02  0.51119786645E+02  0.00000000000E+00 0. -1.
        -13    1    4    4    0    0 -0.12749064965E+02  0.81809629077E+02 -0.39379900188E+02  0.91684952997E+02  0.00000000000E+00 0.  1.
         13    1    4    4    0    0 -0.90648300578E+02  0.15264518480E+03 -0.23741524619E+03  0.29645179366E+03  0.00000000000E+00 0. -1.
          1    1    1    2  501    0  0.14646950467E+03 -0.22356771456E+03 -0.29688938369E+03  0.39947358478E+03  0.00000000000E+00 0. -1.
<scales pt_clust_5="13000.00000" pt_clust_6="13000.00000" pt_clust_7="13000.00000" pt_clust_8="13000.00000" pt_clust_9="260.74542"></scales>
<clustering>
<clus scale="   81.042">  5  6 -1 -1</clus>
<clus scale="   91.512">  7  8 -1 -1</clus>
<clus scale="   92.420">  2  5  1 -1</clus>
<clus scale="  260.745">  1  9  2 -1</clus>
<clus scale="  260.745">  1  5  2 -1</clus>
</clustering>
</event>
<event>
 9    2  0.9254368E-005  0.8630901E+02  0.7546771E-02  0.1314543E+00
          2   -1    0    0  502    0 -0.00000000000E+00  0.00000000000E+00  0.20456154577E+03  0.20456154577E+03  0.00000000000E+00 0. -1.
         21   -1    0    0  501  502  0.00000000000E+00 -0.00000000000E+00 -0.16715469739E+03  0.16715469739E+03  0.00000000000E+00 0.  1.
         24    2    1    2    0    0 -0.17323508172E+02  0.56904572459E+01  0.17167190757E+03  0.19060996077E+03  0.80798688456E+02 0.  0.
         23    2    1    2    0    0  0.67368655594E+01  0.19135850870E+02 -0.71105698512E+02  0.11242202351E+03  0.84682494433E+02 0.  0.
        -11    1    3    3    0    0  0.31304805356E+02  0.10909384348E+02  0.82403155359E+02  0.88821650054E+02  0.00000000000E+00 0.  1.
         12    1    3    3    0    0 -0.48628313528E+02 -0.52189271019E+01  0.89268752212E+02  0.10178831071E+03  0.00000000000E+00 0. -1.
        -11    1    4    4    0    0 -0.36164999044E+02  0.18377167082E+02 -0.18638342760E+02  0.44643199332E+02  0.00000000000E+00 0. -1.
         11    1    4    4    0    0  0.42901864603E+02  0.75868378799E+00 -0.52467355752E+02  0.67778824179E+02  0.00000000000E+00 0.  1.
          1    1    1    2  501    0  0.10586642613E+02 -0.24826308115E+02 -0.63159360677E+02  0.68684258877E+02  0.00000000000E+00 0. -1.
<scales pt_clust_5="13000.00000" pt_clust_6="13000.00000" pt_clust_7="13000.00000" pt_clust_8="13000.00000" pt_clust_9="26.98930"></scales>
<clustering>
<clus scale="   26.989">  2  9  1 -1</clus>
<clus scale="   80.799">  5  6 -1 -1</clus>
<clus scale="   82.502">  1  5  2 -1</clus>
<clus scale="   84.682">  7  8 -1 -1</clus>
<clus scale="   26.989">  2  5  1 -1</clus>
</clustering>
</event>
<event>
 9    2  0.9254368E-005  0.1109262E+03  0.7546771E-02  0.1262531E+00
          2   -1    0    0  502    0 -0.00000000000E+00  0.00000000000E+00  0.16774320026E+03  0.16774320026E+03  0.00000000000E+00 0. -1.
         21   -1    0    0  501  502  0.00000000000E+00 -0.00000000000E+00 -0.14058142902E+03  0.14058142902E+03  0.00000000000E+00 0. -1.
         24    2    1    2    0    0 -0.69603649367E+01 -0.44953962042E+02  0.94737468206E+01  0.93297653098E+02  0.80903614329E+02 0.  0.
         23    2    1    2    0    0  0.82342421048E+02  0.60721891026E+02  0.19471392207E+02  0.13799281254E+03  0.90528773569E+02 0.  0.
        -11    1    3    3    0    0 -0.18046641869E+02 -0.56731549958E+02 -0.17319356309E+02  0.62000888271E+02  0.00000000000E+00 0.  1.
         12    1    3    3    0    0  0.11086276932E+02  0.11777587916E+02  0.26793103130E+02  0.31296764827E+02  0.00000000000E+00 0. -1.
        -13    1    4    4    0    0  0.21798065140E+01  0.41358102836E+02 -0.20655262190E+02  0.46280493545E+02  0.00000000000E+00 0. -1.
         13    1    4    4    0    0  0.80162614534E+02  0.19363788190E+02  0.40126654397E+02  0.91712318993E+02  0.00000000000E+00 0.  1.
          1    1    1    2  501    0 -0.75382056112E+02 -0.15767928983E+02 -0.17833677806E+01  0.77034163646E+02  0.00000000000E+00 0. -1.
<scales pt_clust_5="13000.00000" pt_clust_6="13000.00000" pt_clust_7="13000.00000" pt_clust_8="13000.00000" pt_clust_9="77.01352"></scales>
<clustering>
<clus scale="   77.014">  2  9  1 -1</clus>
<clus scale="   80.904">  5  6 -1 -1</clus>
<clus scale="   90.529">  7  8 -1 -1</clus>
<clus scale="  103.221">  1  5  2 -1</clus>
<clus scale="   77.014">  2  5  1 -1</clus>
</clustering>
</event>
<event>
 9    2  0.9254368E-005  0.1105050E+03  0.7546771E-02  0.1263081E+00
         21   -1    0    0  501  502  0.00000000000E+00  0.00000000000E+00  0.10435979819E+03  0.10435979819E+03  0.00000000000E+00 0. -1.
         -1   -1    0    0    0  501 -0.00000000000E+00 -0.00000000000E+00 -0.17591221832E+03  0.17591221832E+03  0.00000000000E+00 0.  1.
         23    2    1    2    0    0  0.59651053228E+02 -0.37564021099E+02 -0.10069234571E+03  0.15277467558E+03  0.90729538642E+02 0.  0.
         24    2    1    2    0    0 -0.35573401965E+02  0.25555384532E+02  0.36344890649E+02  0.99643217990E+02  0.81787989394E+02 0.  0.
        -13    1    4    4    0    0 -0.28375301433E+02 -0.24950210542E+02  0.14073970721E+01  0.37810732657E+02  0.00000000000E+00 0.  1.
         14    1    4    4    0    0 -0.71981005324E+01  0.50505595074E+02  0.34937493577E+02  0.61832485334E+02  0.00000000000E+00 0. -1.
        -13    1    3    3    0    0 -0.25826983832E+01 -0.29543853559E+02  0.47887984244E+01  0.30040675831E+02  0.00000000000E+00 0. -1.
         13    1    3    3    0    0  0.62233751611E+02 -0.80201675401E+01 -0.10548114413E+03  0.12273399975E+03  0.00000000000E+00 0.  1.
         -2    1    1    2    0  502 -0.24077651263E+02  0.12008636567E+02 -0.72049650706E+01  0.27854122930E+02  0.00000000000E+00 0.  1.
<scales pt_clust_5="13000.00000" pt_clust_6="13000.00000" pt_clust_7="13000.00000" pt_clust_8="13000.00000" pt_clust_9="26.90616"></scales>
<clustering>
<clus scale="   26.906">  1  9  2 -1</clus>
<clus scale="   81.788">  5  6 -1 -1</clus>
<clus scale="   90.730">  7  8 -1 -1</clus>
<clus scale="  103.290">  1  5  2 -1</clus>
<clus scale="   26.906">  1  5  2 -1</clus>
</clustering>
</event>
<event>
 9    2  0.9254368E-005  0.9617841E+02  0.7546771E-02  0.1294104E+00
         21   -1    0    0  501  502  0.00000000000E+00  0.00000000000E+00  0.58239056753E+02  0.58239056753E+02  0.00000000000E+00 0. -1.
          2   -1    0    0  502    0 -0.00000000000E+00 -0.00000000000E+00 -0.25844090532E+03  0.25844090532E+03  0.00000000000E+00 0. -1.
         24    2    1    2    0    0 -0.14890648127E+02  0.28688494214E+02 -0.83419486127E+02  0.12234065571E+03  0.83448572616E+02 0.  0.
         23    2    1    2    0    0 -0.36754460226E+02 -0.13687058875E+02 -0.82588894042E+02  0.13060977192E+03  0.93272510289E+02 0.  0.
        -11    1    3    3    0    0 -0.24459193182E+01  0.47113739640E+02 -0.13647342608E+02  0.49111474672E+02  0.00000000000E+00 0.  1.
         12    1    3    3    0    0 -0.12444728809E+02 -0.18425245426E+02 -0.69772143519E+02  0.73229181037E+02  0.00000000000E+00 0. -1.
        -11    1    4    4    0    0 -0.20824177705E+02 -0.40639124466E+02 -0.87710785874E+02  0.98885624704E+02  0.00000000000E+00 0.  1.
         11    1    4    4    0    0 -0.15930282520E+02  0.26952065592E+02  0.51218918320E+01  0.31724147219E+02  0.00000000000E+00 0. -1.
          1    1    1    2  501    0  0.51645108352E+02 -0.15001435340E+02 -0.34193468400E+02  0.63729534442E+02  0.00000000000E+00 0. -1.
<scales pt_clust_5="13000.00000" pt_clust_6="13000.00000" pt_clust_7="13000.00000" pt_clust_8="13000.00000" pt_clust_9="53.77974"></scales>
<clustering>
<clus scale="   53.780">  1  9  2 -1</clus>
<clus scale="   83.449">  5  6 -1 -1</clus>
<clus scale="   86.684">  2  5  1 -1</clus>
<clus scale="   93.273">  7  8 -1 -1</clus>
<clus scale="   53.780">  1  5  2 -1</clus>
</clustering>
</event>
<event>
 9    2  0.9254368E-005  0.1149647E+03  0.7546771E-02  0.1256822E+00
          2   -1    0    0  502    0 -0.00000000000E+00  0.00000000000E+00  0.84445683246E+03  0.84445683246E+03  0.00000000000E+00 0. -1.
         21   -1    0    0  501  502  0.00000000000E+00 -0.00000000000E+00 -0.37888684037E+02  0.37888684037E+02  0.00000000000E+00 0. -1.
         23    2    1    2    0    0 -0.96480404795E+02  0.13489010552E+02  0.30850323994E+03  0.33610087061E+03  0.91099529378E+02 0.  0.
         24    2    1    2    0    0  0.26573761167E+02 -0.10685193418E+02  0.56756865052E+02  0.99425231127E+02  0.76444075723E+02 0.  0.
        -11    1    4    4    0    0 -0.24331213873E+02  0.42506587636E+01  0.47848548989E+01  0.25158913030E+02  0.00000000000E+00 0.  1.
         12    1    4    4    0    0  0.50904975040E+02 -0.14935852182E+02  0.51972010153E+02  0.74266318097E+02  0.00000000000E+00 0. -1.
        -11    1    3    3    0    0 -0.21881963241E+02 -0.25827662126E+02  0.30411840142E+02  0.45505697083E+02  0.00000000000E+00 0. -1.
         11    1    3    3    0    0 -0.74598441554E+02  0.39316672677E+02  0.27809139980E+03  0.29059517352E+03  0.00000000000E+00 0.  1.
          1    1    1    2  501    0  0.69906643628E+02 -0.28038171333E+01  0.44130804343E+03  0.44681941477E+03  0.00000000000E+00 0. -1.
<scales pt_clust_5="13000.00000" pt_clust_6="13000.00000" pt_clust_7="13000.00000" pt_clust_8="13000.00000" pt_clust_9="69.96288"></scales>
<clustering>
<clus scale="   69.963">  2  9  1 -1</clus>
<clus scale="   76.444">  5  6 -1 -1</clus>
<clus scale="   91.100">  7  8 -1 -1</clus>
<clus scale="  103.737">  2  5  1 -1</clus>
<clus scale="   69.963">  2  5  1 -1</clus>
</clustering>
</event>
<event>
 9    2  0.9254368E-005  0.2829682E+03  0.7546771E-02  0.1103828E+00
          2   -1    0    0  502    0 -0.00000000000E+00  0.00000000000E+00  0.23358793382E+04  0.23358793382E+04  0.00000000000E+00 0. -1.
         21   -1    0    0  501  502  0.00000000000E+00 -0.00000000000E+00 -0.75548657172E+02  0.75548657172E+02  0.00000000000E+00 0. -1.
         24    2    1    2    0    0  0.16465036914E+03  0.12062852360E+03  0.45565739069E+03  0.50581946637E+03  0.81047455860E+02 0.  0.
         23    2    1    2    0    0 -0.22455159420E+03  0.16220687551E+03  0.12071638527E+04  0.12418302921E+04  0.90351636207E+02 0.  0.
        -11    1    3    3    0    0  0.52009696811E+02 -0.84994238835E+00  0.13959849904E+03  0.14897473578E+03  0.00000000000E+00 0.  1.
         12    1    3    3    0    0  0.11264067233E+03  0.12147846598E+03  0.31605889165E+03  0.35684473059E+03  0.00000000000E+00 0. -1.
        -13    1    4    4    0    0 -0.28871986107E+02  0.11293564162E+02  0.52081892881E+02  0.60610722973E+02  0.00000000000E+00 0.  1.
         13    1    4    4    0    0 -0.19567960809E+03  0.15091331134E+03  0.11550819598E+04  0.11812195691E+04  0.00000000000E+00 0. -1.
          1    1    1    2  501    0  0.59901225061E+02 -0.28283539910E+03  0.59750943772E+03  0.66377823700E+03  0.00000000000E+00 0. -1.
<scales pt_clust_5="13000.00000" pt_clust_6="13000.00000" pt_clust_7="13000.00000" pt_clust_8="13000.00000" pt_clust_9="268.15590"></scales>
<clustering>
<clus scale="   81.047">  5  6 -1 -1</clus>
<clus scale="   90.352">  7  8 -1 -1</clus>
<clus scale="  219.613">  1  5  2 -1</clus>
<clus scale="  268.156">  2  9  1 -1</clus>
<clus scale="  268.156">  2  5  1 -1</clus>
</clustering>
</event>
<event>
 9    2  0.9254368E-005  0.1413948E+03  0.7546771E-02  0.1231723E+00
         21   -1    0    0  501  502  0.00000000000E+00  0.00000000000E+00  0.81297462980E+02  0.81297462980E+02  0.00000000000E+00 0.  1.
          2   -1    0    0  502    0 -0.00000000000E+00 -0.00000000000E+00 -0.73451711002E+03  0.73451711002E+03  0.00000000000E+00 0. -1.
         24    2    1    2    0    0 -0.16614300560E+02 -0.27701867787E+02  0.25356588906E+01  0.92542411065E+02  0.86684715018E+02 0.  0.
         23    2    1    2    0    0 -0.65291866426E+02 -0.49135065699E+02 -0.56665270935E+03  0.57991314668E+03  0.92340035606E+02 0.  0.
        -11    1    3    3    0    0 -0.42256356147E+02 -0.37514158413E+02  0.20071485588E+02  0.59964791753E+02  0.00000000000E+00 0.  1.
         12    1    3    3    0    0  0.25642055587E+02  0.98122906265E+01 -0.17535826697E+02  0.32577619312E+02  0.00000000000E+00 0. -1.
        -11    1    4    4    0    0 -0.29128424086E+02  0.26554382613E+02 -0.18323175492E+03  0.18742325453E+03  0.00000000000E+00 0.  1.
         11    1    4    4    0    0 -0.36163442340E+02 -0.75689448312E+02 -0.38342095443E+03  0.39248989215E+03  0.00000000000E+00 0. -1.
          1    1    1    2  501    0  0.81906166985E+02  0.76836933486E+02 -0.89102596579E+02  0.14335901526E+03  0.00000000000E+00 0. -1.
<scales pt_clust_5="13000.00000" pt_clust_6="13000.00000" pt_clust_7="13000.00000" pt_clust_8="13000.00000" pt_clust_9="107.07844"></scales>
<clustering>
<clus scale="   86.685">  5  6 -1 -1</clus>
<clus scale="   92.340">  7  8 -1 -1</clus>
<clus scale="   92.508">  2  5  1 -1</clus>
<clus scale="  107.078">  1  9  2 -1</clus>
<clus scale="  107.078">  1  5  2 -1</clus>
</clustering>
</event>
<event>
 9    2  0.9254368E-005  0.9764548E+02  0.7546771E-02  0.1292720E+00
          2   -1    0    0  502    0 -0.00000000000E+00  0.00000000000E+00  0.12508528506E+03  0.12508528506E+03  0.00000000000E+00 0. -1.
         21   -1    0    0  501  502  0.00000000000E+00 -0.00000000000E+00 -0.13750486555E+03  0.13750486555E+03  0.00000000000E+00 0.  1.
         23    2    1    2    0    0  0.21485216492E+02 -0.80311653180E+01  0.19208859832E+02  0.98827144954E+02  0.94189756022E+02 0.  0.
         24    2    1    2    0    0  0.22174921845E+00  0.49195836140E+02 -0.57164352806E+02  0.11068000168E+03  0.81006296506E+02 0.  0.
        -11    1    4    4    0    0 -0.26109456722E+02  0.33437445644E+02 -0.66256781469E+02  0.78674821844E+02  0.00000000000E+00 0.  1.
         12    1    4    4    0    0  0.26331205940E+02  0.15758390496E+02  0.90924286625E+01  0.32005179835E+02  0.00000000000E+00 0. -1.
        -13    1    3    3    0    0 -0.34385019283E+02 -0.17687291180E+02  0.16567172842E+02  0.42067101592E+02  0.00000000000E+00 0.  1.
         13    1    3    3    0    0  0.55870235775E+02  0.96561258622E+01  0.26416869892E+01  0.56760043361E+02  0.00000000000E+00 0. -1.
          1    1    1    2  501    0 -0.21706965711E+02 -0.41164670822E+02  0.25535912485E+02  0.53083003972E+02  0.00000000000E+00 0. -1.
<scales pt_clust_5="13000.00000" pt_clust_6="13000.00000" pt_clust_7="13000.00000" pt_clust_8="13000.00000" pt_clust_9="46.53735"></scales>
<clustering>
<clus scale="   46.537">  2  9  1 -1</clus>
<clus scale="   81.006">  5  6 -1 -1</clus>
<clus scale="   85.000">  2  5  1 -1</clus>
<clus scale="   94.190">  7  8 -1 -1</clus>
<clus scale="   46.537">  2  5  1 -1</clus>
</clustering>
</event>
<event>
 9    2  0.9254368E-005  0.1011577E+03  0.7546771E-02  0.1282992E+00
         21   -1    0    0  501  502  0.00000000000E+00  0.00000000000E+00  0.47074661515E+02  0.47074661515E+02  0.00000000000E+00 0. -1.
          2   -1    0    0  502    0 -0.00000000000E+00 -0.00000000000E+00 -0.63486751772E+03  0.63486751772E+03  0.00000000000E+00 0. -1.
         24    2    1    2    0    0  0.76629448716E+02 -0.27210820847E+00 -0.37817362580E+03  0.39421497612E+03  0.80734191588E+02 0.  0.
         23    2    1    2    0    0  0.39682090356E+01  0.14221659783E+02 -0.17696987979E+03  0.19965591086E+03  0.91247696412E+02 0.  0.
        -11    1    3    3    0    0  0.80191342606E+02 -0.26775660513E+02 -0.29088267000E+03  0.30291965128E+03  0.00000000000E+00 0.  1.
         12    1    3    3    0    0 -0.35618938900E+01  0.26503552305E+02 -0.87290955795E+02  0.91295324834E+02  0.00000000000E+00 0. -1.
        -13    1    4    4    0    0 -0.24080040454E+02  0.21982356281E+02 -0.16450460944E+02  0.36519720717E+02  0.00000000000E+00 0. -1.
         13    1    4    4    0    0  0.28048249490E+02 -0.77606964985E+01 -0.16051941884E+03  0.16313619015E+03  0.00000000000E+00 0.  1.
          1    1    1    2  501    0 -0.80597657752E+02 -0.13949551574E+02 -0.32649350622E+02  0.88071292259E+02  0.00000000000E+00 0. -1.
<scales pt_clust_5="13000.00000" pt_clust_6="13000.00000" pt_clust_7="13000.00000" pt_clust_8="13000.00000" pt_clust_9="81.79592"></scales>
<clustering>
<clus scale="   80.734">  5  6 -1 -1</clus>
<clus scale="   81.796">  1  9  2 -1</clus>
<clus scale="   91.248">  7  8 -1 -1</clus>
<clus scale="   91.786">  2  5  1 -1</clus>
<clus scale="   81.796">  1  5  2 -1</clus>
</clustering>
</event>
<event>
 9    2  0.9254368E-005  0.9229552E+02  0.7546771E-02  0.1305238E+00
         -3   -1    0    0    0  501 -0.00000000000E+00  0.00000000000E+00  0.10603041923E+03  0.10603041923E+03  0.00000000000E+00 0.  1.
         21   -1    0    0  501  502  0.00000000000E+00 -0.00000000000E+00 -0.73143605458E+03  0.73143605458E+03  0.00000000000E+00 0.  1.
         24    2    1    2    0    0  0.50643265335E+01 -0.14265010827E+02  0.78447138966E+02  0.11178930821E+03  0.78190522963E+02 0.  0.
         23    2    1    2    0    0 -0.58242505350E+02  0.37011806824E+02 -0.53993904755E+03  0.55185816418E+03  0.90836088799E+02 0.  0.
        -11    1    3    3    0    0 -0.16011128228E+01 -0.39989021676E+02  0.14545126871E+02  0.42582227896E+02  0.00000000000E+00 0.  1.
         12    1    3    3    0    0  0.66654393563E+01  0.25724010849E+02  0.63902012094E+02  0.69207080315E+02  0.00000000000E+00 0. -1.
        -11    1    4    4    0    0 -0.55512228683E+02  0.62556245005E+02 -0.46926582093E+03  0.47666057317E+03  0.00000000000E+00 0.  1.
         11    1    4    4    0    0 -0.27302766670E+01 -0.25544438180E+02 -0.70673226624E+02  0.75197591013E+02  0.00000000000E+00 0. -1.
         -4    1    1    2    0  502  0.53178178816E+02 -0.22746795998E+02 -0.16391372677E+03  0.17381900142E+03  0.00000000000E+00 0.  1.
<scales pt_clust_5="13000.00000" pt_clust_6="13000.00000" pt_clust_7="13000.00000" pt_clust_8="13000.00000" pt_clust_9="57.83887"></scales>
<clustering>
<clus scale="   57.839">  2  9  1 -1</clus>
<clus scale="   78.191">  5  6 -1 -1</clus>
<clus scale="   79.881">  1  5  2 -1</clus>
<clus scale="   90.836">  7  8 -1 -1</clus>
<clus scale="   57.839">  2  5  1 -1</clus>
</clustering>
</event>
<event>
 9    2  0.9254368E-005  0.1258575E+03  0.7546771E-02  0.1237794E+00
         21   -1    0    0  501  502  0.00000000000E+00  0.00000000000E+00  0.99978060886E+02  0.99978060886E+02  0.00000000000E+00 0. -1.
          2   -1    0    0  502    0 -0.00000000000E+00 -0.00000000000E+00 -0.56806591227E+03  0.56806591227E+03  0.00000000000E+00 0. -1.
         24    2    1    2    0    0 -0.78835616814E+02 -0.61344202727E+02 -0.47462772241E+03  0.49331242858E+03  0.90041721548E+02 0.  0.
         23    2    1    2    0    0  0.46189845612E+02  0.24666446832E+02 -0.46121175476E+02  0.10273022534E+03  0.75394966233E+02 0.  0.
        -11    1    3    3    0    0 -0.90020266673E+02 -0.55937387731E+02 -0.29867597466E+03  0.31692266816E+03  0.00000000000E+00 0.  1.
         12    1    3    3    0    0  0.11184649859E+02 -0.54068149960E+01 -0.17595174775E+03  0.17638976041E+03  0.00000000000E+00 0. -1.
        -13    1    4    4    0    0  0.20356510047E+02 -0.22541053556E+02 -0.37456961114E+02  0.48223547491E+02  0.00000000000E+00 0. -1.
         13    1    4    4    0    0  0.25833335565E+02  0.47207500387E+02 -0.86642143623E+01  0.54506677845E+02  0.00000000000E+00 0.  1.
          1    1    1    2  501    0  0.32645771202E+02  0.36677755895E+02  0.52661046500E+02  0.72001319248E+02  0.00000000000E+00 0. -1.
<scales pt_clust_5="13000.00000" pt_clust_6="13000.00000" pt_clust_7="13000.00000" pt_clust_8="13000.00000" pt_clust_9="49.10198"></scales>
<clustering>
<clus scale="   49.102">  1  9  2 -1</clus>
<clus scale="   75.395">  7  8 -1 -1</clus>
<clus scale="   90.042">  5  6 -1 -1</clus>
<clus scale="  115.832">  1  7  2 -1</clus>
<clus scale="   49.102">  1  5  2 -1</clus>
</clustering>
</event>
<event>
 9    2  0.1022118E-004  0.1716500E+03  0.7546771E-02  0.1209388E+00
         21   -1    0    0  501  502  0.00000000000E+00  0.00000000000E+00  0.13978945311E+03  0.13978945311E+03  0.00000000000E+00 0.  1.
          2   -1    0    0  502    0 -0.00000000000E+00 -0.00000000000E+00 -0.57589171429E+03  0.57589171429E+03  0.00000000000E+00 0. -1.
         24    2    1    2    0    0 -0.10332097238E+02  0.22083388691E+02 -0.12575940717E+03  0.15046705883E+03  0.78933383386E+02 0.  0.
         23    2    1    2    0    0  0.34008769653E+02 -0.14198593684E+03  0.52516081231E+02  0.18232533522E+03  0.95749602616E+02 0.  0.
        -11    1    3    3    0    0  0.11428464957E+02  0.47289884290E+02 -0.65132512000E+02  0.81296906994E+02  0.00000000000E+00 0.  1.
         12    1    3    3    0    0 -0.21760562195E+02 -0.25206495599E+02 -0.60626895171E+02  0.69170151840E+02  0.00000000000E+00 0. -1.
        -13    1    4    4    0    0  0.44991590902E+02 -0.11248344679E+03  0.76033025145E+02  0.14303073085E+03  0.00000000000E+00 0.  1.
         13    1    4    4    0    0 -0.10982821250E+02 -0.29502490047E+02 -0.23516943914E+02  0.39294604371E+02  0.00000000000E+00 0. -1.
          1    1    1    2  501    0 -0.23676672414E+02  0.11990254815E+03 -0.36285893525E+03  0.38288877335E+03  0.00000000000E+00 0. -1.
<scales pt_clust_5="13000.00000" pt_clust_6="13000.00000" pt_clust_7="13000.00000" pt_clust_8="13000.00000" pt_clust_9="142.46317"></scales>
<clustering>
<clus scale="   78.933">  5  6 -1 -1</clus>
<clus scale="   82.613">  2  5  1 -1</clus>
<clus scale="   95.750">  7  8 -1 -1</clus>
<clus scale="  142.463">  1  9  2 -1</clus>
<clus scale="  142.463">  1  5  2 -1</clus>
</clustering>
</event>
<event>
 9    2  0.9254368E-005  0.1469263E+03  0.7546771E-02  0.1207315E+00
         -1   -1    0    0    0  501 -0.00000000000E+00  0.00000000000E+00  0.66561593731E+03  0.66561593731E+03  0.00000000000E+00 0.  1.
         21   -1    0    0  501  502  0.00000000000E+00 -0.00000000000E+00 -0.23613854833E+03  0.23613854833E+03  0.00000000000E+00 0.  1.
         24    2    1    2    0    0 -0.10093369225E+03 -0.75375130022E+02  0.56512501918E+03  0.58449039188E+03  0.79960680599E+02 0.  0.
         23    2    1    2    0    0  0.46751028807E+02  0.36508021493E+02  0.48048157226E+02  0.12184005363E+03  0.94962513281E+02 0.  0.
        -13    1    3    3    0    0 -0.48985219610E+02 -0.75128537495E+02  0.26148535612E+03  0.27643885464E+03  0.00000000000E+00 0.  1.
         14    1    3    3    0    0 -0.51948472641E+02 -0.24659252764E+00  0.30363966305E+03  0.30805153724E+03  0.00000000000E+00 0. -1.
        -11    1    4    4    0    0  0.47490127824E+02 -0.15826643545E+02 -0.10599005153E+01  0.50069134961E+02  0.00000000000E+00 0. -1.
         11    1    4    4    0    0 -0.73909901731E+00  0.52334665037E+02  0.49108057741E+02  0.71770918672E+02  0.00000000000E+00 0.  1.
         -2    1    1    2    0  502  0.54182663445E+02  0.38867108529E+02 -0.18369578742E+03  0.19542404013E+03  0.00000000000E+00 0.  1.
<scales pt_clust_5="13000.00000" pt_clust_6="13000.00000" pt_clust_7="13000.00000" pt_clust_8="13000.00000" pt_clust_9="66.68143"></scales>
<clustering>
<clus scale="   66.681">  2  9  1 -1</clus>
<clus scale="   79.961">  5  6 -1 -1</clus>
<clus scale="   94.963">  7  8 -1 -1</clus>
<clus scale="  137.707">  1  5  2 -1</clus>
<clus scale="   66.681">  2  5  1 -1</clus>
</clustering>
</event>
<event>
 9    2  0.9254368E-005  0.9801640E+02  0.7546771E-02  0.1288908E+00
          2   -1    0    0  502    0 -0.00000000000E+00  0.00000000000E+00  0.20260275139E+03  0.20260275139E+03  0.00000000000E+00 0. -1.
         21   -1    0    0  501  502  0.00000000000E+00 -0.00000000000E+00 -0.10683924101E+03  0.10683924101E+03  0.00000000000E+00 0.  1.
         23    2    1    2    0    0 -0.61090432298E+02 -0.24129272069E+02  0.10524772559E+02  0.11093590924E+03  0.88779177929E+02 0.  0.
         24    2    1    2    0    0  0.19292999033E+02 -0.41835803205E+01 -0.17209610299E+02  0.84294406568E+02  0.80122744187E+02 0.  0.
        -13    1    4    4    0    0  0.32018471507E+02 -0.35228428533E+02 -0.17561457690E+02  0.50740806958E+02  0.00000000000E+00 0.  1.
         14    1    4    4    0    0 -0.12725472474E+02  0.31044848212E+02  0.35184739087E+00  0.33553599610E+02  0.00000000000E+00 0. -1.
        -11    1    3    3    0    0 -0.44327533753E+02  0.12405013406E+02 -0.29128169172E+02  0.54472606377E+02  0.00000000000E+00 0.  1.
         11    1    3    3    0    0 -0.16762898545E+02 -0.36534285475E+02  0.39652941731E+02  0.56463302868E+02  0.00000000000E+00 0. -1.
          1    1    1    2  501    0  0.41797433265E+02  0.28312852389E+02  0.10244834811E+03  0.11421167659E+03  0.00000000000E+00 0. -1.
<scales pt_clust_5="13000.00000" pt_clust_6="13000.00000" pt_clust_7="13000.00000" pt_clust_8="13000.00000" pt_clust_9="50.48411"></scales>
<clustering>
<clus scale="   50.484">  2  9  1 -1</clus>
<clus scale="   80.123">  5  6 -1 -1</clus>
<clus scale="   88.779">  7  8 -1 -1</clus>
<clus scale="   90.250">  2  5  1 -1</clus>
<clus scale="   50.484">  2  5  1 -1</clus>
</clustering>
</event>
<event>
 9    2  0.9254368E-005  0.1025109E+03  0.7546771E-02  0.1277817E+00
         21   -1    0    0  501  502  0.00000000000E+00  0.00000000000E+00  0.14497338742E+04  0.14497338742E+04  0.00000000000E+00 0. -1.
         -1   -1    0    0    0  501 -0.00000000000E+00 -0.00000000000E+00 -0.18467786459E+02  0.18467786459E+02  0.00000000000E+00 0.  1.
         23    2    1    2    0    0 -0.41242529702E+02 -0.10949614192E+02  0.23156683570E+03  0.25257297363E+03  0.91373230805E+02 0.  0.
         24    2    1    2    0    0  0.44362125023E+02  0.61715236317E+02  0.10732989408E+04  0.10793792138E+04  0.85510832006E+02 0.  0.
        -13    1    4    4    0    0 -0.24931063411E+01  0.21378080222E+02  0.52926313448E+02  0.57135212859E+02  0.00000000000E+00 0.  1.
         14    1    4    4    0    0  0.46855231364E+02  0.40337156095E+02  0.10203726273E+04  0.10222440009E+04  0.00000000000E+00 0. -1.
        -11    1    3    3    0    0 -0.23206292758E+02  0.38334269817E+02  0.74153128911E+02  0.86641415001E+02  0.00000000000E+00 0. -1.
         11    1    3    3    0    0 -0.18036236944E+02 -0.49283884009E+02  0.15741370679E+03  0.16593155863E+03  0.00000000000E+00 0.  1.
         -2    1    1    2    0  502 -0.31195953213E+01 -0.50765622125E+02  0.12640031127E+03  0.13624947322E+03  0.00000000000E+00 0.  1.
<scales pt_clust_5="13000.00000" pt_clust_6="13000.00000" pt_clust_7="13000.00000" pt_clust_8="13000.00000" pt_clust_9="50.86141"></scales>
<clustering>
<clus scale="   50.861">  1  9  2 -1</clus>
<clus scale="   85.511">  5  6 -1 -1</clus>
<clus scale="   91.373">  7  8 -1 -1</clus>
<clus scale="   97.322">  1  5  2 -1</clus>
<clus scale="   50.861">  1  5  2 -1</clus>
</clustering>
</event>
<event>
 9    2  0.9254368E-005  0.1775349E+03  0.7546771E-02  0.1200336E+00
          2   -1    0    0  502    0 -0.00000000000E+00  0.00000000000E+00  0.78374425879E+02  0.78374425879E+02  0.00000000000E+00 0. -1.
         21   -1    0    0  501  502  0.00000000000E+00 -0.00000000000E+00 -0.66389154876E+03  0.66389154876E+03  0.00000000000E+00 0. -1.
         24    2    1    2    0    0  0.30325209131E+02 -0.16495725787E+02 -0.27395729034E+02  0.94787078923E+02  0.83918633708E+02 0.  0.
         23    2    1    2    0    0  0.86928497746E+02 -0.94787290599E+02 -0.22464717130E+03  0.27688828788E+03  0.98283153249E+02 0.  0.
        -11    1    3    3    0    0  0.40117956127E+02 -0.34559123026E+02  0.83026907468E+01  0.53597743066E+02  0.00000000000E+00 0.  1.
         12    1    3    3    0    0 -0.97927469957E+01  0.18063397239E+02 -0.35698419781E+02  0.41189335858E+02  0.00000000000E+00 0. -1.
        -11    1    4    4    0    0  0.41911733826E+02  0.13793535965E+02 -0.55298574676E+02  0.70744522247E+02  0.00000000000E+00 0.  1.
         11    1    4    4    0    0  0.45016763920E+02 -0.10858082656E+03 -0.16934859662E+03  0.20614376563E+03  0.00000000000E+00 0. -1.
          1    1    1    2  501    0 -0.11725370688E+03  0.11128301639E+03 -0.33347422255E+03  0.37059060784E+03  0.00000000000E+00 0. -1.
<scales pt_clust_5="13000.00000" pt_clust_6="13000.00000" pt_clust_7="13000.00000" pt_clust_8="13000.00000" pt_clust_9="147.84815"></scales>
<clustering>
<clus scale="   83.919">  5  6 -1 -1</clus>
<clus scale="   90.742">  1  5  2 -1</clus>
<clus scale="   98.283">  7  8 -1 -1</clus>
<clus scale="  147.848">  2  9  1 -1</clus>
<clus scale="  147.848">  2  5  1 -1</clus>
</clustering>
</event>
<event>
 9    2  0.9254368E-005  0.1438534E+03  0.7546771E-02  0.1211039E+00
         21   -1    0    0  501  502  0.00000000000E+00  0.00000000000E+00  0.16101662514E+03  0.16101662514E+03  0.00000000000E+00 0. -1.
          2   -1    0    0  502    0 -0.00000000000E+00 -0.00000000000E+00 -0.57318294485E+03  0.57318294485E+03  0.00000000000E+00 0. -1.
         23    2    1    2    0    0 -0.18292820982E+02 -0.10614746754E+03 -0.37449168734E+03  0.40060052655E+03  0.92923871114E+02 0.  0.
         24    2    1    2    0    0 -0.76749119330E+02  0.14112407763E+03  0.63832994719E+02  0.19021099642E+03  0.79367117502E+02 0.  0.
        -13    1    4    4    0    0  0.12787467099E+02  0.41567622742E+02  0.27563301988E+02  0.51489049241E+02  0.00000000000E+00 0.  1.
         14    1    4    4    0    0 -0.89536586429E+02  0.99556454883E+02  0.36269692731E+02  0.13872194718E+03  0.00000000000E+00 0. -1.
        -13    1    3    3    0    0 -0.55339796878E+02 -0.74430615513E+02 -0.26420707012E+03  0.28001390242E+03  0.00000000000E+00 0. -1.
         13    1    3    3    0    0  0.37046975896E+02 -0.31716852026E+02 -0.11028461722E+03  0.12058662414E+03  0.00000000000E+00 0.  1.
          1    1    1    2  501    0  0.95041940312E+02 -0.34976610086E+02 -0.10150762709E+03  0.14338804702E+03  0.00000000000E+00 0. -1.
<scales pt_clust_5="13000.00000" pt_clust_6="13000.00000" pt_clust_7="13000.00000" pt_clust_8="13000.00000" pt_clust_9="101.27361"></scales>
<clustering>
<clus scale="   79.367">  5  6 -1 -1</clus>
<clus scale="   92.924">  7  8 -1 -1</clus>
<clus scale="  101.274">  1  9  2 -1</clus>
<clus scale="  135.492">  1  5  2 -1</clus>
<clus scale="  101.274">  1  5  2 -1</clus>
</clustering>
</event>
<event>
 9    2  0.9254368E-005  0.1120748E+03  0.7546771E-02  0.1261757E+00
         21   -1    0    0  501  502  0.00000000000E+00  0.00000000000E+00  0.12358322933E+03  0.12358322933E+03  0.00000000000E+00 0.  1.
         -3   -1    0    0    0  501 -0.00000000000E+00 -0.00000000000E+00 -0.11355982679E+03  0.11355982679E+03  0.00000000000E+00 0.  1.
         24    2    1    2    0    0  0.21534226176E+02 -0.66214764970E+02 -0.80320240694E+01  0.10756939546E+03  0.81599898481E+02 0.  0.
         23    2    1    2    0    0 -0.10355851347E+02  0.49035305166E+02  0.90435449389E+01  0.10718384346E+03  0.94312702138E+02 0.  0.
        -11    1    3    3    0    0  0.38262767114E+02 -0.69105068041E+01 -0.21594425423E+02  0.44475989712E+02  0.00000000000E+00 0.  1.
         12    1    3    3    0    0 -0.16728540938E+02 -0.59304258166E+02  0.13562401354E+02  0.63093405749E+02  0.00000000000E+00 0. -1.
        -11    1    4    4    0    0 -0.23641163482E+02  0.31915737907E+02  0.48184850540E+02  0.62444365306E+02  0.00000000000E+00 0.  1.
         11    1    4    4    0    0  0.13285312135E+02  0.17119567258E+02 -0.39141305601E+02  0.44739478157E+02  0.00000000000E+00 0. -1.
         -4    1    1    2    0  502 -0.11178374829E+02  0.17179459804E+02  0.90118816638E+01  0.22389817197E+02  0.00000000000E+00 0.  1.
<scales pt_clust_5="13000.00000" pt_clust_6="13000.00000" pt_clust_7="13000.00000" pt_clust_8="13000.00000" pt_clust_9="20.49609"></scales>
<clustering>
<clus scale="   20.496">  1  9  2 -1</clus>
<clus scale="   81.600">  5  6 -1 -1</clus>
<clus scale="   94.313">  7  8 -1 -1</clus>
<clus scale="  101.609">  2  5  1 -1</clus>
<clus scale="   20.496">  1  5  2 -1</clus>
</clustering>
</event>
<event>
 9    2  0.9254368E-005  0.1875939E+03  0.7546771E-02  0.1161953E+00
          2   -1    0    0  502    0 -0.00000000000E+00  0.00000000000E+00  0.10446174959E+04  0.10446174959E+04  0.00000000000E+00 0. -1.
         21   -1    0    0  501  502  0.00000000000E+00 -0.00000000000E+00 -0.65048336996E+02  0.65048336996E+02  0.00000000000E+00 0.  1.
         24    2    1    2    0    0 -0.15847591278E+03 -0.21294949908E+02  0.77828974952E+03  0.79856664305E+03  0.80035363237E+02 0.  0.
         23    2    1    2    0    0  0.17750467744E+03  0.12117179236E+02  0.20814906802E+03  0.28888393453E+03  0.92049750491E+02 0.  0.
        -13    1    3    3    0    0 -0.91024912312E+02 -0.15604438646E+02  0.26080769272E+03  0.27667613874E+03  0.00000000000E+00 0.  1.
         14    1    3    3    0    0 -0.67451000466E+02 -0.56905112623E+01  0.51748205680E+03  0.52189050431E+03  0.00000000000E+00 0. -1.
        -11    1    4    4    0    0  0.46013651694E+02 -0.34070824139E+02  0.87398489469E+02  0.10448240599E+03  0.00000000000E+00 0.  1.
         11    1    4    4    0    0  0.13149102575E+03  0.46188003374E+02  0.12075057855E+03  0.18440152854E+03  0.00000000000E+00 0. -1.
          1    1    1    2  501    0 -0.19028764665E+02  0.91777706721E+01 -0.68696586284E+01  0.22215255319E+02  0.00000000000E+00 0. -1.
<scales pt_clust_5="13000.00000" pt_clust_6="13000.00000" pt_clust_7="13000.00000" pt_clust_8="13000.00000" pt_clust_9="21.12641"></scales>
<clustering>
<clus scale="   21.126">  2  9  1 -1</clus>
<clus scale="   80.035">  5  6 -1 -1</clus>
<clus scale="   92.050">  7  8 -1 -1</clus>
<clus scale="  182.000">  1  5  2 -1</clus>
<clus scale="   21.126">  2  5  1 -1</clus>
</clustering>
</event>
<event>
 9    2  0.9254368E-005  0.1290083E+03  0.7546771E-02  0.1237077E+00
         21   -1    0    0  501  502  0.00000000000E+00  0.00000000000E+00  0.12724480218E+03  0.12724480218E+03  0.00000000000E+00 0.  1.
          2   -1    0    0  502    0 -0.00000000000E+00 -0.00000000000E+00 -0.46572435397E+03  0.46572435397E+03  0.00000000000E+00 0. -1.
         24    2    1    2    0    0  0.76537853689E+02  0.28476356583E+01 -0.38937165073E+03  0.40491757462E+03  0.80509675020E+02 0.  0.
         23    2    1    2    0    0 -0.53469063536E+02 -0.80278090609E+01 -0.13299379595E+02  0.11964435097E+03  0.10589858709E+03 0.  0.
        -13    1    3    3    0    0  0.14654883247E+02 -0.35436976333E+02 -0.13629403842E+03  0.14158605088E+03  0.00000000000E+00 0.  1.
         14    1    3    3    0    0  0.61882970442E+02  0.38284611991E+02 -0.25307761231E+03  0.26333152375E+03  0.00000000000E+00 0. -1.
        -11    1    4    4    0    0 -0.22632551843E+02  0.23734632034E+02 -0.51577494933E+02  0.61121216810E+02  0.00000000000E+00 0. -1.
         11    1    4    4    0    0 -0.30836511693E+02 -0.31762441095E+02  0.38278115338E+02  0.58523134157E+02  0.00000000000E+00 0.  1.
          1    1    1    2  501    0 -0.23068790153E+02  0.51801734026E+01  0.64191478537E+02  0.68407230556E+02  0.00000000000E+00 0. -1.
<scales pt_clust_5="13000.00000" pt_clust_6="13000.00000" pt_clust_7="13000.00000" pt_clust_8="13000.00000" pt_clust_9="23.64325"></scales>
<clustering>
<clus scale="   23.643">  1  9  2 -1</clus>
<clus scale="   80.510">  5  6 -1 -1</clus>
<clus scale="  105.899">  7  8 -1 -1</clus>
<clus scale="  109.135">  2  5  1 -1</clus>
<clus scale="   23.643">  1  5  2 -1</clus>
</clustering>
</event>
<event>
 9    2  0.9254368E-005  0.1611439E+03  0.7546771E-02  0.1188704E+00
         21   -1    0    0  501  502  0.00000000000E+00  0.00000000000E+00  0.89206185852E+02  0.89206185852E+02  0.00000000000E+00 0.  1.
         -1   -1    0    0    0  501 -0.00000000000E+00 -0.00000000000E+00 -0.49411191392E+03  0.49411191392E+03  0.00000000000E+00 0.  1.
         23    2    1    2    0    0  0.94470012594E+02 -0.21192857142E+02 -0.93807536601E+02  0.16138881150E+03  0.88728654234E+02 0.  0.
         24    2    1    2    0    0 -0.14984993796E+03  0.90432605680E+02 -0.24367497981E+03  0.31054271645E+03  0.80163725443E+02 0.  0.
        -11    1    4    4    0    0 -0.12898730228E+03  0.37393987634E+02 -0.18640759203E+03  0.22974730646E+03  0.00000000000E+00 0.  1.
         12    1    4    4    0    0 -0.20862635685E+02  0.53038618046E+02 -0.57267387780E+02  0.80795409988E+02  0.00000000000E+00 0. -1.
        -13    1    3    3    0    0  0.60549324552E+02 -0.47113543218E+02 -0.25515746966E+02  0.80851468765E+02  0.00000000000E+00 0.  1.
         13    1    3    3    0    0  0.33920688043E+02  0.25920686076E+02 -0.68291789636E+02  0.80537342740E+02  0.00000000000E+00 0. -1.
         -2    1    1    2    0  502  0.55379925367E+02 -0.69239748538E+02 -0.67423211653E+02  0.11138657182E+03  0.00000000000E+00 0.  1.
<scales pt_clust_5="13000.00000" pt_clust_6="13000.00000" pt_clust_7="13000.00000" pt_clust_8="13000.00000" pt_clust_9="88.66273"></scales>
<clustering>
<clus scale="   80.164">  5  6 -1 -1</clus>
<clus scale="   88.663">  1  9  2 -1</clus>
<clus scale="   88.729">  7  8 -1 -1</clus>
<clus scale="  156.591">  1  5  2 -1</clus>
<clus scale="   88.663">  1  5  2 -1</clus>
</clustering>
</event>
<event>
 9    2  0.9254368E-005  0.1157816E+03  0.7546771E-02  0.1251034E+00
          2   -1    0    0  502    0 -0.00000000000E+00  0.00000000000E+00  0.20564492488E+03  0.20564492488E+03  0.00000000000E+00 0. -1.
         21   -1    0    0  501  502  0.00000000000E+00 -0.00000000000E+00 -0.28329370225E+03  0.28329370225E+03  0.00000000000E+00 0.  1.
         24    2    1    2    0    0  0.64877067509E+02 -0.20089725908E+02  0.16686448609E+03  0.20288135651E+03  0.93297680172E+02 0.  0.
         23    2    1    2    0    0 -0.65356537691E+02  0.46782080110E+02 -0.20783036658E+03  0.24068826590E+03  0.90979888061E+02 0.  0.
        -13    1    3    3    0    0 -0.20912603158E+02  0.22411407781E+01  0.11412268894E+02  0.23929052721E+02  0.00000000000E+00 0.  1.
         14    1    3    3    0    0  0.85789670667E+02 -0.22330866686E+02  0.15545221720E+03  0.17895230379E+03  0.00000000000E+00 0. -1.
        -11    1    4    4    0    0  0.94326331429E+01  0.37852240949E+02 -0.36033285593E+02  0.53105219927E+02  0.00000000000E+00 0. -1.
         11    1    4    4    0    0 -0.74789170834E+02  0.89298391608E+01 -0.17179708098E+03  0.18758304597E+03  0.00000000000E+00 0.  1.
          1    1    1    2  501    0  0.47947018139E+00 -0.26692354202E+02 -0.36682896892E+02  0.45369004716E+02  0.00000000000E+00 0. -1.
<scales pt_clust_5="13000.00000" pt_clust_6="13000.00000" pt_clust_7="13000.00000" pt_clust_8="13000.00000" pt_clust_9="26.69666"></scales>
<clustering>
<clus scale="   26.697">  2  9  1 -1</clus>
<clus scale="   90.980">  7  8 -1 -1</clus>
<clus scale="   93.298">  5  6 -1 -1</clus>
<clus scale="  113.922">  2  7  1 -1</clus>
<clus scale="   26.697">  2  5  1 -1</clus>
</clustering>
</event>
<event>
 9    2  0.9254368E-005  0.2357197E+03  0.7546771E-02  0.1165184E+00
         -3   -1    0    0    0  501 -0.00000000000E+00  0.00000000000E+00  0.33233143871E+03  0.33233143871E+03  0.00000000000E+00 0.  1.
         21   -1    0    0  501  502  0.00000000000E+00 -0.00000000000E+00 -0.48355811035E+03  0.48355811035E+03  0.00000000000E+00 0. -1.
         24    2    1    2    0    0  0.75019324337E+01 -0.97959210284E+01  0.20959954286E+03  0.22622751506E+03  0.84229930203E+02 0.  0.
         23    2    1    2    0    0 -0.20450736990E+03  0.91868885731E+02 -0.12806478157E+03  0.27386938274E+03  0.91327400119E+02 0.  0.
        -11    1    3    3    0    0 -0.20605053357E+02  0.29522376808E+02  0.10502731276E+03  0.11102646253E+03  0.00000000000E+00 0.  1.
         12    1    3    3    0    0  0.28106985791E+02 -0.39318297836E+02  0.10457223010E+03  0.11520105253E+03  0.00000000000E+00 0. -1.
        -11    1    4    4    0    0 -0.58647597907E+02  0.73536844152E+02 -0.62311913532E+02  0.11282722524E+03  0.00000000000E+00 0.  1.
         11    1    4    4    0    0 -0.14585977200E+03  0.18332041579E+02 -0.65752868038E+02  0.16104215750E+03  0.00000000000E+00 0. -1.
         -4    1    1    2    0  502  0.19700543747E+03 -0.82072964703E+02 -0.23276143294E+03  0.31579265126E+03  0.00000000000E+00 0.  1.
<scales pt_clust_5="13000.00000" pt_clust_6="13000.00000" pt_clust_7="13000.00000" pt_clust_8="13000.00000" pt_clust_9="217.30876"></scales>
<clustering>
<clus scale="   84.230">  5  6 -1 -1</clus>
<clus scale="   85.129">  1  5  2 -1</clus>
<clus scale="   91.327">  7  8 -1 -1</clus>
<clus scale="  217.309">  2  9  1 -1</clus>
<clus scale="  217.309">  2  5  1 -1</clus>
</clustering>
</event>
<event>
 9    2  0.9254368E-005  0.9452487E+02  0.7546771E-02  0.1297726E+00
         21   -1    0    0  501  502  0.00000000000E+00  0.00000000000E+00  0.56133548991E+02  0.56133548991E+02  0.00000000000E+00 0. -1.
          2   -1    0    0  502    0 -0.00000000000E+00 -0.00000000000E+00 -0.43615096149E+03  0.43615096149E+03  0.00000000000E+00 0. -1.
         24    2    1    2    0    0 -0.22791177469E+02 -0.21858330984E+02 -0.29925718535E+03  0.31176753238E+03  0.81528564675E+02 0.  0.
         23    2    1    2    0    0 -0.81478910473E+01  0.17329099321E+02 -0.10547838192E+03  0.14065813874E+03  0.91062270615E+02 0.  0.
        -13    1    3    3    0    0 -0.15667197233E+02 -0.28656061583E+02 -0.37106607175E+02  0.49432087055E+02  0.00000000000E+00 0.  1.
         14    1    3    3    0    0 -0.71239802367E+01  0.67977305985E+01 -0.26215057818E+03  0.26233544533E+03  0.00000000000E+00 0. -1.
        -11    1    4    4    0    0  0.23681772576E+02 -0.25707773668E+02 -0.21392360696E+02  0.40979861828E+02  0.00000000000E+00 0.  1.
         11    1    4    4    0    0 -0.31829663623E+02  0.43036872988E+02 -0.84086021222E+02  0.99678276911E+02  0.00000000000E+00 0. -1.
          1    1    1    2  501    0  0.30939068517E+02  0.45292316635E+01  0.24718154770E+02  0.39858839363E+02  0.00000000000E+00 0. -1.
<scales pt_clust_5="13000.00000" pt_clust_6="13000.00000" pt_clust_7="13000.00000" pt_clust_8="13000.00000" pt_clust_9="31.26883"></scales>
<clustering>
<clus scale="   31.269">  1  9  2 -1</clus>
<clus scale="   81.529">  5  6 -1 -1</clus>
<clus scale="   85.379">  2  5  1 -1</clus>
<clus scale="   91.062">  7  8 -1 -1</clus>
<clus scale="   31.269">  1  5  2 -1</clus>
</clustering>
</event>
<event>
 9    2  0.9254368E-005  0.1738808E+03  0.7546771E-02  0.1191959E+00
          2   -1    0    0  502    0 -0.00000000000E+00  0.00000000000E+00  0.78930585090E+03  0.78930585090E+03  0.00000000000E+00 0. -1.
         21   -1    0    0  501  502  0.00000000000E+00 -0.00000000000E+00 -0.78288538041E+02  0.78288538041E+02  0.00000000000E+00 0. -1.
         23    2    1    2    0    0 -0.71503782760E+02 -0.10472245054E+02  0.37424615981E+03  0.39180982131E+03  0.90731962826E+02 0.  0.
         24    2    1    2    0    0 -0.23226467782E+01 -0.14374277758E+03  0.17743235291E+03  0.24207220567E+03  0.80307733764E+02 0.  0.
        -13    1    4    4    0    0  0.21640019456E+02 -0.49156481129E+01  0.13726370632E+02  0.26093433832E+02  0.00000000000E+00 0.  1.
         14    1    4    4    0    0 -0.23962666234E+02 -0.13882712947E+03  0.16370598228E+03  0.21597877184E+03  0.00000000000E+00 0. -1.
        -11    1    3    3    0    0 -0.15289299942E+02  0.18982975694E+02  0.18907230844E+02  0.30848005399E+02  0.00000000000E+00 0.  1.
         11    1    3    3    0    0 -0.56214482817E+02 -0.29455220748E+02  0.35533892896E+03  0.36096181591E+03  0.00000000000E+00 0. -1.
          1    1    1    2  501    0  0.73826429538E+02  0.15421502264E+03  0.15933880014E+03  0.23371236196E+03  0.00000000000E+00 0. -1.
<scales pt_clust_5="13000.00000" pt_clust_6="13000.00000" pt_clust_7="13000.00000" pt_clust_8="13000.00000" pt_clust_9="154.22456"></scales>
<clustering>
<clus scale="   80.308">  5  6 -1 -1</clus>
<clus scale="   90.732">  7  8 -1 -1</clus>
<clus scale="  115.995">  1  7  2 -1</clus>
<clus scale="  154.225">  2  9  1 -1</clus>
<clus scale="  154.225">  2  5  1 -1</clus>
</clustering>
</event>
<event>
 9    2  0.9254368E-005  0.1885566E+03  0.7546771E-02  0.1184249E+00
          2   -1    0    0  502    0 -0.00000000000E+00  0.00000000000E+00  0.18774713175E+03  0.18774713175E+03  0.00000000000E+00 0. -1.
         21   -1    0    0  501  502  0.00000000000E+00 -0.00000000000E+00 -0.32297320628E+03  0.32297320628E+03  0.00000000000E+00 0. -1.
         24    2    1    2    0    0  0.16540931513E+01 -0.71934603776E+02 -0.99711701617E+02  0.14693126926E+03  0.80430412169E+02 0.  0.
         23    2    1    2    0    0 -0.15871042751E+03 -0.10063664470E+02 -0.29330847718E+02  0.18650781161E+03  0.92922483945E+02 0.  0.
        -11    1    3    3    0    0 -0.26729747826E+02 -0.27841686132E+02 -0.83589950980E+02  0.92070184155E+02  0.00000000000E+00 0.  1.
         12    1    3    3    0    0  0.28383840978E+02 -0.44092917643E+02 -0.16121750637E+02  0.54861085102E+02  0.00000000000E+00 0. -1.
        -11    1    4    4    0    0 -0.13026374139E+02  0.27728635903E+02 -0.18099729707E+02  0.35583196704E+02  0.00000000000E+00 0.  1.
         11    1    4    4    0    0 -0.14568405337E+03 -0.37792300373E+02 -0.11231118011E+02  0.15092461491E+03  0.00000000000E+00 0. -1.
          1    1    1    2  501    0  0.15705633436E+03  0.81998268246E+02 -0.61835251900E+01  0.17728125716E+03  0.00000000000E+00 0. -1.
<scales pt_clust_5="13000.00000" pt_clust_6="13000.00000" pt_clust_7="13000.00000" pt_clust_8="13000.00000" pt_clust_9="164.07019"></scales>
<clustering>
<clus scale="   80.430">  5  6 -1 -1</clus>
<clus scale="   92.922">  7  8 -1 -1</clus>
<clus scale="  107.918">  1  5  2 -1</clus>
<clus scale="  164.070">  2  9  1 -1</clus>
<clus scale="  164.070">  2  5  1 -1</clus>
</clustering>
</event>
<event>
 9    2  0.9254368E-005  0.1870131E+03  0.7546771E-02  0.1162436E+00
         -1   -1    0    0    0  501 -0.00000000000E+00  0.00000000000E+00  0.32811585041E+03  0.32811585041E+03  0.00000000000E+00 0.  1.
         21   -1    0    0  501  502  0.00000000000E+00 -0.00000000000E+00 -0.19444377567E+03  0.19444377567E+03  0.00000000000E+00 0. -1.
         24    2    1    2    0    0  0.13520402788E+03 -0.10000072100E+03  0.22848421370E+03  0.29553517251E+03  0.82799329277E+02 0.  0.
         23    2    1    2    0    0 -0.10620533992E+03  0.90446654603E+02 -0.55233564441E+02  0.17703777885E+03  0.93975831699E+02 0.  0.
        -11    1    3    3    0    0  0.57902144930E+02 -0.25952478425E+01  0.10700655994E+03  0.12169551170E+03  0.00000000000E+00 0.  1.
         12    1    3    3    0    0  0.77301882950E+02 -0.97405473153E+02  0.12147765376E+03  0.17383966081E+03  0.00000000000E+00 0. -1.
        -11    1    4    4    0    0 -0.11791545972E+03  0.65995448432E+02 -0.26816289548E+02  0.13776272442E+03  0.00000000000E+00 0. -1.
         11    1    4    4    0    0  0.11710119791E+02  0.24451206172E+02 -0.28417274893E+02  0.39275054438E+02  0.00000000000E+00 0.  1.
         -2    1    1    2    0  502 -0.28998687956E+02  0.95540663923E+01 -0.39578574513E+02  0.49986674707E+02  0.00000000000E+00 0.  1.
<scales pt_clust_5="13000.00000" pt_clust_6="13000.00000" pt_clust_7="13000.00000" pt_clust_8="13000.00000" pt_clust_9="30.53202"></scales>
<clustering>
<clus scale="   30.532">  2  9  1 -1</clus>
<clus scale="   82.799">  5  6 -1 -1</clus>
<clus scale="   93.976">  7  8 -1 -1</clus>
<clus scale="  181.654">  1  5  2 -1</clus>
<clus scale="   30.532">  2  5  1 -1</clus>
</clustering>
</event>
<event>
 9    2  0.9254368E-005  0.1068634E+03  0.7546771E-02  0.1275577E+00
         21   -1    0    0  501  502  0.00000000000E+00  0.00000000000E+00  0.32195241070E+03  0.32195241070E+03  0.00000000000E+00 0. -1.
          2   -1    0    0  502    0 -0.00000000000E+00 -0.00000000000E+00 -0.40276336638E+03  0.40276336638E+03  0.00000000000E+00 0. -1.
         24    2    1    2    0    0  0.26714089147E+02 -0.27754608321E+02 -0.34113493068E+03  0.35243327987E+03  0.79700784100E+02 0.  0.
         23    2    1    2    0    0 -0.17973111469E+02  0.10638643282E+03  0.62068136644E+02  0.15882349422E+03  0.98647569181E+02 0.  0.
        -11    1    3    3    0    0 -0.14101041598E+02 -0.22558837666E+02 -0.37243583033E+02  0.45769258331E+02  0.00000000000E+00 0.  1.
         12    1    3    3    0    0  0.40815130745E+02 -0.51957706542E+01 -0.30389134765E+03  0.30666402154E+03  0.00000000000E+00 0. -1.
        -11    1    4    4    0    0 -0.50744363126E+02  0.96092021910E+02  0.60643252320E+02  0.12444384724E+03  0.00000000000E+00 0. -1.
         11    1    4    4    0    0  0.32771251657E+02  0.10294410915E+02  0.14248843235E+01  0.34379646982E+02  0.00000000000E+00 0.  1.
          1    1    1    2  501    0 -0.87409776781E+01 -0.78631824504E+02  0.19825583835E+03  0.21345900299E+03  0.00000000000E+00 0. -1.
<scales pt_clust_5="13000.00000" pt_clust_6="13000.00000" pt_clust_7="13000.00000" pt_clust_8="13000.00000" pt_clust_9="79.11617"></scales>
<clustering>
<clus scale="   79.116">  1  9  2 -1</clus>
<clus scale="   79.701">  5  6 -1 -1</clus>
<clus scale="   89.670">  2  5  1 -1</clus>
<clus scale="   98.648">  7  8 -1 -1</clus>
<clus scale="   79.116">  1  5  2 -1</clus>
</clustering>
</event>
<event>
 9    2  0.1016105E-004  0.1174926E+03  0.7546771E-02  0.1249645E+00
          2   -1    0    0  502    0 -0.00000000000E+00  0.00000000000E+00  0.54978865972E+03  0.54978865972E+03  0.00000000000E+00 0. -1.
         21   -1    0    0  501  502  0.00000000000E+00 -0.00000000000E+00 -0.21633409013E+03  0.21633409013E+03  0.00000000000E+00 0. -1.
         23    2    1    2    0    0  0.12893016878E+02  0.78130544891E+02  0.50360450986E+03  0.51781130152E+03  0.90776812584E+02 0.  0.
         24    2    1    2    0    0 -0.48141761471E+02 -0.77501578062E+01 -0.63643587949E+02  0.11587476169E+03  0.83658591700E+02 0.  0.
        -13    1    4    4    0    0 -0.30551134322E+01 -0.40192922561E+02 -0.18756224962E+02  0.44458977911E+02  0.00000000000E+00 0.  1.
         14    1    4    4    0    0 -0.45086648039E+02  0.32442764754E+02 -0.44887362987E+02  0.71415783775E+02  0.00000000000E+00 0. -1.
        -11    1    3    3    0    0 -0.14044384730E+02 -0.16730863600E+02  0.93286705624E+02  0.95810103776E+02  0.00000000000E+00 0.  1.
         11    1    3    3    0    0  0.26937401608E+02  0.94861408490E+02  0.41031780424E+03  0.42200119775E+03  0.00000000000E+00 0. -1.
          1    1    1    2  501    0  0.35248744594E+02 -0.70380387084E+02 -0.10650635232E+03  0.13243668664E+03  0.00000000000E+00 0. -1.
<scales pt_clust_5="13000.00000" pt_clust_6="13000.00000" pt_clust_7="13000.00000" pt_clust_8="13000.00000" pt_clust_9="78.71387"></scales>
<clustering>
<clus scale="   78.714">  2  9  1 -1</clus>
<clus scale="   83.659">  5  6 -1 -1</clus>
<clus scale="   90.777">  7  8 -1 -1</clus>
<clus scale="  112.084">  2  5  1 -1</clus>
<clus scale="   78.714">  2  5  1 -1</clus>
</clustering>
</event>
<event>
 9    2  0.9254368E-005  0.1801315E+03  0.7546771E-02  0.1169670E+00
         21   -1    0    0  501  502  0.00000000000E+00  0.00000000000E+00  0.49632316055E+02  0.49632316055E+02  0.00000000000E+00 0. -1.
          2   -1    0    0  502    0 -0.00000000000E+00 -0.00000000000E+00 -0.85184480710E+03  0.85184480710E+03  0.00000000000E+00 0. -1.
         23    2    1    2    0    0 -0.88415287984E+02 -0.13756200163E+03 -0.42130552424E+03  0.46214554237E+03  0.96641554881E+02 0.  0.
         24    2    1    2    0    0  0.11270996991E+03  0.89700951275E+02 -0.29426339651E+03  0.33740994430E+03  0.80651881627E+02 0.  0.
        -13    1    4    4    0    0  0.80933897964E+02  0.82891366718E+02 -0.27778205498E+03  0.30097199967E+03  0.00000000000E+00 0.  1.
         14    1    4    4    0    0  0.31776071947E+02  0.68095845566E+01 -0.16481341528E+02  0.36437944629E+02  0.00000000000E+00 0. -1.
        -13    1    3    3    0    0 -0.37116814511E+02 -0.34743554419E+02 -0.25491429500E+03  0.25993474237E+03  0.00000000000E+00 0.  1.
         13    1    3    3    0    0 -0.51298473473E+02 -0.10281844721E+03 -0.16639122924E+03  0.20221080000E+03  0.00000000000E+00 0. -1.
          1    1    1    2  501    0 -0.24294681927E+02  0.47861050359E+02 -0.86643570297E+02  0.10192163649E+03  0.00000000000E+00 0. -1.
<scales pt_clust_5="13000.00000" pt_clust_6="13000.00000" pt_clust_7="13000.00000" pt_clust_8="13000.00000" pt_clust_9="53.67413"></scales>
<clustering>
<clus scale="   53.674">  1  9  2 -1</clus>
<clus scale="   80.652">  5  6 -1 -1</clus>
<clus scale="   96.642">  7  8 -1 -1</clus>
<clus scale="  172.083">  1  5  2 -1</clus>
<clus scale="   53.674">  1  5  2 -1</clus>
</clustering>
</event>
<event>
 9    2  0.9254368E-005  0.9236255E+02  0.7546771E-02  0.1304928E+00
         21   -1    0    0  501  502  0.00000000000E+00  0.00000000000E+00  0.59865564969E+02  0.59865564969E+02  0.00000000000E+00 0. -1.
          2   -1    0    0  502    0 -0.00000000000E+00 -0.00000000000E+00 -0.30663096098E+03  0.30663096098E+03  0.00000000000E+00 0. -1.
         23    2    1    2    0    0 -0.54014237842E+01 -0.25632762848E+02 -0.20007349902E+03  0.22144914171E+03  0.91236524729E+02 0.  0.
         24    2    1    2    0    0 -0.25583575676E+02 -0.16221700917E+02 -0.36286071169E+02  0.91942322907E+02  0.78860946328E+02 0.  0.
        -11    1    4    4    0    0 -0.37731682233E+02 -0.29406484050E+02 -0.50129159798E+02  0.69291801899E+02  0.00000000000E+00 0.  1.
         12    1    4    4    0    0  0.12148106557E+02  0.13184783133E+02  0.13843088628E+02  0.22650521009E+02  0.00000000000E+00 0. -1.
        -11    1    3    3    0    0  0.20300606932E+02  0.11746675819E+02 -0.90931562860E+01  0.25155208722E+02  0.00000000000E+00 0.  1.
         11    1    3    3    0    0 -0.25702030716E+02 -0.37379438666E+02 -0.19098034273E+03  0.19629393299E+03  0.00000000000E+00 0. -1.
          1    1    1    2  501    0  0.30984999461E+02  0.41854463765E+02 -0.10405825831E+02  0.53105061339E+02  0.00000000000E+00 0. -1.
<scales pt_clust_5="13000.00000" pt_clust_6="13000.00000" pt_clust_7="13000.00000" pt_clust_8="13000.00000" pt_clust_9="52.07558"></scales>
<clustering>
<clus scale="   52.076">  1  9  2 -1</clus>
<clus scale="   78.861">  5  6 -1 -1</clus>
<clus scale="   80.161">  1  5  2 -1</clus>
<clus scale="   91.237">  7  8 -1 -1</clus>
<clus scale="   52.076">  1  5  2 -1</clus>
</clustering>
</event>
<event>
 9    2  0.9254368E-005  0.1675139E+03  0.7546771E-02  0.1180578E+00
         -3   -1    0    0    0  501 -0.00000000000E+00  0.00000000000E+00  0.32649819362E+03  0.32649819362E+03  0.00000000000E+00 0.  1.
         21   -1    0    0  501  502  0.00000000000E+00 -0.00000000000E+00 -0.92158463491E+03  0.92158463491E+03  0.00000000000E+00 0.  1.
         23    2    1    2    0    0 -0.14763167428E+03 -0.20028978067E+02  0.29447424392E+03  0.33951732104E+03  0.79753744359E+02 0.  0.
         24    2    1    2    0    0  0.87628488981E+02  0.32356499943E+02 -0.57419269794E+03  0.58730343779E+03  0.80637326954E+02 0.  0.
        -11    1    4    4    0    0  0.95659637529E+02  0.38455655785E+02 -0.40869465177E+03  0.42149842479E+03  0.00000000000E+00 0.  1.
         12    1    4    4    0    0 -0.80311485482E+01 -0.60991558416E+01 -0.16549804617E+03  0.16580501300E+03  0.00000000000E+00 0. -1.
        -11    1    3    3    0    0 -0.81104965891E+02 -0.50463714870E+02  0.17683081851E+03  0.20098194044E+03  0.00000000000E+00 0. -1.
         11    1    3    3    0    0 -0.66526708391E+02  0.30434736804E+02  0.11764342541E+03  0.13853538059E+03  0.00000000000E+00 0.  1.
         -4    1    1    2    0  502  0.60003185301E+02 -0.12327521877E+02 -0.31536798726E+03  0.32126206971E+03  0.00000000000E+00 0.  1.
<scales pt_clust_5="13000.00000" pt_clust_6="13000.00000" pt_clust_7="13000.00000" pt_clust_8="13000.00000" pt_clust_9="61.25643"></scales>
<clustering>
<clus scale="   61.256">  2  9  1 -1</clus>
<clus scale="   79.754">  7  8 -1 -1</clus>
<clus scale="   80.637">  5  6 -1 -1</clus>
<clus scale="  167.090">  1  7  2 -1</clus>
<clus scale="   61.256">  2  5  1 -1</clus>
</clustering>
</event>
<event>
 9    2  0.9254368E-005  0.1113209E+03  0.7546771E-02  0.1260742E+00
          2   -1    0    0  502    0 -0.00000000000E+00  0.00000000000E+00  0.10969129224E+04  0.10969129224E+04  0.00000000000E+00 0. -1.
         21   -1    0    0  501  502  0.00000000000E+00 -0.00000000000E+00 -0.20445835284E+02  0.20445835284E+02  0.00000000000E+00 0. -1.
         24    2    1    2    0    0  0.27261482427E+02  0.64088676635E+02  0.52486731623E+03  0.53574186918E+03  0.81750252910E+02 0.  0.
         23    2    1    2    0    0  0.36360845648E+02 -0.72015322224E+02  0.37591138324E+03  0.39459538735E+03  0.88813478359E+02 0.  0.
        -11    1    3    3    0    0 -0.26005189533E+01  0.27610201253E+02  0.40495134845E+02  0.49080972466E+02  0.00000000000E+00 0.  1.
         12    1    3    3    0    0  0.29862001381E+02  0.36478475382E+02  0.48437218138E+03  0.48666089671E+03  0.00000000000E+00 0. -1.
        -13    1    4    4    0    0  0.53285409736E+02 -0.81871602197E+01  0.16394339552E+03  0.17257984071E+03  0.00000000000E+00 0.  1.
         13    1    4    4    0    0 -0.16924564089E+02 -0.63828162004E+02  0.21196798771E+03  0.22201554664E+03  0.00000000000E+00 0. -1.
          1    1    1    2  501    0 -0.63622328075E+02  0.79266455892E+01  0.17568838768E+03  0.18702150118E+03  0.00000000000E+00 0. -1.
<scales pt_clust_5="13000.00000" pt_clust_6="13000.00000" pt_clust_7="13000.00000" pt_clust_8="13000.00000" pt_clust_9="64.11421"></scales>
<clustering>
<clus scale="   64.114">  2  9  1 -1</clus>
<clus scale="   81.750">  5  6 -1 -1</clus>
<clus scale="   88.813">  7  8 -1 -1</clus>
<clus scale="  105.772">  1  5  2 -1</clus>
<clus scale="   64.114">  2  5  1 -1</clus>
</clustering>
</event>
<event>
 9    2  0.9254368E-005  0.2437593E+03  0.7546771E-02  0.1117967E+00
          2   -1    0    0  502    0 -0.00000000000E+00  0.00000000000E+00  0.93887390486E+03  0.93887390486E+03  0.00000000000E+00 0. -1.
         21   -1    0    0  501  502  0.00000000000E+00 -0.00000000000E+00 -0.11347645192E+03  0.11347645192E+03  0.00000000000E+00 0. -1.
         24    2    1    2    0    0 -0.81073216358E+01  0.22085072831E+03  0.37717461640E+03  0.44446732403E+03  0.80310260961E+02 0.  0.
         23    2    1    2    0    0 -0.11841512860E+03 -0.22709952009E+03  0.23289354317E+03  0.35805572760E+03  0.91477685287E+02 0.  0.
        -11    1    3    3    0    0  0.76166830200E+01  0.14856777031E+03  0.17788167041E+03  0.23188851826E+03  0.00000000000E+00 0.  1.
         12    1    3    3    0    0 -0.15724004656E+02  0.72282958003E+02  0.19929294599E+03  0.21257880577E+03  0.00000000000E+00 0. -1.
        -13    1    4    4    0    0 -0.12727055256E+03 -0.16904621167E+03  0.19774300830E+03  0.28961476578E+03  0.00000000000E+00 0. -1.
         13    1    4    4    0    0  0.88554239552E+01 -0.58053308424E+02  0.35150534879E+02  0.68440961819E+02  0.00000000000E+00 0.  1.
          1    1    1    2  501    0  0.12652245024E+03  0.62487917789E+01  0.21532929337E+03  0.24982730514E+03  0.00000000000E+00 0. -1.
<scales pt_clust_5="13000.00000" pt_clust_6="13000.00000" pt_clust_7="13000.00000" pt_clust_8="13000.00000" pt_clust_9="126.67673"></scales>
<clustering>
<clus scale="   80.310">  5  6 -1 -1</clus>
<clus scale="   91.478">  7  8 -1 -1</clus>
<clus scale="  126.677">  2  9  1 -1</clus>
<clus scale="  239.792">  1  5  2 -1</clus>
<clus scale="  126.677">  2  5  1 -1</clus>
</clustering>
</event>
<event>
 9    2  0.9254368E-005  0.1048503E+03  0.7546771E-02  0.1273456E+00
          2   -1    0    0  502    0 -0.00000000000E+00  0.00000000000E+00  0.13600017035E+03  0.13600017035E+03  0.00000000000E+00 0. -1.
         21   -1    0    0  501  502  0.00000000000E+00 -0.00000000000E+00 -0.24846831403E+03  0.24846831403E+03  0.00000000000E+00 0. -1.
         24    2    1    2    0    0 -0.19342691939E+02 -0.57876561523E+02  0.35073111939E+02  0.10731104477E+03  0.81004327319E+02 0.  0.
         23    2    1    2    0    0  0.66860692707E+02  0.81691716793E+01 -0.17155492035E+03  0.20431898070E+03  0.88193353379E+02 0.  0.
        -11    1    3    3    0    0  0.30014803104E+02 -0.21430028913E+02  0.26377920428E+02  0.45342355813E+02  0.00000000000E+00 0.  1.
         12    1    3    3    0    0 -0.49357495043E+02 -0.36446532610E+02  0.86951915109E+01  0.61968688962E+02  0.00000000000E+00 0. -1.
        -11    1    4    4    0    0  0.50442508863E+02 -0.36331122220E+02 -0.81121762065E+02  0.10220145509E+03  0.00000000000E+00 0.  1.
         11    1    4    4    0    0  0.16418183844E+02  0.44500293899E+02 -0.90433158287E+02  0.10211752560E+03  0.00000000000E+00 0. -1.
          1    1    1    2  501    0 -0.47518000768E+02  0.49707389844E+02  0.24013664730E+02  0.72838458906E+02  0.00000000000E+00 0. -1.
<scales pt_clust_5="13000.00000" pt_clust_6="13000.00000" pt_clust_7="13000.00000" pt_clust_8="13000.00000" pt_clust_9="68.76620"></scales>
<clustering>
<clus scale="   68.766">  2  9  1 -1</clus>
<clus scale="   81.004">  5  6 -1 -1</clus>
<clus scale="   88.193">  7  8 -1 -1</clus>
<clus scale="   98.880">  1  5  2 -1</clus>
<clus scale="   68.766">  2  5  1 -1</clus>
</clustering>
</event>
<event>
 9    2  0.9254368E-005  0.1415353E+03  0.7546771E-02  0.1223617E+00
         21   -1    0    0  501  502  0.00000000000E+00  0.00000000000E+00  0.69877295252E+02  0.69877295252E+02  0.00000000000E+00 0. -1.
          2   -1    0    0  502    0 -0.00000000000E+00 -0.00000000000E+00 -0.62838359225E+03  0.62838359225E+03  0.00000000000E+00 0. -1.
         24    2    1    2    0    0  0.28911121499E+02  0.59426223075E+02 -0.18881323448E+03  0.21807138232E+03  0.86817978183E+02 0.  0.
         23    2    1    2    0    0  0.67776255412E+02  0.60263595514E+02 -0.79445924754E+02  0.15168151060E+03  0.92034254247E+02 0.  0.
        -13    1    3    3    0    0 -0.26628265690E+02  0.33527384725E+02 -0.46966204182E+02  0.63552925939E+02  0.00000000000E+00 0.  1.
         14    1    3    3    0    0  0.55539387189E+02  0.25898838350E+02 -0.14184703030E+03  0.15451845638E+03  0.00000000000E+00 0. -1.
        -11    1    4    4    0    0 -0.71600530853E+01  0.49095019735E+02 -0.49878741551E+02  0.70352513684E+02  0.00000000000E+00 0.  1.
         11    1    4    4    0    0  0.74936308498E+02  0.11168575779E+02 -0.29567183203E+02  0.81328996912E+02  0.00000000000E+00 0. -1.
          1    1    1    2  501    0 -0.96687376911E+02 -0.11968981859E+03 -0.29024713776E+03  0.32850799459E+03  0.00000000000E+00 0. -1.
<scales pt_clust_5="13000.00000" pt_clust_6="13000.00000" pt_clust_7="13000.00000" pt_clust_8="13000.00000" pt_clust_9="107.52654"></scales>
<clustering>
<clus scale="   86.818">  5  6 -1 -1</clus>
<clus scale="   92.034">  7  8 -1 -1</clus>
<clus scale="  109.109">  2  5  1 -1</clus>
<clus scale="  107.527">  1  9  2 -1</clus>
<clus scale="  107.527">  1  5  2 -1</clus>
</clustering>
</event>
<event>
 9    2  0.9254368E-005  0.1474314E+03  0.7546771E-02  0.1208493E+00
         21   -1    0    0  501  502  0.00000000000E+00  0.00000000000E+00  0.17463627896E+03  0.17463627896E+03  0.00000000000E+00 0.  1.
         -3   -1    0    0    0  501 -0.00000000000E+00 -0.00000000000E+00 -0.38861779779E+03  0.38861779779E+03  0.00000000000E+00 0.  1.
         23    2    1    2    0    0  0.28798600155E+02  0.97130558371E+02 -0.30976449311E+03  0.34190351295E+03  0.10334537355E+03 0.  0.
         24    2    1    2    0    0 -0.16375612889E+02 -0.13568467235E+03  0.74644807528E+02  0.17566060417E+03  0.81279207407E+02 0.  0.
        -13    1    4    4    0    0 -0.26312874301E+02 -0.12845282249E+03  0.37265899722E+02  0.13631303035E+03  0.00000000000E+00 0.  1.
         14    1    4    4    0    0  0.99372614119E+01 -0.72318498604E+01  0.37378907807E+02  0.39347573821E+02  0.00000000000E+00 0. -1.
        -11    1    3    3    0    0  0.64970420958E+02  0.81579870736E+02 -0.20541524097E+03  0.23037328867E+03  0.00000000000E+00 0.  1.
         11    1    3    3    0    0 -0.36171820803E+02  0.15550687635E+02 -0.10434925214E+03  0.11153022429E+03  0.00000000000E+00 0. -1.
         -4    1    1    2    0  502 -0.12422987266E+02  0.38554113982E+02  0.21138166748E+02  0.45689959630E+02  0.00000000000E+00 0.  1.
<scales pt_clust_5="13000.00000" pt_clust_6="13000.00000" pt_clust_7="13000.00000" pt_clust_8="13000.00000" pt_clust_9="40.50618"></scales>
<clustering>
<clus scale="   40.506">  1  9  2 -1</clus>
<clus scale="   81.279">  5  6 -1 -1</clus>
<clus scale="  103.345">  7  8 -1 -1</clus>
<clus scale="  132.899">  1  5  2 -1</clus>
<clus scale="   40.506">  1  5  2 -1</clus>
</clustering>
</event>
<event>
 9    2  0.9254368E-005  0.1847122E+03  0.7546771E-02  0.1163955E+00
          4   -1    0    0  502    0 -0.00000000000E+00  0.00000000000E+00  0.68224991394E+03  0.68224991394E+03  0.00000000000E+00 0. -1.
         21   -1    0    0  501  502  0.00000000000E+00 -0.00000000000E+00 -0.61181815790E+02  0.61181815790E+02  0.00000000000E+00 0.  1.
         24    2    1    2    0    0 -0.16733636703E+03 -0.51213302862E+02  0.37612250859E+03  0.42382705071E+03  0.86815697472E+02 0.  0.
         23    2    1    2    0    0  0.13818716819E+03  0.29447812661E+02  0.20581461173E+03  0.26617579373E+03  0.92341927871E+02 0.  0.
        -11    1    3    3    0    0 -0.86628065795E+02  0.84186167676E+00  0.25460218271E+03  0.26893754285E+03  0.00000000000E+00 0.  1.
         12    1    3    3    0    0 -0.80708301238E+02 -0.52055164539E+02  0.12152032588E+03  0.15488950786E+03  0.00000000000E+00 0. -1.
        -11    1    4    4    0    0  0.12662171111E+03 -0.54069679230E+01  0.12798801860E+03  0.18012003201E+03  0.00000000000E+00 0.  1.
         11    1    4    4    0    0  0.11565457085E+02  0.34854780584E+02  0.77826593133E+02  0.86055761724E+02  0.00000000000E+00 0. -1.
          3    1    1    2  501    0  0.29149198842E+02  0.21765490201E+02  0.39130977829E+02  0.53428885284E+02  0.00000000000E+00 0. -1.
<scales pt_clust_5="13000.00000" pt_clust_6="13000.00000" pt_clust_7="13000.00000" pt_clust_8="13000.00000" pt_clust_9="36.37873"></scales>
<clustering>
<clus scale="   36.379">  2  9  1 -1</clus>
<clus scale="   86.816">  5  6 -1 -1</clus>
<clus scale="   92.342">  7  8 -1 -1</clus>
<clus scale="  182.012">  1  5  2 -1</clus>
<clus scale="   36.379">  2  5  1 -1</clus>
</clustering>
</event>
<event>
 9    2  0.9254368E-005  0.1370968E+03  0.7546771E-02  0.1221728E+00
         21   -1    0    0  501  502  0.00000000000E+00  0.00000000000E+00  0.12222073521E+03  0.12222073521E+03  0.00000000000E+00 0. -1.
          2   -1    0    0  502    0 -0.00000000000E+00 -0.00000000000E+00 -0.20030655328E+03  0.20030655328E+03  0.00000000000E+00 0. -1.
         24    2    1    2    0    0  0.32653140324E+01  0.88666237474E+02 -0.26878196366E+02  0.11762791028E+03  0.72398369414E+02 0.  0.
         23    2    1    2    0    0 -0.37226031107E+02 -0.11646204048E+03 -0.28793365426E+02  0.15562123038E+03  0.91867976954E+02 0.  0.
        -11    1    3    3    0    0 -0.28343758863E+02  0.14892853981E+02 -0.18381770767E+02  0.36919578312E+02  0.00000000000E+00 0.  1.
         12    1    3    3    0    0  0.31609072896E+02  0.73773383494E+02 -0.84964255990E+01  0.80708331970E+02  0.00000000000E+00 0. -1.
        -11    1    4    4    0    0  0.27673003764E+02 -0.50731647146E+02 -0.25573947016E+02  0.63194318775E+02  0.00000000000E+00 0.  1.
         11    1    4    4    0    0 -0.64899034871E+02 -0.65730393330E+02 -0.32194184106E+01  0.92426911609E+02  0.00000000000E+00 0. -1.
          1    1    1    2  501    0  0.33960717075E+02  0.27795803002E+02 -0.22414256281E+02  0.49278147828E+02  0.00000000000E+00 0. -1.
<scales pt_clust_5="13000.00000" pt_clust_6="13000.00000" pt_clust_7="13000.00000" pt_clust_8="13000.00000" pt_clust_9="43.88552"></scales>
<clustering>
<clus scale="   43.886">  1  9  2 -1</clus>
<clus scale="   72.398">  5  6 -1 -1</clus>
<clus scale="   91.868">  7  8 -1 -1</clus>
<clus scale="  124.889">  2  5  1 -1</clus>
<clus scale="   43.886">  1  5  2 -1</clus>
</clustering>
</event>
<event>
 9    2  0.9254368E-005  0.2911064E+03  0.7546771E-02  0.1133798E+00
         21   -1    0    0  501  502  0.00000000000E+00  0.00000000000E+00  0.58312356639E+02  0.58312356639E+02  0.00000000000E+00 0. -1.
          2   -1    0    0  502    0 -0.00000000000E+00 -0.00000000000E+00 -0.28080455533E+04  0.28080455533E+04  0.00000000000E+00 0. -1.
         23    2    1    2    0    0  0.29396097998E+02  0.86788826456E+01 -0.14198405831E+03  0.17092198158E+03  0.90085500451E+02 0.  0.
         24    2    1    2    0    0  0.26674166992E+03  0.47638160695E+02 -0.58596284846E+03  0.65130066157E+03  0.86136979011E+02 0.  0.
        -13    1    4    4    0    0  0.44952572086E+02  0.28312180117E+02 -0.18728427367E+03  0.19467334806E+03  0.00000000000E+00 0.  1.
         14    1    4    4    0    0  0.22178909784E+03  0.19325980578E+02 -0.39867857479E+03  0.45662731351E+03  0.00000000000E+00 0. -1.
        -11    1    3    3    0    0 -0.25155846937E+02  0.47499653532E+01 -0.90104892734E+01  0.27139781188E+02  0.00000000000E+00 0.  1.
         11    1    3    3    0    0  0.54551944935E+02  0.39289172924E+01 -0.13297356904E+03  0.14378220039E+03  0.00000000000E+00 0. -1.
          1    1    1    2  501    0 -0.29613776792E+03 -0.56317043341E+02 -0.20217862899E+04  0.20441352668E+04  0.00000000000E+00 0. -1.
<scales pt_clust_5="13000.00000" pt_clust_6="13000.00000" pt_clust_7="13000.00000" pt_clust_8="13000.00000" pt_clust_9="278.07089"></scales>
<clustering>
<clus scale="   86.137">  5  6 -1 -1</clus>
<clus scale="   90.086">  7  8 -1 -1</clus>
<clus scale="   95.157">  2  7  1 -1</clus>
<clus scale="  278.071">  1  9  2 -1</clus>
<clus scale="  278.071">  1  5  2 -1</clus>
</clustering>
</event>
<event>
 9    2  0.9254368E-005  0.1100889E+03  0.7546771E-02  0.1265001E+00
          4   -1    0    0  502    0 -0.00000000000E+00  0.00000000000E+00  0.50765494220E+03  0.50765494220E+03  0.00000000000E+00 0. -1.
         21   -1    0    0  501  502  0.00000000000E+00 -0.00000000000E+00 -0.85113008149E+02  0.85113008149E+02  0.00000000000E+00 0.  1.
         24    2    1    2    0    0  0.61584445309E+01  0.63258472918E+02  0.39697287420E+03  0.40978791844E+03  0.79366960484E+02 0.  0.
         23    2    1    2    0    0 -0.63202868352E+02 -0.40144226897E+02  0.28730545010E+02  0.12134944172E+03  0.91071846739E+02 0.  0.
        -11    1    3    3    0    0  0.39827696902E+02  0.40101348338E+02  0.28598342300E+03  0.29151480547E+03  0.00000000000E+00 0.  1.
         12    1    3    3    0    0 -0.33669252371E+02  0.23157124580E+02  0.11098945120E+03  0.11827311297E+03  0.00000000000E+00 0. -1.
        -13    1    4    4    0    0 -0.26573781373E+02 -0.17429886815E+02  0.60138679219E+02  0.68019317469E+02  0.00000000000E+00 0. -1.
         13    1    4    4    0    0 -0.36629086979E+02 -0.22714340082E+02 -0.31408134208E+02  0.53330124252E+02  0.00000000000E+00 0.  1.
          3    1    1    2  501    0  0.57044423821E+02 -0.23114246021E+02 -0.31614851593E+01  0.61630590185E+02  0.00000000000E+00 0. -1.
<scales pt_clust_5="13000.00000" pt_clust_6="13000.00000" pt_clust_7="13000.00000" pt_clust_8="13000.00000" pt_clust_9="61.54945"></scales>
<clustering>
<clus scale="   61.549">  2  9  1 -1</clus>
<clus scale="   79.367">  5  6 -1 -1</clus>
<clus scale="   91.072">  7  8 -1 -1</clus>
<clus scale="  100.621">  1  5  2 -1</clus>
<clus scale="   61.549">  2  5  1 -1</clus>
</clustering>
</event>
<event>
 9    2  0.9254368E-005  0.1370892E+03  0.7546771E-02  0.1228648E+00
         21   -1    0    0  501  502  0.00000000000E+00  0.00000000000E+00  0.18436518379E+03  0.18436518379E+03  0.00000000000E+00 0. -1.
          2   -1    0    0  502    0 -0.00000000000E+00 -0.00000000000E+00 -0.30930088024E+03  0.30930088024E+03  0.00000000000E+00 0. -1.
         23    2    1    2    0    0  0.37359212677E+02 -0.46702369473E+02  0.53217069501E+02  0.12053671358E+03  0.90112267474E+02 0.  0.
         24    2    1    2    0    0  0.76970733612E+02  0.15147607601E+02 -0.22040426543E+03  0.24722371586E+03  0.79922347395E+02 0.  0.
        -11    1    4    4    0    0  0.80863148251E+01  0.22257876632E+02 -0.99819092570E+01  0.25699028621E+02  0.00000000000E+00 0.  1.
         12    1    4    4    0    0  0.68884418786E+02 -0.71102690314E+01 -0.21042235617E+03  0.22152468723E+03  0.00000000000E+00 0. -1.
        -11    1    3    3    0    0 -0.16261935953E+02  0.17814388326E+02  0.93529968148E+01  0.25870476257E+02  0.00000000000E+00 0.  1.
         11    1    3    3    0    0  0.53621148629E+02 -0.64516757799E+02  0.43864072686E+02  0.94666237328E+02  0.00000000000E+00 0. -1.
          1    1    1    2  501    0 -0.11432994629E+03  0.31554761872E+02  0.42251499476E+02  0.12590563460E+03  0.00000000000E+00 0. -1.
<scales pt_clust_5="13000.00000" pt_clust_6="13000.00000" pt_clust_7="13000.00000" pt_clust_8="13000.00000" pt_clust_9="111.38163"></scales>
<clustering>
<clus scale="   79.922">  5  6 -1 -1</clus>
<clus scale="   90.112">  7  8 -1 -1</clus>
<clus scale="  108.153">  2  7  1 -1</clus>
<clus scale="  111.382">  1  9  2 -1</clus>
<clus scale="  111.382">  1  5  2 -1</clus>
</clustering>
</event>
<event>
 9    2  0.9254368E-005  0.1016252E+03  0.7546771E-02  0.1282197E+00
         -3   -1    0    0    0  501 -0.00000000000E+00  0.00000000000E+00  0.40509131273E+03  0.40509131273E+03  0.00000000000E+00 0.  1.
         21   -1    0    0  501  502  0.00000000000E+00 -0.00000000000E+00 -0.46915334346E+02  0.46915334346E+02  0.00000000000E+00 0. -1.
         24    2    1    2    0    0 -0.17444343807E+02 -0.31820941165E+02  0.20640405788E+03  0.22415006766E+03  0.79521948515E+02 0.  0.
         23    2    1    2    0    0  0.64527010027E+02  0.46379950176E+02  0.11226570278E+03  0.16469422163E+03  0.90585671145E+02 0.  0.
        -13    1    3    3    0    0 -0.32564270640E+02 -0.26592440217E+02  0.43624414295E+02  0.60586129779E+02  0.00000000000E+00 0.  1.
         14    1    3    3    0    0  0.15119926834E+02 -0.52285009477E+01  0.16277964359E+03  0.16356393788E+03  0.00000000000E+00 0. -1.
        -13    1    4    4    0    0 -0.85915147209E+01  0.40655505235E+02  0.65958430330E+02  0.77956390134E+02  0.00000000000E+00 0.  1.
         13    1    4    4    0    0  0.73118524748E+02  0.57244449410E+01  0.46307272451E+02  0.86737831498E+02  0.00000000000E+00 0. -1.
         -4    1    1    2    0  502 -0.47082666220E+02 -0.14559009011E+02  0.39506217722E+02  0.63162357781E+02  0.00000000000E+00 0.  1.
<scales pt_clust_5="13000.00000" pt_clust_6="13000.00000" pt_clust_7="13000.00000" pt_clust_8="13000.00000" pt_clust_9="49.28227"></scales>
<clustering>
<clus scale="   49.282">  2  9  1 -1</clus>
<clus scale="   79.522">  5  6 -1 -1</clus>
<clus scale="   90.586">  7  8 -1 -1</clus>
<clus scale="   91.900">  1  5  2 -1</clus>
<clus scale="   49.282">  2  5  1 -1</clus>
</clustering>
</event>
<event>
 9    2  0.9254368E-005  0.1020534E+03  0.7546771E-02  0.1281531E+00
          2   -1    0    0  502    0 -0.00000000000E+00  0.00000000000E+00  0.70606677589E+03  0.70606677589E+03  0.00000000000E+00 0. -1.
         21   -1    0    0  501  502  0.00000000000E+00 -0.00000000000E+00 -0.40966634416E+02  0.40966634416E+02  0.00000000000E+00 0.  1.
         23    2    1    2    0    0  0.53277540004E+02  0.70457025369E+01  0.27445636809E+03  0.29426645447E+03  0.91533109038E+02 0.  0.
         24    2    1    2    0    0 -0.20018251464E+02  0.45572629653E+02  0.50442108026E+02  0.10691721640E+03  0.80058041036E+02 0.  0.
        -11    1    4    4    0    0 -0.26271877973E+02  0.66988391329E+02  0.38931462269E+02  0.81812681776E+02  0.00000000000E+00 0.  1.
         12    1    4    4    0    0  0.62536265091E+01 -0.21415761676E+02  0.11510645757E+02  0.25104534619E+02  0.00000000000E+00 0. -1.
        -11    1    3    3    0    0  0.58124865288E+02  0.41087006453E+02  0.17015131765E+03  0.18443999827E+03  0.00000000000E+00 0. -1.
         11    1    3    3    0    0 -0.48473252848E+01 -0.34041303917E+02  0.10430505044E+03  0.10982645620E+03  0.00000000000E+00 0.  1.
          1    1    1    2  501    0 -0.33259288540E+02 -0.52618332190E+02  0.34020166536E+03  0.34584973944E+03  0.00000000000E+00 0. -1.
<scales pt_clust_5="13000.00000" pt_clust_6="13000.00000" pt_clust_7="13000.00000" pt_clust_8="13000.00000" pt_clust_9="62.24848"></scales>
<clustering>
<clus scale="   62.248">  2  9  1 -1</clus>
<clus scale="   80.058">  5  6 -1 -1</clus>
<clus scale="   91.533">  7  8 -1 -1</clus>
<clus scale="   91.901">  2  5  1 -1</clus>
<clus scale="   62.248">  2  5  1 -1</clus>
</clustering>
</event>
<event>
 9    2  0.9254368E-005  0.2273412E+03  0.7546771E-02  0.1129296E+00
         21   -1    0    0  501  502  0.00000000000E+00  0.00000000000E+00  0.86459869673E+02  0.86459869673E+02  0.00000000000E+00 0. -1.
          2   -1    0    0  502    0 -0.00000000000E+00 -0.00000000000E+00 -0.13658740746E+04  0.13658740746E+04  0.00000000000E+00 0. -1.
         24    2    1    2    0    0  0.87233927295E+02  0.22885652984E+03 -0.77236275018E+03  0.81424748150E+03  0.80434283353E+02 0.  0.
         23    2    1    2    0    0  0.31795634911E+02 -0.18172082141E+03 -0.45581016811E+03  0.50018983066E+03  0.91616254087E+02 0.  0.
        -11    1    3    3    0    0  0.36129441291E+02  0.10450825518E+03 -0.22619445980E+03  0.25177618150E+03  0.00000000000E+00 0.  1.
         12    1    3    3    0    0  0.51104486005E+02  0.12434827467E+03 -0.54616829038E+03  0.56247130000E+03  0.00000000000E+00 0. -1.
        -13    1    4    4    0    0 -0.21138470963E+02 -0.11365428840E+03 -0.30918084532E+03  0.33008624228E+03  0.00000000000E+00 0.  1.
         13    1    4    4    0    0  0.52934105873E+02 -0.68066533007E+02 -0.14662932279E+03  0.17010358838E+03  0.00000000000E+00 0. -1.
          1    1    1    2  501    0 -0.11902956221E+03 -0.47135708433E+02 -0.51241286617E+02  0.13789663209E+03  0.00000000000E+00 0. -1.
<scales pt_clust_5="13000.00000" pt_clust_6="13000.00000" pt_clust_7="13000.00000" pt_clust_8="13000.00000" pt_clust_9="128.02270"></scales>
<clustering>
<clus scale="   80.434">  5  6 -1 -1</clus>
<clus scale="   91.616">  7  8 -1 -1</clus>
<clus scale="  128.023">  1  9  2 -1</clus>
<clus scale="  223.070">  2  5  1 -1</clus>
<clus scale="  128.023">  1  5  2 -1</clus>
</clustering>
</event>
<event>
 9    2  0.9254368E-005  0.2020141E+03  0.7546771E-02  0.1149029E+00
          2   -1    0    0  502    0 -0.00000000000E+00  0.00000000000E+00  0.13661903910E+04  0.13661903910E+04  0.00000000000E+00 0. -1.
         21   -1    0    0  501  502  0.00000000000E+00 -0.00000000000E+00 -0.51526404640E+02  0.51526404640E+02  0.00000000000E+00 0. -1.
         23    2    1    2    0    0 -0.15776583833E+03  0.14516024940E+03  0.90687774021E+03  0.93635215580E+03  0.91468935830E+02 0.  0.
         24    2    1    2    0    0  0.63152492942E+02 -0.11943622230E+03  0.26346117499E+03  0.30688502252E+03  0.80705500177E+02 0.  0.
        -11    1    4    4    0    0  0.76361624487E+02 -0.70567682127E+02  0.14860610232E+03  0.18136887578E+03  0.00000000000E+00 0.  1.
         12    1    4    4    0    0 -0.13209131545E+02 -0.48868540171E+02  0.11485507267E+03  0.12551614674E+03  0.00000000000E+00 0. -1.
        -13    1    3    3    0    0 -0.21922879633E+02 -0.20714414073E+01  0.32080400531E+02  0.38910867622E+02  0.00000000000E+00 0.  1.
         13    1    3    3    0    0 -0.13584295870E+03  0.14723169081E+03  0.87479733968E+03  0.89744128817E+03  0.00000000000E+00 0. -1.
          1    1    1    2  501    0  0.94613345389E+02 -0.25724027105E+02  0.14432507116E+03  0.17447961733E+03  0.00000000000E+00 0. -1.
<scales pt_clust_5="13000.00000" pt_clust_6="13000.00000" pt_clust_7="13000.00000" pt_clust_8="13000.00000" pt_clust_9="98.04800"></scales>
<clustering>
<clus scale="   80.706">  5  6 -1 -1</clus>
<clus scale="   91.469">  7  8 -1 -1</clus>
<clus scale="   98.048">  2  9  1 -1</clus>
<clus scale="  197.374">  2  5  1 -1</clus>
<clus scale="   98.048">  2  5  1 -1</clus>
</clustering>
</event>
<event>
 9    2  0.9254368E-005  0.1259188E+03  0.7546771E-02  0.1236914E+00
          2   -1    0    0  502    0 -0.00000000000E+00  0.00000000000E+00  0.11512172471E+04  0.11512172471E+04  0.00000000000E+00 0. -1.
         21   -1    0    0  501  502  0.00000000000E+00 -0.00000000000E+00 -0.23413002384E+02  0.23413002384E+02  0.00000000000E+00 0.  1.
         24    2    1    2    0    0 -0.37099017065E+02  0.77909289748E+02  0.74971445798E+03  0.75886261003E+03  0.79715104599E+02 0.  0.
         23    2    1    2    0    0  0.18033027071E+02 -0.87518443100E+02  0.37234030504E+03  0.39365645804E+03  0.91342412150E+02 0.  0.
        -11    1    3    3    0    0  0.25228004884E+02  0.26437095374E+02  0.21914045394E+03  0.22216640339E+03  0.00000000000E+00 0.  1.
         12    1    3    3    0    0 -0.62327021949E+02  0.51472194374E+02  0.53057400404E+03  0.53669620664E+03  0.00000000000E+00 0. -1.
        -13    1    4    4    0    0  0.54995162326E+02 -0.61563182711E+02  0.23453575078E+03  0.24863932058E+03  0.00000000000E+00 0.  1.
         13    1    4    4    0    0 -0.36962135254E+02 -0.25955260390E+02  0.13780455426E+03  0.14501713746E+03  0.00000000000E+00 0. -1.
          1    1    1    2  501    0  0.19065989993E+02  0.96091533530E+01  0.57494816718E+01  0.22111181381E+02  0.00000000000E+00 0. -1.
<scales pt_clust_5="13000.00000" pt_clust_6="13000.00000" pt_clust_7="13000.00000" pt_clust_8="13000.00000" pt_clust_9="21.35059"></scales>
<clustering>
<clus scale="   21.351">  2  9  1 -1</clus>
<clus scale="   79.715">  5  6 -1 -1</clus>
<clus scale="   91.342">  7  8 -1 -1</clus>
<clus scale="  117.757">  1  5  2 -1</clus>
<clus scale="   21.351">  2  5  1 -1</clus>
</clustering>
</event>
<event>
 9    2  0.9254368E-005  0.9923498E+02  0.7546771E-02  0.1287532E+00
         21   -1    0    0  501  502  0.00000000000E+00  0.00000000000E+00  0.99942514247E+02  0.99942514247E+02  0.00000000000E+00 0. -1.
         -1   -1    0    0    0  501 -0.00000000000E+00 -0.00000000000E+00 -0.20945039706E+03  0.20945039706E+03  0.00000000000E+00 0.  1.
         24    2    1    2    0    0  0.16844243276E+02  0.38814635528E+02 -0.62441523498E+02  0.11103269632E+03  0.81480128455E+02 0.  0.
         23    2    1    2    0    0 -0.27945311302E+02 -0.63457592633E+01  0.40125380149E+02  0.10465930214E+03  0.92316381578E+02 0.  0.
        -11    1    3    3    0    0  0.30490117855E+02 -0.13187334484E+02 -0.72854494281E+01  0.34009275955E+02  0.00000000000E+00 0.  1.
         12    1    3    3    0    0 -0.13645874579E+02  0.52001970012E+02 -0.55156074070E+02  0.77023420366E+02  0.00000000000E+00 0. -1.
        -11    1    4    4    0    0 -0.44286977577E+02  0.31966119838E+02  0.27408421244E+02  0.61109661719E+02  0.00000000000E+00 0.  1.
         11    1    4    4    0    0  0.16341666275E+02 -0.38311879101E+02  0.12716958906E+02  0.43549640420E+02  0.00000000000E+00 0. -1.
         -2    1    1    2    0  502  0.11101068026E+02 -0.32468876265E+02 -0.87191739462E+02  0.93700912843E+02  0.00000000000E+00 0.  1.
<scales pt_clust_5="13000.00000" pt_clust_6="13000.00000" pt_clust_7="13000.00000" pt_clust_8="13000.00000" pt_clust_9="34.31418"></scales>
<clustering>
<clus scale="   34.314">  1  9  2 -1</clus>
<clus scale="   81.480">  5  6 -1 -1</clus>
<clus scale="   89.243">  2  5  1 -1</clus>
<clus scale="   92.316">  7  8 -1 -1</clus>
<clus scale="   34.314">  1  5  2 -1</clus>
</clustering>
</event>
<event>
 9    2  0.9254368E-005  0.9277464E+02  0.7546771E-02  0.1305503E+00
         21   -1    0    0  501  502  0.00000000000E+00  0.00000000000E+00  0.84606579993E+02  0.84606579993E+02  0.00000000000E+00 0. -1.
          2   -1    0    0  502    0 -0.00000000000E+00 -0.00000000000E+00 -0.21011571393E+03  0.21011571393E+03  0.00000000000E+00 0. -1.
         24    2    1    2    0    0 -0.19604970648E+02  0.75570374099E+01 -0.14299041974E+03  0.16368613890E+03  0.76846784185E+02 0.  0.
         23    2    1    2    0    0 -0.15306268253E+02 -0.17731881368E+00  0.41387159093E+01  0.92940498853E+02  0.91577803357E+02 0.  0.
        -11    1    3    3    0    0 -0.43026869808E+01  0.41865525820E+02 -0.77134179766E+02  0.87868749027E+02  0.00000000000E+00 0.  1.
         12    1    3    3    0    0 -0.15302283667E+02 -0.34308488410E+02 -0.65856239978E+02  0.75817389868E+02  0.00000000000E+00 0. -1.
        -13    1    4    4    0    0  0.10039722501E+02  0.39964556186E+02  0.15671278426E+02  0.44085720438E+02  0.00000000000E+00 0.  1.
         13    1    4    4    0    0 -0.25345990754E+02 -0.40141874999E+02 -0.11532562516E+02  0.48854778415E+02  0.00000000000E+00 0. -1.
          1    1    1    2  501    0  0.34911238901E+02 -0.73797185962E+01  0.13342569894E+02  0.38095656177E+02  0.00000000000E+00 0. -1.
<scales pt_clust_5="13000.00000" pt_clust_6="13000.00000" pt_clust_7="13000.00000" pt_clust_8="13000.00000" pt_clust_9="35.68270"></scales>
<clustering>
<clus scale="   35.683">  1  9  2 -1</clus>
<clus scale="   76.847">  5  6 -1 -1</clus>
<clus scale="   78.269">  2  5  1 -1</clus>
<clus scale="   91.578">  7  8 -1 -1</clus>
<clus scale="   35.683">  1  5  2 -1</clus>
</clustering>
</event>
<event>
 9    2  0.9254368E-005  0.9762120E+02  0.7546771E-02  0.1291203E+00
         21   -1    0    0  501  502  0.00000000000E+00  0.00000000000E+00  0.41453551495E+02  0.41453551495E+02  0.00000000000E+00 0. -1.
         -1   -1    0    0    0  501 -0.00000000000E+00 -0.00000000000E+00 -0.37671865034E+03  0.37671865034E+03  0.00000000000E+00 0.  1.
         23    2    1    2    0    0  0.38679705777E+02 -0.43559296289E+01 -0.23084379581E+03  0.25137707284E+03  0.91577731601E+02 0.  0.
         24    2    1    2    0    0 -0.14252163595E+02  0.35479632450E+02 -0.82402667496E+02  0.12151588424E+03  0.80709243749E+02 0.  0.
        -13    1    4    4    0    0 -0.43890075334E+02  0.25681914775E+01 -0.50356823420E+02  0.66848664798E+02  0.00000000000E+00 0.  1.
         14    1    4    4    0    0  0.29637911739E+02  0.32911440972E+02 -0.32045844076E+02  0.54667219443E+02  0.00000000000E+00 0. -1.
        -11    1    3    3    0    0  0.33146525353E+02 -0.43465822545E+02 -0.17222992670E+03  0.18069620229E+03  0.00000000000E+00 0.  1.
         11    1    3    3    0    0  0.55331804242E+01  0.39109892916E+02 -0.58613869113E+02  0.70680870551E+02  0.00000000000E+00 0. -1.
         -2    1    1    2    0  502 -0.24427542182E+02 -0.31123702821E+02 -0.22018635540E+02  0.45279244753E+02  0.00000000000E+00 0.  1.
<scales pt_clust_5="13000.00000" pt_clust_6="13000.00000" pt_clust_7="13000.00000" pt_clust_8="13000.00000" pt_clust_9="39.56501"></scales>
<clustering>
<clus scale="   39.565">  1  9  2 -1</clus>
<clus scale="   80.709">  5  6 -1 -1</clus>
<clus scale="   87.507">  1  5  2 -1</clus>
<clus scale="   91.578">  7  8 -1 -1</clus>
<clus scale="   39.565">  1  5  2 -1</clus>
</clustering>
</event>
<event>
 9    2  0.9254368E-005  0.9858849E+02  0.7546771E-02  0.1286099E+00
         21   -1    0    0  501  502  0.00000000000E+00  0.00000000000E+00  0.37348025081E+02  0.37348025081E+02  0.00000000000E+00 0.  1.
         -3   -1    0    0    0  501 -0.00000000000E+00 -0.00000000000E+00 -0.43293497825E+03  0.43293497825E+03  0.00000000000E+00 0.  1.
         23    2    1    2    0    0 -0.60045982521E+01  0.47482365788E+02 -0.28359982354E+03  0.30025945032E+03  0.86233678658E+02 0.  0.
         24    2    1    2    0    0  0.32480083501E+02 -0.41503236573E+02 -0.10427502148E+03  0.14180692816E+03  0.80364484078E+02 0.  0.
        -13    1    4    4    0    0  0.35839852881E+02 -0.55685901393E+02 -0.10806984151E+03  0.12674582957E+03  0.00000000000E+00 0.  1.
         14    1    4    4    0    0 -0.33597693799E+01  0.14182664821E+02  0.37948200388E+01  0.15061098593E+02  0.00000000000E+00 0. -1.
        -13    1    3    3    0    0 -0.40538634030E+02  0.11365422898E+02 -0.77599158658E+02  0.88284670873E+02  0.00000000000E+00 0.  1.
         13    1    3    3    0    0  0.34534035778E+02  0.36116942891E+02 -0.20600066488E+03  0.21197477945E+03  0.00000000000E+00 0. -1.
         -4    1    1    2    0  502 -0.26475485249E+02 -0.59791292157E+01 -0.77121081489E+01  0.28216624841E+02  0.00000000000E+00 0.  1.
<scales pt_clust_5="13000.00000" pt_clust_6="13000.00000" pt_clust_7="13000.00000" pt_clust_8="13000.00000" pt_clust_9="27.14224"></scales>
<clustering>
<clus scale="   27.142">  1  9  2 -1</clus>
<clus scale="   80.364">  5  6 -1 -1</clus>
<clus scale="   86.234">  7  8 -1 -1</clus>
<clus scale="   93.498">  1  5  2 -1</clus>
<clus scale="   27.142">  1  5  2 -1</clus>
</clustering>
</event>
<event>
 9    2  0.9254368E-005  0.1321173E+03  0.7546771E-02  0.1226855E+00
         -3   -1    0    0    0  501 -0.00000000000E+00  0.00000000000E+00  0.12061374138E+03  0.12061374138E+03  0.00000000000E+00 0.  1.
         21   -1    0    0  501  502  0.00000000000E+00 -0.00000000000E+00 -0.35934481782E+03  0.35934481782E+03  0.00000000000E+00 0. -1.
         23    2    1    2    0    0  0.18114313174E+02  0.10028232440E+03  0.60727523914E+02  0.14926276103E+03  0.90591758677E+02 0.  0.
         24    2    1    2    0    0 -0.16074958740E+02 -0.64484231520E+02 -0.21834628008E+03  0.24201169069E+03  0.80485650856E+02 0.  0.
        -11    1    4    4    0    0 -0.46782585313E+01 -0.61573981110E+02 -0.70590149188E+02  0.93788114466E+02  0.00000000000E+00 0.  1.
         12    1    4    4    0    0 -0.11396700209E+02 -0.29102504099E+01 -0.14775613089E+03  0.14822357623E+03  0.00000000000E+00 0. -1.
        -11    1    3    3    0    0 -0.36086518522E+02  0.36286031660E+02  0.33177391277E+02  0.60988951496E+02  0.00000000000E+00 0. -1.
         11    1    3    3    0    0  0.54200831696E+02  0.63996292740E+02  0.27550132637E+02  0.88273809532E+02  0.00000000000E+00 0.  1.
         -4    1    1    2    0  502 -0.20393544340E+01 -0.35798092879E+02 -0.81112320273E+02  0.88684107485E+02  0.00000000000E+00 0.  1.
<scales pt_clust_5="13000.00000" pt_clust_6="13000.00000" pt_clust_7="13000.00000" pt_clust_8="13000.00000" pt_clust_9="35.85614"></scales>
<clustering>
<clus scale="   35.856">  2  9  1 -1</clus>
<clus scale="   80.486">  5  6 -1 -1</clus>
<clus scale="   90.592">  7  8 -1 -1</clus>
<clus scale="  125.404">  2  5  1 -1</clus>
<clus scale="   35.856">  2  5  1 -1</clus>
</clustering>
</event>
<event>
 9    2  0.1103490E-004  0.9849253E+02  0.7546771E-02  0.1288203E+00
         21   -1    0    0  501  502  0.00000000000E+00  0.00000000000E+00  0.14368989814E+03  0.14368989814E+03  0.00000000000E+00 0. -1.
         -1   -1    0    0    0  501 -0.00000000000E+00 -0.00000000000E+00 -0.20781860481E+03  0.20781860481E+03  0.00000000000E+00 0.  1.
         23    2    1    2    0    0  0.33049169482E+02 -0.17743847566E+02 -0.15890752133E+03  0.18705548814E+03  0.91274660116E+02 0.  0.
         24    2    1    2    0    0 -0.42763627357E+02 -0.13107130595E+02  0.93209489127E+02  0.13207066889E+03  0.82183502114E+02 0.  0.
        -13    1    4    4    0    0 -0.17510888893E+02 -0.31730109456E+02  0.27747837980E+01  0.36347358928E+02  0.00000000000E+00 0.  1.
         14    1    4    4    0    0 -0.25252738464E+02  0.18622978861E+02  0.90434705329E+02  0.95723309959E+02  0.00000000000E+00 0. -1.
        -11    1    3    3    0    0  0.49176789468E+02 -0.39896002640E+02 -0.14031320996E+03  0.15394104241E+03  0.00000000000E+00 0.  1.
         11    1    3    3    0    0 -0.16127619986E+02  0.22152155074E+02 -0.18594311366E+02  0.33114445730E+02  0.00000000000E+00 0. -1.
         -2    1    1    2    0  502  0.97144578743E+01  0.30850978161E+02  0.15693255312E+01  0.32382345929E+02  0.00000000000E+00 0.  1.
<scales pt_clust_5="13000.00000" pt_clust_6="13000.00000" pt_clust_7="13000.00000" pt_clust_8="13000.00000" pt_clust_9="32.34430"></scales>
<clustering>
<clus scale="   32.344">  1  9  2 -1</clus>
<clus scale="   82.184">  5  6 -1 -1</clus>
<clus scale="   90.132">  1  5  2 -1</clus>
<clus scale="   91.275">  7  8 -1 -1</clus>
<clus scale="   32.344">  1  5  2 -1</clus>
</clustering>
</event>
<event>
 9    2  0.9254368E-005  0.2764451E+03  0.7546771E-02  0.1123690E+00
          2   -1    0    0  502    0 -0.00000000000E+00  0.00000000000E+00  0.91062998180E+03  0.91062998180E+03  0.00000000000E+00 0. -1.
         21   -1    0    0  501  502  0.00000000000E+00 -0.00000000000E+00 -0.21609122404E+03  0.21609122404E+03  0.00000000000E+00 0. -1.
         23    2    1    2    0    0  0.10107140963E+02 -0.10822228086E+03 -0.88729938812E+02  0.16786761803E+03  0.92153777828E+02 0.  0.
         24    2    1    2    0    0 -0.15892455077E+03  0.27135288442E+03  0.37971447256E+03  0.49883812394E+03  0.75940717002E+02 0.  0.
        -13    1    4    4    0    0 -0.49177866282E+02  0.15896668926E+03  0.19835632861E+03  0.25890945121E+03  0.00000000000E+00 0.  1.
         14    1    4    4    0    0 -0.10974668449E+03  0.11238619516E+03  0.18135814395E+03  0.23992867273E+03  0.00000000000E+00 0. -1.
        -11    1    3    3    0    0  0.27981087325E+02 -0.28433650208E+02  0.85398096616E+01  0.40796348624E+02  0.00000000000E+00 0.  1.
         11    1    3    3    0    0 -0.17873946362E+02 -0.79788630655E+02 -0.97269748474E+02  0.12707126941E+03  0.00000000000E+00 0. -1.
          1    1    1    2  501    0  0.14881740981E+03 -0.16313060356E+03  0.40355422401E+03  0.46001546387E+03  0.00000000000E+00 0. -1.
<scales pt_clust_5="13000.00000" pt_clust_6="13000.00000" pt_clust_7="13000.00000" pt_clust_8="13000.00000" pt_clust_9="265.81003"></scales>
<clustering>
<clus scale="   75.941">  5  6 -1 -1</clus>
<clus scale="   92.154">  7  8 -1 -1</clus>
<clus scale="  142.501">  1  7  2 -1</clus>
<clus scale="  265.810">  2  9  1 -1</clus>
<clus scale="  265.810">  2  5  1 -1</clus>
</clustering>
</event>
<event>
 9    2  0.9254368E-005  0.2951298E+03  0.7546771E-02  0.1087701E+00
         21   -1    0    0  501  502  0.00000000000E+00  0.00000000000E+00  0.32167842066E+03  0.32167842066E+03  0.00000000000E+00 0. -1.
          2   -1    0    0  502    0 -0.00000000000E+00 -0.00000000000E+00 -0.29394904482E+03  0.29394904482E+03  0.00000000000E+00 0. -1.
         24    2    1    2    0    0 -0.16484912646E+03 -0.61729423462E+02  0.15100289423E+03  0.24480637401E+03  0.78374297270E+02 0.  0.
         23    2    1    2    0    0 -0.32759645877E+02  0.18302382230E+02  0.43474258139E+02  0.10863803368E+03  0.92217350033E+02 0.  0.
        -11    1    3    3    0    0 -0.79153681273E+02  0.10808293736E+02  0.71746514324E+02  0.10737637911E+03  0.00000000000E+00 0.  1.
         12    1    3    3    0    0 -0.85695445192E+02 -0.72537717198E+02  0.79256379905E+02  0.13742999490E+03  0.00000000000E+00 0. -1.
        -11    1    4    4    0    0  0.18943314828E+01 -0.27312819934E+02 -0.11076443433E+02  0.29534153511E+02  0.00000000000E+00 0. -1.
         11    1    4    4    0    0 -0.34653977360E+02  0.45615202164E+02  0.54550701572E+02  0.79103880166E+02  0.00000000000E+00 0.  1.
          1    1    1    2  501    0  0.19760877234E+03  0.43427041232E+02 -0.16674777653E+03  0.26218305780E+03  0.00000000000E+00 0. -1.
<scales pt_clust_5="13000.00000" pt_clust_6="13000.00000" pt_clust_7="13000.00000" pt_clust_8="13000.00000" pt_clust_9="202.32443"></scales>
<clustering>
<clus scale="   78.374">  5  6 -1 -1</clus>
<clus scale="   92.217">  7  8 -1 -1</clus>
<clus scale="   97.680">  5  7 -1 -1</clus>
<clus scale="  202.324">  1  9  2 -1</clus>
<clus scale="  202.324">  1  5  2 -1</clus>
</clustering>
</event>
<event>
 9    2  0.9254368E-005  0.9576646E+02  0.7546771E-02  0.1293592E+00
         21   -1    0    0  501  502  0.00000000000E+00  0.00000000000E+00  0.20211360479E+03  0.20211360479E+03  0.00000000000E+00 0.  1.
          4   -1    0    0  502    0 -0.00000000000E+00 -0.00000000000E+00 -0.61771504359E+02  0.61771504359E+02  0.00000000000E+00 0. -1.
         23    2    1    2    0    0  0.26992513322E+02  0.19055319186E+02  0.17204695187E+02  0.96737894208E+02  0.89277755765E+02 0.  0.
         24    2    1    2    0    0 -0.41336425960E+02 -0.33617669450E+01  0.95542866118E+02  0.13231197415E+03  0.81596676697E+02 0.  0.
        -11    1    4    4    0    0 -0.15251633513E+02  0.38391037097E+02  0.53352462289E+02  0.67475694042E+02  0.00000000000E+00 0.  1.
         12    1    4    4    0    0 -0.26084792448E+02 -0.41752804042E+02  0.42190403829E+02  0.64836280103E+02  0.00000000000E+00 0. -1.
        -13    1    3    3    0    0  0.18863586718E+02  0.51862693148E+02  0.27152767432E+02  0.61504850408E+02  0.00000000000E+00 0.  1.
         13    1    3    3    0    0  0.81289266043E+01 -0.32807373962E+02 -0.99480722445E+01  0.35233043800E+02  0.00000000000E+00 0. -1.
          3    1    1    2  501    0  0.14343912638E+02 -0.15693552241E+02  0.27594539126E+02  0.34835240796E+02  0.00000000000E+00 0. -1.
<scales pt_clust_5="13000.00000" pt_clust_6="13000.00000" pt_clust_7="13000.00000" pt_clust_8="13000.00000" pt_clust_9="21.26112"></scales>
<clustering>
<clus scale="   21.261">  1  9  2 -1</clus>
<clus scale="   81.597">  5  6 -1 -1</clus>
<clus scale="   88.649">  1  5  2 -1</clus>
<clus scale="   89.278">  7  8 -1 -1</clus>
<clus scale="   21.261">  1  5  2 -1</clus>
</clustering>
</event>
<event>
 9    2  0.9254368E-005  0.9480517E+02  0.7546771E-02  0.1297394E+00
         21   -1    0    0  501  502  0.00000000000E+00  0.00000000000E+00  0.97772274280E+02  0.97772274280E+02  0.00000000000E+00 0.  1.
          4   -1    0    0  502    0 -0.00000000000E+00 -0.00000000000E+00 -0.25810678045E+03  0.25810678045E+03  0.00000000000E+00 0. -1.
         24    2    1    2    0    0 -0.12613406602E+02  0.44297716972E+01 -0.12048797046E+03  0.14604042859E+03  0.81435464352E+02 0.  0.
         23    2    1    2    0    0  0.35312888335E+01 -0.81301826443E+02 -0.49016934125E+02  0.13189060582E+03  0.91487786558E+02 0.  0.
        -13    1    3    3    0    0  0.21915635181E+02 -0.75518706728E+01 -0.10290251252E+03  0.10548105469E+03  0.00000000000E+00 0.  1.
         14    1    3    3    0    0 -0.34529041784E+02  0.11981642370E+02 -0.17585457947E+02  0.40559373905E+02  0.00000000000E+00 0. -1.
        -13    1    4    4    0    0 -0.37625792382E+02 -0.70450456756E+02 -0.32844626130E+02  0.86358187655E+02  0.00000000000E+00 0.  1.
         13    1    4    4    0    0  0.41157081215E+02 -0.10851369687E+02 -0.16172307995E+02  0.45532418167E+02  0.00000000000E+00 0. -1.
          3    1    1    2  501    0  0.90821177687E+01  0.76872054746E+02  0.91703984179E+01  0.77948020316E+02  0.00000000000E+00 0. -1.
<scales pt_clust_5="13000.00000" pt_clust_6="13000.00000" pt_clust_7="13000.00000" pt_clust_8="13000.00000" pt_clust_9="77.40670"></scales>
<clustering>
<clus scale="   77.407">  1  9  2 -1</clus>
<clus scale="   81.435">  5  6 -1 -1</clus>
<clus scale="   85.145">  2  5  1 -1</clus>
<clus scale="   91.488">  7  8 -1 -1</clus>
<clus scale="   77.407">  1  5  2 -1</clus>
</clustering>
</event>
<event>
 9    2  0.9254368E-005  0.1325475E+03  0.7546771E-02  0.1226025E+00
          2   -1    0    0  502    0 -0.00000000000E+00  0.00000000000E+00  0.35008855624E+03  0.35008855624E+03  0.00000000000E+00 0. -1.
         21   -1    0    0  501  502  0.00000000000E+00 -0.00000000000E+00 -0.10152759281E+03  0.10152759281E+03  0.00000000000E+00 0.  1.
         23    2    1    2    0    0  0.84263381159E+02  0.44988104003E+02  0.26516003703E+03  0.29609350760E+03  0.90759424294E+02 0.  0.
         24    2    1    2    0    0 -0.78965985890E+02 -0.66707821703E+02 -0.89698553775E+01  0.13190033199E+03  0.81435120614E+02 0.  0.
        -11    1    4    4    0    0 -0.33734714143E+02 -0.18418296847E+01 -0.35001557556E+02  0.48647017444E+02  0.00000000000E+00 0.  1.
         12    1    4    4    0    0 -0.45231271747E+02 -0.64865992019E+02  0.26031702178E+02  0.83253314545E+02  0.00000000000E+00 0. -1.
        -13    1    3    3    0    0  0.68127626001E+02 -0.11173107790E+02  0.10554536448E+03  0.12611913307E+03  0.00000000000E+00 0.  1.
         13    1    3    3    0    0  0.16135755158E+02  0.56161211792E+02  0.15961467255E+03  0.16997437453E+03  0.00000000000E+00 0. -1.
          1    1    1    2  501    0 -0.52973952692E+01  0.21719717701E+02 -0.76292182295E+01  0.23622309464E+02  0.00000000000E+00 0. -1.
<scales pt_clust_5="13000.00000" pt_clust_6="13000.00000" pt_clust_7="13000.00000" pt_clust_8="13000.00000" pt_clust_9="22.35640"></scales>
<clustering>
<clus scale="   22.356">  2  9  1 -1</clus>
<clus scale="   81.435">  5  6 -1 -1</clus>
<clus scale="   90.759">  7  8 -1 -1</clus>
<clus scale="  126.346">  2  5  1 -1</clus>
<clus scale="   22.356">  2  5  1 -1</clus>
</clustering>
</event>
<event>
 9    2  0.9254368E-005  0.1054622E+03  0.7546771E-02  0.1281462E+00
          2   -1    0    0  502    0 -0.00000000000E+00  0.00000000000E+00  0.64832496047E+03  0.64832496047E+03  0.00000000000E+00 0. -1.
         21   -1    0    0  501  502  0.00000000000E+00 -0.00000000000E+00 -0.49082142133E+02  0.49082142133E+02  0.00000000000E+00 0. -1.
         24    2    1    2    0    0  0.52334984710E+01  0.18663528301E+02  0.47736528035E+03  0.48465593004E+03  0.81474185103E+02 0.  0.
         23    2    1    2    0    0 -0.49462051547E+02  0.18504916966E+02  0.82313816677E+02  0.14273013091E+03  0.10395864254E+03 0.  0.
        -11    1    3    3    0    0 -0.20587565605E+02 -0.12526590283E+02  0.51384126446E+02  0.56754663000E+02  0.00000000000E+00 0.  1.
         12    1    3    3    0    0  0.25821064076E+02  0.31190118584E+02  0.42598115391E+03  0.42790126704E+03  0.00000000000E+00 0. -1.
        -11    1    4    4    0    0 -0.18736196589E+02 -0.34057180155E+02  0.70797705311E+02  0.80766649429E+02  0.00000000000E+00 0.  1.
         11    1    4    4    0    0 -0.30725854958E+02  0.52562097121E+02  0.11516111366E+02  0.61963481484E+02  0.00000000000E+00 0. -1.
          1    1    1    2  501    0  0.44228553076E+02 -0.37168445267E+02  0.39563721312E+02  0.70021041658E+02  0.00000000000E+00 0. -1.
<scales pt_clust_5="13000.00000" pt_clust_6="13000.00000" pt_clust_7="13000.00000" pt_clust_8="13000.00000" pt_clust_9="57.77247"></scales>
<clustering>
<clus scale="   57.772">  2  9  1 -1</clus>
<clus scale="   81.474">  5  6 -1 -1</clus>
<clus scale="   83.384">  1  5  2 -1</clus>
<clus scale="  103.959">  7  8 -1 -1</clus>
<clus scale="   57.772">  2  5  1 -1</clus>
</clustering>
</event>
<event>
 9    2  0.9254368E-005  0.2979193E+03  0.7546771E-02  0.1086687E+00
         21   -1    0    0  501  502  0.00000000000E+00  0.00000000000E+00  0.17667882690E+03  0.17667882690E+03  0.00000000000E+00 0. -1.
          2   -1    0    0  502    0 -0.00000000000E+00 -0.00000000000E+00 -0.10308467322E+04  0.10308467322E+04  0.00000000000E+00 0. -1.
         23    2    1    2    0    0 -0.14318146017E+03 -0.16387026544E+03 -0.26496164060E+03  0.35472070938E+03  0.90926983043E+02 0.  0.
         24    2    1    2    0    0  0.17122549802E+03  0.34360089827E+03 -0.53437124909E+03  0.66281419895E+03  0.79939239508E+02 0.  0.
        -11    1    4    4    0    0  0.52127645893E+02  0.39107805760E+02 -0.90767761982E+02  0.11173852761E+03  0.00000000000E+00 0.  1.
         12    1    4    4    0    0  0.11909785213E+03  0.30449309251E+03 -0.44360348711E+03  0.55107567134E+03  0.00000000000E+00 0. -1.
        -13    1    3    3    0    0 -0.53581000359E+02 -0.12401796568E+03 -0.17938953405E+03  0.22457066669E+03  0.00000000000E+00 0.  1.
         13    1    3    3    0    0 -0.89600459808E+02 -0.39852299760E+02 -0.85572106553E+02  0.13015004270E+03  0.00000000000E+00 0. -1.
          1    1    1    2  501    0 -0.28044037856E+02 -0.17973063283E+03 -0.54835015583E+02  0.18999065075E+03  0.00000000000E+00 0. -1.
<scales pt_clust_5="13000.00000" pt_clust_6="13000.00000" pt_clust_7="13000.00000" pt_clust_8="13000.00000" pt_clust_9="181.90538"></scales>
<clustering>
<clus scale="   79.939">  5  6 -1 -1</clus>
<clus scale="   90.927">  7  8 -1 -1</clus>
<clus scale="  181.905">  1  9  2 -1</clus>
<clus scale="  294.752">  1  5  2 -1</clus>
<clus scale="  181.905">  1  5  2 -1</clus>
</clustering>
</event>
<event>
 9    2  0.9254368E-005  0.1244312E+03  0.7546771E-02  0.1237868E+00
         21   -1    0    0  501  502  0.00000000000E+00  0.00000000000E+00  0.18485426217E+03  0.18485426217E+03  0.00000000000E+00 0. -1.
          2   -1    0    0  502    0 -0.00000000000E+00 -0.00000000000E+00 -0.20925546214E+03  0.20925546214E+03  0.00000000000E+00 0. -1.
         23    2    1    2    0    0  0.21535808956E+02 -0.75513703367E+02  0.66472566140E+01  0.11755353940E+03  0.87226934731E+02 0.  0.
         24    2    1    2    0    0  0.21045612649E+02  0.11264147804E+03  0.73249027462E+02  0.15794077993E+03  0.80304729326E+02 0.  0.
        -13    1    4    4    0    0  0.64044954501E+01  0.58409534807E+02  0.82216831046E+02  0.10105591831E+03  0.00000000000E+00 0.  1.
         14    1    4    4    0    0  0.14641117199E+02  0.54231943235E+02 -0.89678035837E+01  0.56884861615E+02  0.00000000000E+00 0. -1.
        -11    1    3    3    0    0 -0.32463504065E+02 -0.21162244398E+02  0.12490007406E+02  0.40715107382E+02  0.00000000000E+00 0.  1.
         11    1    3    3    0    0  0.53999313021E+02 -0.54351458969E+02 -0.58427507922E+01  0.76838432023E+02  0.00000000000E+00 0. -1.
          1    1    1    2  501    0 -0.42581421606E+02 -0.37127774675E+02 -0.10429748405E+03  0.11861540497E+03  0.00000000000E+00 0. -1.
<scales pt_clust_5="13000.00000" pt_clust_6="13000.00000" pt_clust_7="13000.00000" pt_clust_8="13000.00000" pt_clust_9="56.49471"></scales>
<clustering>
<clus scale="   56.495">  1  9  2 -1</clus>
<clus scale="   80.305">  5  6 -1 -1</clus>
<clus scale="   87.227">  7  8 -1 -1</clus>
<clus scale="  119.681">  1  5  2 -1</clus>
<clus scale="   56.495">  1  5  2 -1</clus>
</clustering>
</event>
<event>
 9    2  0.9254368E-005  0.1012787E+03  0.7546771E-02  0.1285078E+00
         21   -1    0    0  501  502  0.00000000000E+00  0.00000000000E+00  0.81151822222E+02  0.81151822222E+02  0.00000000000E+00 0.  1.
          2   -1    0    0  502    0 -0.00000000000E+00 -0.00000000000E+00 -0.34413724025E+03  0.34413724025E+03  0.00000000000E+00 0. -1.
         24    2    1    2    0    0 -0.45640510774E+02 -0.27809676162E+02 -0.23699869554E+03  0.25465997436E+03  0.76334045771E+02 0.  0.
         23    2    1    2    0    0 -0.83288901434E+01 -0.13688102378E+02  0.10502265336E+02  0.93387855005E+02  0.91401637444E+02 0.  0.
        -11    1    3    3    0    0  0.38058655441E+01  0.22365239343E+02 -0.54120871607E+02  0.58683535058E+02  0.00000000000E+00 0.  1.
         12    1    3    3    0    0 -0.49446376318E+02 -0.50174915505E+02 -0.18287782393E+03  0.19597643930E+03  0.00000000000E+00 0. -1.
        -11    1    4    4    0    0 -0.33674705640E+02 -0.13540155087E+02 -0.28996907360E+02  0.46455809499E+02  0.00000000000E+00 0. -1.
         11    1    4    4    0    0  0.25345815497E+02 -0.14794729059E+00  0.39499172697E+02  0.46932045505E+02  0.00000000000E+00 0.  1.
          1    1    1    2  501    0  0.53969400917E+02  0.41497778540E+02 -0.36488987828E+02  0.77241233106E+02  0.00000000000E+00 0. -1.
<scales pt_clust_5="13000.00000" pt_clust_6="13000.00000" pt_clust_7="13000.00000" pt_clust_8="13000.00000" pt_clust_9="68.07909"></scales>
<clustering>
<clus scale="   68.079">  1  9  2 -1</clus>
<clus scale="   76.334">  5  6 -1 -1</clus>
<clus scale="   87.920">  2  5  1 -1</clus>
<clus scale="   91.402">  7  8 -1 -1</clus>
<clus scale="   68.079">  1  5  2 -1</clus>
</clustering>
</event>
<event>
 9    2  0.9254368E-005  0.1768249E+03  0.7546771E-02  0.1203675E+00
          2   -1    0    0  502    0 -0.00000000000E+00  0.00000000000E+00  0.13701184245E+03  0.13701184245E+03  0.00000000000E+00 0. -1.
         21   -1    0    0  501  502  0.00000000000E+00 -0.00000000000E+00 -0.48174111885E+03  0.48174111885E+03  0.00000000000E+00 0. -1.
         24    2    1    2    0    0  0.26472272516E+02  0.84408100785E+01  0.46747350302E+02  0.97389024013E+02  0.80791575991E+02 0.  0.
         23    2    1    2    0    0  0.29507220498E+02 -0.15864605833E+03 -0.25491586660E+03  0.31078340296E+03  0.74598770954E+02 0.  0.
        -13    1    3    3    0    0  0.27745064847E+01 -0.31149470074E+02  0.39974473240E+02  0.50753777031E+02  0.00000000000E+00 0.  1.
         14    1    3    3    0    0  0.23697766031E+02  0.39590280152E+02  0.67728770619E+01  0.46635246982E+02  0.00000000000E+00 0. -1.
        -13    1    4    4    0    0  0.52005059869E+02 -0.11007847628E+03 -0.15167212628E+03  0.19448966832E+03  0.00000000000E+00 0. -1.
         13    1    4    4    0    0 -0.22497839371E+02 -0.48567582049E+02 -0.10324374032E+03  0.11629373465E+03  0.00000000000E+00 0.  1.
          1    1    1    2  501    0 -0.55979493014E+02  0.15020524825E+03 -0.13656076009E+03  0.21058053432E+03  0.00000000000E+00 0. -1.
<scales pt_clust_5="13000.00000" pt_clust_6="13000.00000" pt_clust_7="13000.00000" pt_clust_8="13000.00000" pt_clust_9="160.31876"></scales>
<clustering>
<clus scale="   74.599">  7  8 -1 -1</clus>
<clus scale="   80.792">  5  6 -1 -1</clus>
<clus scale="   85.436">  1  5  2 -1</clus>
<clus scale="  160.319">  2  9  1 -1</clus>
<clus scale="  160.319">  2  5  1 -1</clus>
</clustering>
</event>
<event>
 9    2  0.9254368E-005  0.8360558E+02  0.7546771E-02  0.1332472E+00
         -3   -1    0    0    0  501 -0.00000000000E+00  0.00000000000E+00  0.16904513931E+03  0.16904513931E+03  0.00000000000E+00 0.  1.
         21   -1    0    0  501  502  0.00000000000E+00 -0.00000000000E+00 -0.77670498479E+02  0.77670498479E+02  0.00000000000E+00 0.  1.
         24    2    1    2    0    0 -0.12339705938E+02 -0.50817806744E+01  0.12095688086E+03  0.13798936244E+03  0.65056931084E+02 0.  0.
         23    2    1    2    0    0  0.65042644009E+00 -0.12197246685E+02 -0.23242153781E+02  0.86922589064E+02  0.82862192199E+02 0.  0.
        -11    1    3    3    0    0 -0.22162016639E+02 -0.30571971266E+02  0.83388291015E+02  0.91539103595E+02  0.00000000000E+00 0.  1.
         12    1    3    3    0    0  0.98223107007E+01  0.25490190592E+02  0.37568589847E+02  0.46450258848E+02  0.00000000000E+00 0. -1.
        -13    1    4    4    0    0 -0.24994835015E+02  0.18674677561E+02 -0.33211710180E+02  0.45568663054E+02  0.00000000000E+00 0.  1.
         13    1    4    4    0    0  0.25645261455E+02 -0.30871924245E+02  0.99695563988E+01  0.41353926011E+02  0.00000000000E+00 0. -1.
         -4    1    1    2    0  502  0.11689279498E+02  0.17279027359E+02 -0.63400862524E+01  0.21803686279E+02  0.00000000000E+00 0.  1.
<scales pt_clust_5="13000.00000" pt_clust_6="13000.00000" pt_clust_7="13000.00000" pt_clust_8="13000.00000" pt_clust_9="20.86154"></scales>
<clustering>
<clus scale="   20.862">  2  9  1 -1</clus>
<clus scale="   65.057">  5  6 -1 -1</clus>
<clus scale="   66.001">  1  5  2 -1</clus>
<clus scale="   82.862">  7  8 -1 -1</clus>
<clus scale="   20.862">  2  5  1 -1</clus>
</clustering>
</event>
<event>
 9    2  0.9254368E-005  0.1212956E+03  0.7546771E-02  0.1244225E+00
         21   -1    0    0  501  502  0.00000000000E+00  0.00000000000E+00  0.90450219286E+02  0.90450219286E+02  0.00000000000E+00 0. -1.
          2   -1    0    0  502    0 -0.00000000000E+00 -0.00000000000E+00 -0.32302515513E+03  0.32302515513E+03  0.00000000000E+00 0. -1.
         23    2    1    2    0    0  0.10849924525E+02  0.92828848504E+02 -0.87176925226E+02  0.15584970592E+03  0.89187435029E+02 0.  0.
         24    2    1    2    0    0 -0.78303119589E+02 -0.44717729068E+02 -0.45502340085E+02  0.12784216288E+03  0.78371562618E+02 0.  0.
        -11    1    4    4    0    0 -0.42594494450E+02  0.16358351577E+02 -0.32220636531E+02  0.55857461831E+02  0.00000000000E+00 0.  1.
         12    1    4    4    0    0 -0.35708625138E+02 -0.61076080646E+02 -0.13281703555E+02  0.71984701052E+02  0.00000000000E+00 0. -1.
        -11    1    3    3    0    0  0.38443123033E+02  0.86940885489E+01 -0.37087452045E+02  0.54119682034E+02  0.00000000000E+00 0.  1.
         11    1    3    3    0    0 -0.27593198508E+02  0.84134759956E+02 -0.50089473181E+02  0.10173002389E+03  0.00000000000E+00 0. -1.
          1    1    1    2  501    0  0.67453195063E+02 -0.48111119436E+02 -0.99895670534E+02  0.12978350561E+03  0.00000000000E+00 0. -1.
<scales pt_clust_5="13000.00000" pt_clust_6="13000.00000" pt_clust_7="13000.00000" pt_clust_8="13000.00000" pt_clust_9="82.85300"></scales>
<clustering>
<clus scale="   78.372">  5  6 -1 -1</clus>
<clus scale="   82.853">  1  9  2 -1</clus>
<clus scale="   89.187">  7  8 -1 -1</clus>
<clus scale="  113.580">  1  5  2 -1</clus>
<clus scale="   82.853">  1  5  2 -1</clus>
</clustering>
</event>
<event>
 9    2  0.9254368E-005  0.9322731E+02  0.7546771E-02  0.1300950E+00
         -3   -1    0    0    0  501 -0.00000000000E+00  0.00000000000E+00  0.13239856770E+03  0.13239856770E+03  0.00000000000E+00 0.  1.
         21   -1    0    0  501  502  0.00000000000E+00 -0.00000000000E+00 -0.13166727613E+03  0.13166727613E+03  0.00000000000E+00 0.  1.
         23    2    1    2    0    0  0.33588298580E+02  0.13275377451E+02  0.36224898807E+02  0.10316388372E+03  0.89588694391E+02 0.  0.
         24    2    1    2    0    0  0.24672623778E+02 -0.38377255159E+02 -0.32159489092E+02  0.97375936448E+02  0.79789022947E+02 0.  0.
        -11    1    4    4    0    0  0.32542507509E+02 -0.58126827828E+02 -0.36077083719E+02  0.75758160471E+02  0.00000000000E+00 0.  1.
         12    1    4    4    0    0 -0.78698837314E+01  0.19749572669E+02  0.39175946262E+01  0.21617775977E+02  0.00000000000E+00 0. -1.
        -11    1    3    3    0    0  0.54335232004E+02  0.14060397536E+02  0.52447031604E+02  0.76816035695E+02  0.00000000000E+00 0. -1.
         11    1    3    3    0    0 -0.20746933424E+02 -0.78502008598E+00 -0.16222132798E+02  0.26347848025E+02  0.00000000000E+00 0.  1.
         -4    1    1    2    0  502 -0.58260922357E+02  0.25101877708E+02 -0.33341181471E+01  0.63526023661E+02  0.00000000000E+00 0.  1.
<scales pt_clust_5="13000.00000" pt_clust_6="13000.00000" pt_clust_7="13000.00000" pt_clust_8="13000.00000" pt_clust_9="63.43847"></scales>
<clustering>
<clus scale="   63.438">  2  9  1 -1</clus>
<clus scale="   79.789">  5  6 -1 -1</clus>
<clus scale="   83.854">  2  5  1 -1</clus>
<clus scale="   89.589">  7  8 -1 -1</clus>
<clus scale="   63.438">  2  5  1 -1</clus>
</clustering>
</event>
<event>
 9    2  0.9254368E-005  0.1059320E+03  0.7546771E-02  0.1271953E+00
          2   -1    0    0  502    0 -0.00000000000E+00  0.00000000000E+00  0.55593218905E+03  0.55593218905E+03  0.00000000000E+00 0. -1.
         21   -1    0    0  501  502  0.00000000000E+00 -0.00000000000E+00 -0.25624622896E+02  0.25624622896E+02  0.00000000000E+00 0. -1.
         24    2    1    2    0    0  0.63182509008E+02 -0.71742684956E+01  0.30662450410E+03  0.32356981116E+03  0.81457575504E+02 0.  0.
         23    2    1    2    0    0 -0.39685037815E+02  0.17034236550E+02  0.15183876050E+03  0.18175738850E+03  0.90087022622E+02 0.  0.
        -13    1    3    3    0    0  0.22267673379E+02  0.35093298298E+02  0.90588653538E+02  0.99667913658E+02  0.00000000000E+00 0.  1.
         14    1    3    3    0    0  0.40914835629E+02 -0.42267566793E+02  0.21603585056E+03  0.22390189750E+03  0.00000000000E+00 0. -1.
        -11    1    4    4    0    0 -0.30561446741E+02  0.36495437370E+02  0.15299842590E+03  0.16023244773E+03  0.00000000000E+00 0. -1.
         11    1    4    4    0    0 -0.91235910736E+01 -0.19461200820E+02 -0.11596654091E+01  0.21524940773E+02  0.00000000000E+00 0.  1.
          1    1    1    2  501    0 -0.23497471193E+02 -0.98599680549E+01  0.71844301559E+02  0.76229612284E+02  0.00000000000E+00 0. -1.
<scales pt_clust_5="13000.00000" pt_clust_6="13000.00000" pt_clust_7="13000.00000" pt_clust_8="13000.00000" pt_clust_9="25.48236"></scales>
<clustering>
<clus scale="   25.482">  2  9  1 -1</clus>
<clus scale="   81.458">  5  6 -1 -1</clus>
<clus scale="   90.087">  7  8 -1 -1</clus>
<clus scale="   98.698">  1  5  2 -1</clus>
<clus scale="   25.482">  2  5  1 -1</clus>
</clustering>
</event>
<event>
 9    2  0.9254368E-005  0.1308186E+03  0.7546771E-02  0.1229729E+00
          2   -1    0    0  502    0 -0.00000000000E+00  0.00000000000E+00  0.29027618735E+03  0.29027618735E+03  0.00000000000E+00 0. -1.
         21   -1    0    0  501  502  0.00000000000E+00 -0.00000000000E+00 -0.12891821313E+03  0.12891821313E+03  0.00000000000E+00 0.  1.
         24    2    1    2    0    0 -0.39686873099E+02 -0.90864663117E+02  0.17899238971E+03  0.21917407443E+03  0.78533842579E+02 0.  0.
         23    2    1    2    0    0  0.80850170125E+02  0.35475949624E+02 -0.27074742871E+02  0.13036800100E+03  0.92018916382E+02 0.  0.
        -11    1    3    3    0    0  0.19875427140E+02 -0.24024191275E+02  0.21044584724E+02  0.37617401779E+02  0.00000000000E+00 0.  1.
         12    1    3    3    0    0 -0.59562300239E+02 -0.66840471842E+02  0.15794780498E+03  0.18155667265E+03  0.00000000000E+00 0. -1.
        -11    1    4    4    0    0  0.20206196709E+02  0.36062240763E+02 -0.50582045491E+02  0.65324719060E+02  0.00000000000E+00 0.  1.
         11    1    4    4    0    0  0.60643973416E+02 -0.58629113958E+00  0.23507302619E+02  0.65043281939E+02  0.00000000000E+00 0. -1.
          1    1    1    2  501    0 -0.41163297026E+02  0.55388713493E+02  0.94403273836E+01  0.69652325055E+02  0.00000000000E+00 0. -1.
<scales pt_clust_5="13000.00000" pt_clust_6="13000.00000" pt_clust_7="13000.00000" pt_clust_8="13000.00000" pt_clust_9="69.00961"></scales>
<clustering>
<clus scale="   69.010">  2  9  1 -1</clus>
<clus scale="   78.534">  5  6 -1 -1</clus>
<clus scale="   92.019">  7  8 -1 -1</clus>
<clus scale="  121.711">  1  5  2 -1</clus>
<clus scale="   69.010">  2  5  1 -1</clus>
</clustering>
</event>
<event>
 9    2  0.9254368E-005  0.3524233E+03  0.7546771E-02  0.1109452E+00
          2   -1    0    0  502    0 -0.00000000000E+00  0.00000000000E+00  0.16653001746E+04  0.16653001746E+04  0.00000000000E+00 0. -1.
         21   -1    0    0  501  502  0.00000000000E+00 -0.00000000000E+00 -0.11334637365E+03  0.11334637365E+03  0.00000000000E+00 0. -1.
         24    2    1    2    0    0 -0.55991403124E+02 -0.49654116850E+01  0.79181100818E+02  0.12631743220E+03  0.80788330919E+02 0.  0.
         23    2    1    2    0    0 -0.25759182035E+03  0.20134560181E+03  0.44326478932E+03  0.55835189712E+03  0.91539992792E+02 0.  0.
        -11    1    3    3    0    0 -0.70105747058E+02 -0.19677578031E+02  0.42390460009E+02  0.84255409010E+02  0.00000000000E+00 0.  1.
         12    1    3    3    0    0  0.14114343934E+02  0.14712166346E+02  0.36790640809E+02  0.42062023185E+02  0.00000000000E+00 0. -1.
        -13    1    4    4    0    0 -0.15108780887E+03  0.16567331660E+03  0.25920284435E+03  0.34272625861E+03  0.00000000000E+00 0.  1.
         13    1    4    4    0    0 -0.10650401148E+03  0.35672285211E+02  0.18406194497E+03  0.21562563851E+03  0.00000000000E+00 0. -1.
          1    1    1    2  501    0  0.31358322348E+03 -0.19638019013E+03  0.10295079108E+04  0.10939772189E+04  0.00000000000E+00 0. -1.
<scales pt_clust_5="13000.00000" pt_clust_6="13000.00000" pt_clust_7="13000.00000" pt_clust_8="13000.00000" pt_clust_9="340.32738"></scales>
<clustering>
<clus scale="   80.788">  5  6 -1 -1</clus>
<clus scale="   91.540">  7  8 -1 -1</clus>
<clus scale="   98.420">  1  5  2 -1</clus>
<clus scale="  340.327">  2  9  1 -1</clus>
<clus scale="  340.327">  2  5  1 -1</clus>
</clustering>
</event>
<event>
 9    2  0.9254368E-005  0.1307061E+03  0.7546771E-02  0.1229578E+00
          2   -1    0    0  502    0 -0.00000000000E+00  0.00000000000E+00  0.34511684199E+03  0.34511684199E+03  0.00000000000E+00 0. -1.
         21   -1    0    0  501  502  0.00000000000E+00 -0.00000000000E+00 -0.68581157584E+02  0.68581157584E+02  0.00000000000E+00 0. -1.
         23    2    1    2    0    0 -0.36073347185E+02  0.92980671031E+02  0.23930415187E+03  0.27497856994E+03  0.91651760824E+02 0.  0.
         24    2    1    2    0    0  0.32139568073E+02 -0.70815116639E+02  0.30732358004E+02  0.11528813241E+03  0.79367140975E+02 0.  0.
        -11    1    4    4    0    0  0.53728286222E+02 -0.49107319232E+02  0.40315243524E+02  0.83208030880E+02  0.00000000000E+00 0.  1.
         12    1    4    4    0    0 -0.21588718149E+02 -0.21707797407E+02 -0.95828855197E+01  0.32080101535E+02  0.00000000000E+00 0. -1.
        -13    1    3    3    0    0 -0.54262134544E+02  0.68350488513E+02  0.22470663949E+03  0.24105858698E+03  0.00000000000E+00 0. -1.
         13    1    3    3    0    0  0.18188787360E+02  0.24630182519E+02  0.14597512381E+02  0.33919982963E+02  0.00000000000E+00 0.  1.
          1    1    1    2  501    0  0.39337791111E+01 -0.22165554393E+02  0.64991745297E+01  0.23431297215E+02  0.00000000000E+00 0. -1.
<scales pt_clust_5="13000.00000" pt_clust_6="13000.00000" pt_clust_7="13000.00000" pt_clust_8="13000.00000" pt_clust_9="22.51192"></scales>
<clustering>
<clus scale="   22.512">  2  9  1 -1</clus>
<clus scale="   79.367">  5  6 -1 -1</clus>
<clus scale="   91.652">  7  8 -1 -1</clus>
<clus scale="  122.406">  2  5  1 -1</clus>
<clus scale="   22.512">  2  5  1 -1</clus>
</clustering>
</event>
<event>
 9    2  0.9254368E-005  0.1736334E+03  0.7546771E-02  0.1175426E+00
          2   -1    0    0  502    0 -0.00000000000E+00  0.00000000000E+00  0.97236452210E+03  0.97236452210E+03  0.00000000000E+00 0. -1.
         21   -1    0    0  501  502  0.00000000000E+00 -0.00000000000E+00 -0.64723679243E+02  0.64723679243E+02  0.00000000000E+00 0. -1.
         24    2    1    2    0    0 -0.49403078560E+02 -0.13686791635E+03  0.32542444108E+03  0.36548537968E+03  0.80653612519E+02 0.  0.
         23    2    1    2    0    0 -0.24473080846E+02  0.16412919573E+03  0.17788937960E+03  0.25967903606E+03  0.90836368366E+02 0.  0.
        -13    1    3    3    0    0 -0.31585821509E+02 -0.44589628718E+02  0.48553322794E+02  0.73098045555E+02  0.00000000000E+00 0.  1.
         14    1    3    3    0    0 -0.17817257051E+02 -0.92278287629E+02  0.27687111829E+03  0.29238733413E+03  0.00000000000E+00 0. -1.
        -11    1    4    4    0    0 -0.45612908707E+02  0.32870783545E+02  0.51940763698E+02  0.76543247809E+02  0.00000000000E+00 0.  1.
         11    1    4    4    0    0  0.21139827861E+02  0.13125841218E+03  0.12594861590E+03  0.18313578825E+03  0.00000000000E+00 0. -1.
          1    1    1    2  501    0  0.73876159405E+02 -0.27261279381E+02  0.40432702218E+03  0.41192378560E+03  0.00000000000E+00 0. -1.
<scales pt_clust_5="13000.00000" pt_clust_6="13000.00000" pt_clust_7="13000.00000" pt_clust_8="13000.00000" pt_clust_9="78.74561"></scales>
<clustering>
<clus scale="   78.746">  2  9  1 -1</clus>
<clus scale="   80.654">  5  6 -1 -1</clus>
<clus scale="   90.836">  7  8 -1 -1</clus>
<clus scale="  168.530">  1  5  2 -1</clus>
<clus scale="   78.746">  2  5  1 -1</clus>
</clustering>
</event>
<event>
 9    2  0.9254368E-005  0.3145558E+03  0.7546771E-02  0.1091327E+00
          4   -1    0    0  502    0 -0.00000000000E+00  0.00000000000E+00  0.47930498448E+03  0.47930498448E+03  0.00000000000E+00 0. -1.
         21   -1    0    0  501  502  0.00000000000E+00 -0.00000000000E+00 -0.62556069230E+03  0.62556069230E+03  0.00000000000E+00 0. -1.
         23    2    1    2    0    0  0.19234378242E+03  0.57165728639E+02  0.25651659089E+03  0.33888670739E+03  0.93698387813E+02 0.  0.
         24    2    1    2    0    0 -0.20059957309E+03 -0.31016796397E+03 -0.33136000029E+03  0.50296184917E+03  0.82017177005E+02 0.  0.
        -11    1    4    4    0    0 -0.59004993140E+02 -0.34737210400E+02 -0.66624092842E+02  0.95535505174E+02  0.00000000000E+00 0.  1.
         12    1    4    4    0    0 -0.14159457995E+03 -0.27543075357E+03 -0.26473590745E+03  0.40742634399E+03  0.00000000000E+00 0. -1.
        -13    1    3    3    0    0  0.42427108631E+02  0.92313407317E+01  0.71522827314E+01  0.44004912757E+02  0.00000000000E+00 0.  1.
         13    1    3    3    0    0  0.14991667379E+03  0.47934387907E+02  0.24936430816E+03  0.29488179464E+03  0.00000000000E+00 0. -1.
          3    1    1    2  501    0  0.82557906654E+01  0.25300223534E+03 -0.71412298416E+02  0.26301712022E+03  0.00000000000E+00 0. -1.
<scales pt_clust_5="13000.00000" pt_clust_6="13000.00000" pt_clust_7="13000.00000" pt_clust_8="13000.00000" pt_clust_9="303.67524"></scales>
<clustering>
<clus scale="   82.017">  5  6 -1 -1</clus>
<clus scale="   93.698">  7  8 -1 -1</clus>
<clus scale="  221.458">  1  7  2 -1</clus>
<clus scale="  303.675">  2  9  1 -1</clus>
<clus scale="  303.675">  2  5  1 -1</clus>
</clustering>
</event>
<event>
 9    2  0.9254368E-005  0.1733244E+03  0.7546771E-02  0.1175402E+00
         21   -1    0    0  501  502  0.00000000000E+00  0.00000000000E+00  0.63675411867E+03  0.63675411867E+03  0.00000000000E+00 0.  1.
         -1   -1    0    0    0  501 -0.00000000000E+00 -0.00000000000E+00 -0.75240613599E+02  0.75240613599E+02  0.00000000000E+00 0.  1.
         23    2    1    2    0    0  0.13740395822E+03 -0.48123638853E+02  0.75103311150E+02  0.18671522495E+03  0.89589818229E+02 0.  0.
         24    2    1    2    0    0 -0.13893263964E+03  0.20483037172E+02  0.41043732093E+03  0.44442026444E+03  0.96585422642E+02 0.  0.
        -11    1    4    4    0    0 -0.12098250849E+03  0.35628774818E+02  0.39868507136E+03  0.41815782078E+03  0.00000000000E+00 0.  1.
         12    1    4    4    0    0 -0.17950131151E+02 -0.15145737646E+02  0.11752249570E+02  0.26262443662E+02  0.00000000000E+00 0. -1.
        -13    1    3    3    0    0  0.25514749896E+02 -0.39208693082E+02 -0.74674016924E+01  0.47371786577E+02  0.00000000000E+00 0. -1.
         13    1    3    3    0    0  0.11188920832E+03 -0.89149457713E+01  0.82570712843E+02  0.13934343837E+03  0.00000000000E+00 0.  1.
         -2    1    1    2    0  502  0.15286814245E+01  0.27640601681E+02  0.75972872989E+02  0.80859242875E+02  0.00000000000E+00 0.  1.
<scales pt_clust_5="13000.00000" pt_clust_6="13000.00000" pt_clust_7="13000.00000" pt_clust_8="13000.00000" pt_clust_9="27.68284"></scales>
<clustering>
<clus scale="   27.683">  1  9  2 -1</clus>
<clus scale="   89.590">  7  8 -1 -1</clus>
<clus scale="   96.585">  5  6 -1 -1</clus>
<clus scale="  169.526">  2  7  1 -1</clus>
<clus scale="   27.683">  1  5  2 -1</clus>
</clustering>
</event>
<event>
 9    2  0.9254368E-005  0.1622615E+03  0.7546771E-02  0.1188063E+00
         21   -1    0    0  501  502  0.00000000000E+00  0.00000000000E+00  0.10660984274E+03  0.10660984274E+03  0.00000000000E+00 0.  1.
         -1   -1    0    0    0  501 -0.00000000000E+00 -0.00000000000E+00 -0.36191193718E+03  0.36191193718E+03  0.00000000000E+00 0.  1.
         24    2    1    2    0    0 -0.94701182447E+01 -0.14728296385E+03 -0.11044443626E+03  0.20123446209E+03  0.80717907876E+02 0.  0.
         23    2    1    2    0    0  0.19300818730E+02  0.11297925710E+03 -0.34845795759E+02  0.15163267313E+03  0.92959152000E+02 0.  0.
        -11    1    3    3    0    0  0.16244575228E+01 -0.34018963699E+02 -0.74452770016E+02  0.81872728771E+02  0.00000000000E+00 0.  1.
         12    1    3    3    0    0 -0.11094575767E+02 -0.11326400015E+03 -0.35991666239E+02  0.11936173332E+03  0.00000000000E+00 0. -1.
        -11    1    4    4    0    0 -0.36341810072E+02  0.56839511216E+02 -0.69925911244E+01  0.67825906004E+02  0.00000000000E+00 0. -1.
         11    1    4    4    0    0  0.55642628803E+02  0.56139745883E+02 -0.27853204635E+02  0.83806767127E+02  0.00000000000E+00 0.  1.
         -2    1    1    2    0  502 -0.98307004858E+01  0.34303706750E+02 -0.11001186242E+03  0.11565464470E+03  0.00000000000E+00 0.  1.
<scales pt_clust_5="13000.00000" pt_clust_6="13000.00000" pt_clust_7="13000.00000" pt_clust_8="13000.00000" pt_clust_9="35.68457"></scales>
<clustering>
<clus scale="   35.685">  1  9  2 -1</clus>
<clus scale="   80.718">  5  6 -1 -1</clus>
<clus scale="   92.959">  7  8 -1 -1</clus>
<clus scale="  155.572">  2  5  1 -1</clus>
<clus scale="   35.685">  1  5  2 -1</clus>
</clustering>
</event>
<event>
 9    2  0.9254368E-005  0.1162782E+03  0.7546771E-02  0.1252714E+00
         21   -1    0    0  501  502  0.00000000000E+00  0.00000000000E+00  0.25012727701E+03  0.25012727701E+03  0.00000000000E+00 0. -1.
         -1   -1    0    0    0  501 -0.00000000000E+00 -0.00000000000E+00 -0.80447517490E+02  0.80447517490E+02  0.00000000000E+00 0.  1.
         24    2    1    2    0    0  0.66370662295E+02  0.17477231740E+02  0.71372450779E+00  0.10634802222E+03  0.81233453601E+02 0.  0.
         23    2    1    2    0    0 -0.84003718534E+02 -0.50454281621E+01  0.12970376634E+03  0.17942721699E+03  0.91043825291E+02 0.  0.
        -11    1    3    3    0    0  0.40383219499E+02  0.45568218644E+02 -0.18352698971E+02  0.63593148429E+02  0.00000000000E+00 0.  1.
         12    1    3    3    0    0  0.25987442795E+02 -0.28090986905E+02  0.19066423479E+02  0.42754873788E+02  0.00000000000E+00 0. -1.
        -11    1    4    4    0    0 -0.86111582821E+02  0.24487003780E+02  0.73222383222E+02  0.11565610859E+03  0.00000000000E+00 0.  1.
         11    1    4    4    0    0  0.21078642866E+01 -0.29532431942E+02  0.56481383115E+02  0.63771108402E+02  0.00000000000E+00 0. -1.
         -2    1    1    2    0  502  0.17633056240E+02 -0.12431803578E+02  0.39262268676E+02  0.44799555289E+02  0.00000000000E+00 0.  1.
<scales pt_clust_5="13000.00000" pt_clust_6="13000.00000" pt_clust_7="13000.00000" pt_clust_8="13000.00000" pt_clust_9="21.57486"></scales>
<clustering>
<clus scale="   21.575">  1  9  2 -1</clus>
<clus scale="   81.233">  5  6 -1 -1</clus>
<clus scale="   91.044">  7  8 -1 -1</clus>
<clus scale="  108.768">  2  5  1 -1</clus>
<clus scale="   21.575">  1  5  2 -1</clus>
</clustering>
</event>
<event>
 9    2  0.9254368E-005  0.2013442E+03  0.7546771E-02  0.1149732E+00
          2   -1    0    0  502    0 -0.00000000000E+00  0.00000000000E+00  0.11248657012E+03  0.11248657012E+03  0.00000000000E+00 0. -1.
         21   -1    0    0  501  502  0.00000000000E+00 -0.00000000000E+00 -0.61677510707E+03  0.61677510707E+03  0.00000000000E+00 0.  1.
         23    2    1    2    0    0 -0.13738547611E+03  0.49897416412E+02 -0.13540669153E+03  0.21889129980E+03  0.90630611858E+02 0.  0.
         24    2    1    2    0    0  0.23513452948E+03 -0.28978597819E+02 -0.23050407356E+03  0.33966337066E+03  0.78173341725E+02 0.  0.
        -13    1    4    4    0    0  0.19134871635E+03 -0.36521061877E+01 -0.14419681956E+03  0.23962552431E+03  0.00000000000E+00 0.  1.
         14    1    4    4    0    0  0.43785813124E+02 -0.25326491631E+02 -0.86307254001E+02  0.10003784635E+03  0.00000000000E+00 0. -1.
        -11    1    3    3    0    0 -0.56114849329E+02  0.31615892623E+02 -0.11703573299E+03  0.13358818727E+03  0.00000000000E+00 0.  1.
         11    1    3    3    0    0 -0.81270626776E+02  0.18281523789E+02 -0.18370958540E+02  0.85303112525E+02  0.00000000000E+00 0. -1.
          1    1    1    2  501    0 -0.97749053369E+02 -0.20918818593E+02 -0.13837777185E+03  0.17070700674E+03  0.00000000000E+00 0. -1.
<scales pt_clust_5="13000.00000" pt_clust_6="13000.00000" pt_clust_7="13000.00000" pt_clust_8="13000.00000" pt_clust_9="99.96236"></scales>
<clustering>
<clus scale="   78.173">  5  6 -1 -1</clus>
<clus scale="   90.631">  7  8 -1 -1</clus>
<clus scale="   99.962">  2  9  1 -1</clus>
<clus scale="  196.053">  2  5  1 -1</clus>
<clus scale="   99.962">  2  5  1 -1</clus>
</clustering>
</event>
<event>
 9    2  0.9254368E-005  0.1169601E+03  0.7546771E-02  0.1251629E+00
         21   -1    0    0  501  502  0.00000000000E+00  0.00000000000E+00  0.10176758060E+03  0.10176758060E+03  0.00000000000E+00 0. -1.
          2   -1    0    0  502    0 -0.00000000000E+00 -0.00000000000E+00 -0.39482960859E+03  0.39482960859E+03  0.00000000000E+00 0. -1.
         24    2    1    2    0    0 -0.85455293719E+02 -0.28225009898E+01 -0.25658278305E+03  0.28229188527E+03  0.80891348087E+02 0.  0.
         23    2    1    2    0    0  0.51674200274E+02  0.65153027267E+01 -0.98289792563E+02  0.14376919363E+03  0.91082520672E+02 0.  0.
        -11    1    3    3    0    0 -0.61132254435E+02  0.38583821307E+01 -0.65990373636E+02  0.90037598022E+02  0.00000000000E+00 0.  1.
         12    1    3    3    0    0 -0.24323039284E+02 -0.66808831205E+01 -0.19059240941E+03  0.19225428724E+03  0.00000000000E+00 0. -1.
        -13    1    4    4    0    0  0.90074830595E+01  0.30114168067E+02 -0.88663004808E+02  0.94069794786E+02  0.00000000000E+00 0. -1.
         13    1    4    4    0    0  0.42666717214E+02 -0.23598865341E+02 -0.96267877550E+01  0.49699398846E+02  0.00000000000E+00 0.  1.
          1    1    1    2  501    0  0.33781093445E+02 -0.36928017369E+01  0.61810547618E+02  0.70536110297E+02  0.00000000000E+00 0. -1.
<scales pt_clust_5="13000.00000" pt_clust_6="13000.00000" pt_clust_7="13000.00000" pt_clust_8="13000.00000" pt_clust_9="33.98233"></scales>
<clustering>
<clus scale="   33.982">  1  9  2 -1</clus>
<clus scale="   80.891">  5  6 -1 -1</clus>
<clus scale="   91.083">  7  8 -1 -1</clus>
<clus scale="  109.211">  2  5  1 -1</clus>
<clus scale="   33.982">  1  5  2 -1</clus>
</clustering>
</event>
<event>
 9    2  0.9254368E-005  0.9283804E+02  0.7546771E-02  0.1302238E+00
          2   -1    0    0  502    0 -0.00000000000E+00  0.00000000000E+00  0.28725870824E+03  0.28725870824E+03  0.00000000000E+00 0. -1.
         21   -1    0    0  501  502  0.00000000000E+00 -0.00000000000E+00 -0.18890474671E+03  0.18890474671E+03  0.00000000000E+00 0.  1.
         24    2    1    2    0    0 -0.14642362349E+02  0.12726319428E+02  0.18773941620E+03  0.20530657986E+03  0.80798176703E+02 0.  0.
         23    2    1    2    0    0  0.19584291854E+02  0.18178668046E+02 -0.16429192842E+03  0.18967485290E+03  0.90943408894E+02 0.  0.
        -11    1    3    3    0    0 -0.36827185431E+01 -0.28523204294E+02  0.13203493755E+03  0.13513090073E+03  0.00000000000E+00 0.  1.
         12    1    3    3    0    0 -0.10959643806E+02  0.41249523722E+02  0.55704478650E+02  0.70175679130E+02  0.00000000000E+00 0. -1.
        -11    1    4    4    0    0 -0.55175045094E+01  0.45062742191E+02 -0.13568474337E+03  0.14307845111E+03  0.00000000000E+00 0.  1.
         11    1    4    4    0    0  0.25101796364E+02 -0.26884074145E+02 -0.28607185047E+02  0.46596401789E+02  0.00000000000E+00 0. -1.
          1    1    1    2  501    0 -0.49419295057E+01 -0.30904987475E+02  0.74906473743E+02  0.81182022189E+02  0.00000000000E+00 0. -1.
<scales pt_clust_5="13000.00000" pt_clust_6="13000.00000" pt_clust_7="13000.00000" pt_clust_8="13000.00000" pt_clust_9="31.29763"></scales>
<clustering>
<clus scale="   31.298">  2  9  1 -1</clus>
<clus scale="   80.798">  5  6 -1 -1</clus>
<clus scale="   82.925">  1  5  2 -1</clus>
<clus scale="   90.943">  7  8 -1 -1</clus>
<clus scale="   31.298">  2  5  1 -1</clus>
</clustering>
</event>
<event>
 9    2  0.9254368E-005  0.1086082E+03  0.7546771E-02  0.1266919E+00
          2   -1    0    0  502    0 -0.00000000000E+00  0.00000000000E+00  0.15002742374E+04  0.15002742374E+04  0.00000000000E+00 0. -1.
         21   -1    0    0  501  502  0.00000000000E+00 -0.00000000000E+00 -0.14821204146E+02  0.14821204146E+02  0.00000000000E+00 0.  1.
         24    2    1    2    0    0 -0.49333874793E+01 -0.61482130467E+02  0.11540447417E+04  0.11586095361E+04  0.82172992267E+02 0.  0.
         23    2    1    2    0    0  0.22020391911E+02  0.42049430206E+02  0.23338847409E+03  0.25510799770E+03  0.91415854265E+02 0.  0.
        -11    1    3    3    0    0 -0.22389517452E+02 -0.24566451722E+02  0.14590579893E+03  0.14964392137E+03  0.00000000000E+00 0.  1.
         12    1    3    3    0    0  0.17456129972E+02 -0.36915678744E+02  0.10081389428E+04  0.10089656148E+04  0.00000000000E+00 0. -1.
        -11    1    4    4    0    0 -0.19848424196E+02  0.48637713414E+02  0.77981502341E+02  0.94025006337E+02  0.00000000000E+00 0.  1.
         11    1    4    4    0    0  0.41868816108E+02 -0.65882832079E+01  0.15540697175E+03  0.16108299136E+03  0.00000000000E+00 0. -1.
          1    1    1    2  501    0 -0.17087004432E+02  0.19432700261E+02  0.98019817442E+02  0.10137790771E+03  0.00000000000E+00 0. -1.
<scales pt_clust_5="13000.00000" pt_clust_6="13000.00000" pt_clust_7="13000.00000" pt_clust_8="13000.00000" pt_clust_9="25.87654"></scales>
<clustering>
<clus scale="   25.877">  2  9  1 -1</clus>
<clus scale="   82.173">  5  6 -1 -1</clus>
<clus scale="   91.416">  7  8 -1 -1</clus>
<clus scale="  100.952">  1  5  2 -1</clus>
<clus scale="   25.877">  2  5  1 -1</clus>
</clustering>
</event>
<event>
 9    2  0.9254368E-005  0.1365617E+03  0.7546771E-02  0.1220255E+00
         -1   -1    0    0    0  501 -0.00000000000E+00  0.00000000000E+00  0.48142916325E+03  0.48142916325E+03  0.00000000000E+00 0.  1.
         21   -1    0    0  501  502  0.00000000000E+00 -0.00000000000E+00 -0.81743951058E+02  0.81743951058E+02  0.00000000000E+00 0. -1.
         23    2    1    2    0    0 -0.10514905602E+03  0.22271438478E+02  0.37284141971E+03  0.39846226079E+03  0.90604128330E+02 0.  0.
         24    2    1    2    0    0  0.86803839737E+02 -0.40117457288E+01  0.51083837604E+02  0.12924899898E+03  0.80899595643E+02 0.  0.
        -11    1    4    4    0    0 -0.48862795019E+01  0.19491211775E+02  0.22945909273E+02  0.30500783862E+02  0.00000000000E+00 0.  1.
         12    1    4    4    0    0  0.91690119239E+02 -0.23502957504E+02  0.28137928332E+02  0.98748215114E+02  0.00000000000E+00 0. -1.
        -13    1    3    3    0    0 -0.84190984994E+02  0.19730492585E+02  0.36628848254E+03  0.37635710002E+03  0.00000000000E+00 0.  1.
         13    1    3    3    0    0 -0.20958071029E+02  0.25409458930E+01  0.65529371677E+01  0.22105160774E+02  0.00000000000E+00 0. -1.
         -2    1    1    2    0  502  0.18345216286E+02 -0.18259692749E+02 -0.24240045122E+02  0.35461854539E+02  0.00000000000E+00 0.  1.
<scales pt_clust_5="13000.00000" pt_clust_6="13000.00000" pt_clust_7="13000.00000" pt_clust_8="13000.00000" pt_clust_9="25.88365"></scales>
<clustering>
<clus scale="   25.884">  2  9  1 -1</clus>
<clus scale="   80.900">  5  6 -1 -1</clus>
<clus scale="   90.604">  7  8 -1 -1</clus>
<clus scale="  130.326">  2  5  1 -1</clus>
<clus scale="   25.884">  2  5  1 -1</clus>
</clustering>
</event>
<event>
 9    2  0.9254368E-005  0.1073663E+03  0.7546771E-02  0.1268427E+00
          2   -1    0    0  502    0 -0.00000000000E+00  0.00000000000E+00  0.21425676034E+03  0.21425676034E+03  0.00000000000E+00 0. -1.
         21   -1    0    0  501  502  0.00000000000E+00 -0.00000000000E+00 -0.14657463242E+03  0.14657463242E+03  0.00000000000E+00 0. -1.
         23    2    1    2    0    0  0.93442210983E+00 -0.65111570848E+02  0.11059513655E+02  0.11074861181E+03  0.88896301234E+02 0.  0.
         24    2    1    2    0    0 -0.88975105051E+02  0.22397244575E+02 -0.21691445068E+02  0.12474815919E+03  0.81690749467E+02 0.  0.
        -11    1    4    4    0    0 -0.94293218886E+01 -0.17916548664E+02 -0.28892064104E+02  0.35279827033E+02  0.00000000000E+00 0.  1.
         12    1    4    4    0    0 -0.79545783162E+02  0.40313793239E+02  0.72006190359E+01  0.89468332156E+02  0.00000000000E+00 0. -1.
        -13    1    3    3    0    0 -0.22001421884E+02 -0.78603258107E+02 -0.76979550648E+00  0.81627981324E+02  0.00000000000E+00 0. -1.
         13    1    3    3    0    0  0.22935843993E+02  0.13491687259E+02  0.11829309161E+02  0.29120630488E+02  0.00000000000E+00 0.  1.
          1    1    1    2  501    0  0.88040682941E+02  0.42714326273E+02  0.78314059337E+02  0.12533462176E+03  0.00000000000E+00 0. -1.
<scales pt_clust_5="13000.00000" pt_clust_6="13000.00000" pt_clust_7="13000.00000" pt_clust_8="13000.00000" pt_clust_9="97.85543"></scales>
<clustering>
<clus scale="   81.691">  5  6 -1 -1</clus>
<clus scale="   88.896">  7  8 -1 -1</clus>
<clus scale="   97.855">  2  9  1 -1</clus>
<clus scale="  101.481">  2  5  1 -1</clus>
<clus scale="   97.855">  2  5  1 -1</clus>
</clustering>
</event>
<event>
 9    2  0.1070322E-004  0.1829775E+03  0.7546771E-02  0.1166522E+00
         21   -1    0    0  501  502  0.00000000000E+00  0.00000000000E+00  0.31066928640E+03  0.31066928640E+03  0.00000000000E+00 0.  1.
         -1   -1    0    0    0  501 -0.00000000000E+00 -0.00000000000E+00 -0.19732229486E+03  0.19732229486E+03  0.00000000000E+00 0.  1.
         23    2    1    2    0    0  0.89694182734E+02 -0.13121470867E+03  0.21737815440E+02  0.18620757825E+03  0.94543024026E+02 0.  0.
         24    2    1    2    0    0 -0.10736233688E+03  0.11002599084E+03  0.16725622769E+03  0.24126318676E+03  0.81245858653E+02 0.  0.
        -11    1    4    4    0    0 -0.12064509178E+03  0.93710361689E+02  0.14925731520E+03  0.21357578561E+03  0.00000000000E+00 0.  1.
         12    1    4    4    0    0  0.13282754896E+02  0.16315629148E+02  0.17998912485E+02  0.27687401156E+02  0.00000000000E+00 0. -1.
        -13    1    3    3    0    0  0.58228065035E+02 -0.12784392361E+03  0.44348521816E+02  0.14731384100E+03  0.00000000000E+00 0.  1.
         13    1    3    3    0    0  0.31466117699E+02 -0.33707850563E+01 -0.22610706376E+02  0.38893737256E+02  0.00000000000E+00 0. -1.
         -2    1    1    2    0  502  0.17668154148E+02  0.21188717833E+02 -0.75647051590E+02  0.80520816244E+02  0.00000000000E+00 0.  1.
<scales pt_clust_5="13000.00000" pt_clust_6="13000.00000" pt_clust_7="13000.00000" pt_clust_8="13000.00000" pt_clust_9="27.58852"></scales>
<clustering>
<clus scale="   27.589">  1  9  2 -1</clus>
<clus scale="   81.246">  5  6 -1 -1</clus>
<clus scale="   94.543">  7  8 -1 -1</clus>
<clus scale="  176.475">  1  5  2 -1</clus>
<clus scale="   27.589">  1  5  2 -1</clus>
</clustering>
</event>
<event>
 9    2  0.9254368E-005  0.1764601E+03  0.7546771E-02  0.1173226E+00
          2   -1    0    0  502    0 -0.00000000000E+00  0.00000000000E+00  0.82304340203E+03  0.82304340203E+03  0.00000000000E+00 0. -1.
         21   -1    0    0  501  502  0.00000000000E+00 -0.00000000000E+00 -0.21269969998E+03  0.21269969998E+03  0.00000000000E+00 0. -1.
         24    2    1    2    0    0 -0.19981213397E+02 -0.15189995287E+03  0.67649514553E+03  0.69819637704E+03  0.79747441419E+02 0.  0.
         23    2    1    2    0    0  0.11544479949E+02  0.12874894659E+03  0.86983007862E+02  0.18244254143E+03  0.94919286781E+02 0.  0.
        -13    1    3    3    0    0  0.94143159839E+01 -0.39367767083E+02  0.71858619137E+02  0.82474914821E+02  0.00000000000E+00 0.  1.
         14    1    3    3    0    0 -0.29395529381E+02 -0.11253218579E+03  0.60463652639E+03  0.61572146222E+03  0.00000000000E+00 0. -1.
        -11    1    4    4    0    0  0.10487580381E+02  0.25298883246E+02  0.73097522079E+02  0.78059404109E+02  0.00000000000E+00 0. -1.
         11    1    4    4    0    0  0.10568995673E+01  0.10345006334E+03  0.13885485783E+02  0.10438313732E+03  0.00000000000E+00 0.  1.
          1    1    1    2  501    0  0.84367334484E+01  0.23151006286E+02 -0.15313445134E+03  0.15510418354E+03  0.00000000000E+00 0. -1.
<scales pt_clust_5="13000.00000" pt_clust_6="13000.00000" pt_clust_7="13000.00000" pt_clust_8="13000.00000" pt_clust_9="24.64036"></scales>
<clustering>
<clus scale="   24.640">  2  9  1 -1</clus>
<clus scale="   79.747">  5  6 -1 -1</clus>
<clus scale="   94.919">  7  8 -1 -1</clus>
<clus scale="  168.784">  1  5  2 -1</clus>
<clus scale="   24.640">  2  5  1 -1</clus>
</clustering>
</event>
<event>
 9    2  0.9254368E-005  0.1159589E+03  0.7546771E-02  0.1254809E+00
         21   -1    0    0  501  502  0.00000000000E+00  0.00000000000E+00  0.35199702153E+03  0.35199702153E+03  0.00000000000E+00 0.  1.
          2   -1    0    0  502    0 -0.00000000000E+00 -0.00000000000E+00 -0.24136891320E+03  0.24136891320E+03  0.00000000000E+00 0. -1.
         23    2    1    2    0    0 -0.42210727299E+02 -0.53399182638E+02 -0.18977788978E+03  0.22093275638E+03  0.90346096684E+02 0.  0.
         24    2    1    2    0    0  0.81760233480E+02  0.10072032484E+03  0.16270314517E+03  0.22155067556E+03  0.76046490912E+02 0.  0.
        -13    1    4    4    0    0  0.39112546602E+02  0.27920080460E+02  0.11497621919E+03  0.12461481924E+03  0.00000000000E+00 0.  1.
         14    1    4    4    0    0  0.42647686878E+02  0.72800244377E+02  0.47726925974E+02  0.96935856318E+02  0.00000000000E+00 0. -1.
        -13    1    3    3    0    0 -0.35487458532E+02 -0.61621453084E+01 -0.16150359695E+03  0.16547127719E+03  0.00000000000E+00 0. -1.
         13    1    3    3    0    0 -0.67232687667E+01 -0.47237037330E+02 -0.28274292833E+02  0.55461479189E+02  0.00000000000E+00 0.  1.
          1    1    1    2  501    0 -0.39549506181E+02 -0.47321142198E+02  0.13770285295E+03  0.15088250279E+03  0.00000000000E+00 0. -1.
<scales pt_clust_5="13000.00000" pt_clust_6="13000.00000" pt_clust_7="13000.00000" pt_clust_8="13000.00000" pt_clust_9="61.67215"></scales>
<clustering>
<clus scale="   61.672">  1  9  2 -1</clus>
<clus scale="   76.046">  5  6 -1 -1</clus>
<clus scale="   90.346">  7  8 -1 -1</clus>
<clus scale="  105.200">  1  5  2 -1</clus>
<clus scale="   61.672">  1  5  2 -1</clus>
</clustering>
</event>
<event>
 9    2  0.9254368E-005  0.2486185E+03  0.7546771E-02  0.1153664E+00
         21   -1    0    0  501  502  0.00000000000E+00  0.00000000000E+00  0.15832558440E+03  0.15832558440E+03  0.00000000000E+00 0. -1.
          2   -1    0    0  502    0 -0.00000000000E+00 -0.00000000000E+00 -0.66306715635E+03  0.66306715635E+03  0.00000000000E+00 0. -1.
         24    2    1    2    0    0  0.22871720380E+02 -0.46888874545E+02 -0.26744200256E+03  0.28377960113E+03  0.79271401737E+02 0.  0.
         23    2    1    2    0    0  0.11562380766E+03  0.21711050045E+03 -0.12101083978E+03  0.28925959758E+03  0.92312822212E+02 0.  0.
        -13    1    3    3    0    0  0.14520226840E+02  0.21393849361E+02 -0.82567431989E+02  0.86521180084E+02  0.00000000000E+00 0.  1.
         14    1    3    3    0    0  0.83514935399E+01 -0.68282723906E+02 -0.18487457057E+03  0.19725842104E+03  0.00000000000E+00 0. -1.
        -13    1    4    4    0    0  0.62856855794E+02  0.17095514809E+03 -0.12186045081E+03  0.21914975804E+03  0.00000000000E+00 0.  1.
         13    1    4    4    0    0  0.52766951866E+02  0.46155352357E+02  0.84961103448E+00  0.70109839533E+02  0.00000000000E+00 0. -1.
          1    1    1    2  501    0 -0.13849552804E+03 -0.17022162590E+03 -0.11628872961E+03  0.24835354205E+03  0.00000000000E+00 0. -1.
<scales pt_clust_5="13000.00000" pt_clust_6="13000.00000" pt_clust_7="13000.00000" pt_clust_8="13000.00000" pt_clust_9="230.84515"></scales>
<clustering>
<clus scale="   79.271">  5  6 -1 -1</clus>
<clus scale="   92.313">  7  8 -1 -1</clus>
<clus scale="   94.898">  2  5  1 -1</clus>
<clus scale="  230.845">  1  9  2 -1</clus>
<clus scale="  230.845">  1  5  2 -1</clus>
</clustering>
</event>
<event>
 9    2  0.9254368E-005  0.2910786E+03  0.7546771E-02  0.1131296E+00
          2   -1    0    0  502    0 -0.00000000000E+00  0.00000000000E+00  0.53495871968E+03  0.53495871968E+03  0.00000000000E+00 0. -1.
         21   -1    0    0  501  502  0.00000000000E+00 -0.00000000000E+00 -0.42153344130E+03  0.42153344130E+03  0.00000000000E+00 0. -1.
         23    2    1    2    0    0  0.56007491601E+00  0.43962065874E+02 -0.25551959856E+03  0.27482539971E+03  0.91135932287E+02 0.  0.
         24    2    1    2    0    0  0.26949478787E+03  0.53936353262E+02  0.18166807150E+03  0.33875812732E+03  0.78849284910E+02 0.  0.
        -13    1    4    4    0    0  0.14770918817E+03  0.25020828232E+02  0.52127575899E+02  0.15862323375E+03  0.00000000000E+00 0.  1.
         14    1    4    4    0    0  0.12178559969E+03  0.28915525030E+02  0.12954049560E+03  0.18013489357E+03  0.00000000000E+00 0. -1.
        -11    1    3    3    0    0 -0.28769520210E+02 -0.66483848959E+01 -0.31005115498E+02  0.42815925797E+02  0.00000000000E+00 0.  1.
         11    1    3    3    0    0  0.29329595126E+02  0.50610450770E+02 -0.22451448307E+03  0.23200947391E+03  0.00000000000E+00 0. -1.
          1    1    1    2  501    0 -0.27005486278E+03 -0.97898419136E+02  0.18727680544E+03  0.34290863395E+03  0.00000000000E+00 0. -1.
<scales pt_clust_5="13000.00000" pt_clust_6="13000.00000" pt_clust_7="13000.00000" pt_clust_8="13000.00000" pt_clust_9="280.19568"></scales>
<clustering>
<clus scale="   78.849">  5  6 -1 -1</clus>
<clus scale="   91.136">  7  8 -1 -1</clus>
<clus scale="  101.187">  1  7  2 -1</clus>
<clus scale="  280.196">  2  9  1 -1</clus>
<clus scale="  280.196">  2  5  1 -1</clus>
</clustering>
</event>
<event>
 9    2  0.9254368E-005  0.1906072E+03  0.7546771E-02  0.1158944E+00
         -3   -1    0    0    0  501 -0.00000000000E+00  0.00000000000E+00  0.66891574588E+03  0.66891574588E+03  0.00000000000E+00 0.  1.
         21   -1    0    0  501  502  0.00000000000E+00 -0.00000000000E+00 -0.28286895093E+03  0.28286895093E+03  0.00000000000E+00 0. -1.
         24    2    1    2    0    0 -0.17352936181E+03  0.79796607120E+01  0.59110196841E+03  0.62113866402E+03  0.78965742431E+02 0.  0.
         23    2    1    2    0    0  0.12955130778E+03 -0.28935380271E+02 -0.49080879810E+02  0.16724103991E+03  0.89105752279E+02 0.  0.
        -11    1    3    3    0    0 -0.97667254120E+02 -0.29086271155E+02  0.25536525003E+03  0.27494783981E+03  0.00000000000E+00 0.  1.
         12    1    3    3    0    0 -0.75862107686E+02  0.37065931867E+02  0.33573671839E+03  0.34619082420E+03  0.00000000000E+00 0. -1.
        -11    1    4    4    0    0  0.41906870777E+02 -0.50077174571E+02 -0.40119018238E+02  0.76638403270E+02  0.00000000000E+00 0. -1.
         11    1    4    4    0    0  0.87644437003E+02  0.21141794300E+02 -0.89618615717E+01  0.90602636643E+02  0.00000000000E+00 0.  1.
         -4    1    1    2    0  502  0.43978054026E+02  0.20955719559E+02 -0.15597429365E+03  0.16340499288E+03  0.00000000000E+00 0.  1.
<scales pt_clust_5="13000.00000" pt_clust_6="13000.00000" pt_clust_7="13000.00000" pt_clust_8="13000.00000" pt_clust_9="48.71562"></scales>
<clustering>
<clus scale="   48.716">  2  9  1 -1</clus>
<clus scale="   78.966">  5  6 -1 -1</clus>
<clus scale="   89.106">  7  8 -1 -1</clus>
<clus scale="  186.083">  1  5  2 -1</clus>
<clus scale="   48.716">  2  5  1 -1</clus>
</clustering>
</event>
<event>
 9    2  0.9254368E-005  0.1009199E+03  0.7546771E-02  0.1285343E+00
         21   -1    0    0  501  502  0.00000000000E+00  0.00000000000E+00  0.12943560460E+03  0.12943560460E+03  0.00000000000E+00 0. -1.
         -1   -1    0    0    0  501 -0.00000000000E+00 -0.00000000000E+00 -0.19695252198E+03  0.19695252198E+03  0.00000000000E+00 0.  1.
         23    2    1    2    0    0 -0.38036698640E+02 -0.15739438990E+02 -0.10849685960E+03  0.13928189189E+03  0.77028283649E+02 0.  0.
         24    2    1    2    0    0  0.31555524835E+02  0.45324598271E+02 -0.29371005061E+02  0.11051287306E+03  0.91106359915E+02 0.  0.
        -11    1    4    4    0    0 -0.51862271085E+01  0.49661869508E+02 -0.47849882517E+02  0.69157859217E+02  0.00000000000E+00 0.  1.
         12    1    4    4    0    0  0.36741751943E+02 -0.43372712365E+01  0.18478877456E+02  0.41355013840E+02  0.00000000000E+00 0. -1.
        -11    1    3    3    0    0 -0.18765997897E+02 -0.29424163437E+02 -0.76833556384E+01  0.35734829298E+02  0.00000000000E+00 0. -1.
         11    1    3    3    0    0 -0.19270700743E+02  0.13684724447E+02 -0.10081350396E+03  0.10354706259E+03  0.00000000000E+00 0.  1.
         -2    1    1    2    0  502  0.64811738050E+01 -0.29585159281E+02  0.70350947275E+02  0.76593361632E+02  0.00000000000E+00 0.  1.
<scales pt_clust_5="13000.00000" pt_clust_6="13000.00000" pt_clust_7="13000.00000" pt_clust_8="13000.00000" pt_clust_9="30.28675"></scales>
<clustering>
<clus scale="   30.287">  1  9  2 -1</clus>
<clus scale="   77.028">  7  8 -1 -1</clus>
<clus scale="   88.418">  2  7  1 -1</clus>
<clus scale="   91.106">  5  6 -1 -1</clus>
<clus scale="   30.287">  1  5  2 -1</clus>
</clustering>
</event>
<event>
 9    2  0.9254368E-005  0.2450987E+03  0.7546771E-02  0.1136616E+00
          2   -1    0    0  502    0 -0.00000000000E+00  0.00000000000E+00  0.13005208051E+04  0.13005208051E+04  0.00000000000E+00 0. -1.
         21   -1    0    0  501  502  0.00000000000E+00 -0.00000000000E+00 -0.16614234600E+03  0.16614234600E+03  0.00000000000E+00 0. -1.
         24    2    1    2    0    0  0.97809509417E+02 -0.75090736107E+02  0.62520362209E+03  0.64268193735E+03  0.83397750256E+02 0.  0.
         23    2    1    2    0    0 -0.22293226623E+03 -0.11648975212E+03  0.53077607683E+03  0.59414344206E+03  0.89523898110E+02 0.  0.
        -11    1    3    3    0    0  0.92459859363E+02 -0.91657938589E+02  0.52017134794E+03  0.53621659291E+03  0.00000000000E+00 0.  1.
         12    1    3    3    0    0  0.53496500545E+01  0.16567202482E+02  0.10503227415E+03  0.10646534444E+03  0.00000000000E+00 0. -1.
        -11    1    4    4    0    0 -0.21146036246E+03 -0.76825709511E+02  0.43171681857E+03  0.48682346489E+03  0.00000000000E+00 0. -1.
         11    1    4    4    0    0 -0.11471903770E+02 -0.39664042610E+02  0.99059258264E+02  0.10731997717E+03  0.00000000000E+00 0.  1.
          1    1    1    2  501    0  0.12512275682E+03  0.19158048823E+03 -0.21601239787E+02  0.22983777171E+03  0.00000000000E+00 0. -1.
<scales pt_clust_5="13000.00000" pt_clust_6="13000.00000" pt_clust_7="13000.00000" pt_clust_8="13000.00000" pt_clust_9="228.16403"></scales>
<clustering>
<clus scale="   83.398">  5  6 -1 -1</clus>
<clus scale="   89.524">  7  8 -1 -1</clus>
<clus scale="  148.864">  1  5  2 -1</clus>
<clus scale="  228.164">  2  9  1 -1</clus>
<clus scale="  228.164">  2  5  1 -1</clus>
</clustering>
</event>
<event>
 9    2  0.9254368E-005  0.9072623E+02  0.7546771E-02  0.1306538E+00
          2   -1    0    0  502    0 -0.00000000000E+00  0.00000000000E+00  0.23277776013E+03  0.23277776013E+03  0.00000000000E+00 0. -1.
         21   -1    0    0  501  502  0.00000000000E+00 -0.00000000000E+00 -0.97150010114E+02  0.97150010114E+02  0.00000000000E+00 0. -1.
         23    2    1    2    0    0  0.18541968767E+02 -0.21018568395E+01  0.16917591780E+03  0.19253219403E+03  0.89999623154E+02 0.  0.
         24    2    1    2    0    0  0.25207184783E+02 -0.12641618992E+02 -0.29767030218E+02  0.91074355180E+02  0.81321887509E+02 0.  0.
        -11    1    4    4    0    0 -0.71420385800E+01  0.23641010032E+02 -0.34286721999E+02  0.42255004152E+02  0.00000000000E+00 0.  1.
         12    1    4    4    0    0  0.32349223363E+02 -0.36282629024E+02  0.45196917808E+01  0.48819351028E+02  0.00000000000E+00 0. -1.
        -11    1    3    3    0    0  0.49942871024E+02  0.14791088411E+02  0.12722890111E+03  0.13747821624E+03  0.00000000000E+00 0. -1.
         11    1    3    3    0    0 -0.31400902257E+02 -0.16892945251E+02  0.41947016693E+02  0.55053977797E+02  0.00000000000E+00 0.  1.
          1    1    1    2  501    0 -0.43749153550E+02  0.14743475831E+02 -0.37811375721E+01  0.46321221025E+02  0.00000000000E+00 0. -1.
<scales pt_clust_5="13000.00000" pt_clust_6="13000.00000" pt_clust_7="13000.00000" pt_clust_8="13000.00000" pt_clust_9="46.16664"></scales>
<clustering>
<clus scale="   46.167">  2  9  1 -1</clus>
<clus scale="   81.322">  5  6 -1 -1</clus>
<clus scale="   82.125">  2  5  1 -1</clus>
<clus scale="   90.000">  7  8 -1 -1</clus>
<clus scale="   46.167">  2  5  1 -1</clus>
</clustering>
</event>
<event>
 9    2  0.9254368E-005  0.1688757E+03  0.7546771E-02  0.1207262E+00
          2   -1    0    0  502    0 -0.00000000000E+00  0.00000000000E+00  0.10755899048E+04  0.10755899048E+04  0.00000000000E+00 0. -1.
         21   -1    0    0  501  502  0.00000000000E+00 -0.00000000000E+00 -0.44220258932E+02  0.44220258932E+02  0.00000000000E+00 0. -1.
         24    2    1    2    0    0 -0.39999697006E+01  0.38302605988E+02  0.18173490886E+03  0.20315156603E+03  0.82218564183E+02 0.  0.
         23    2    1    2    0    0  0.14314924848E+03 -0.32798690866E+02  0.26673257331E+03  0.31735254292E+03  0.89436622077E+02 0.  0.
        -11    1    3    3    0    0 -0.84885523069E+01  0.34603359357E+02  0.19125212352E+02  0.40437875149E+02  0.00000000000E+00 0.  1.
         12    1    3    3    0    0  0.44885826063E+01  0.36992466316E+01  0.16260969651E+03  0.16271369088E+03  0.00000000000E+00 0. -1.
        -13    1    4    4    0    0  0.33517089620E+02  0.23463256863E+01  0.14878434557E+03  0.15253092154E+03  0.00000000000E+00 0.  1.
         13    1    4    4    0    0  0.10963215886E+03 -0.35145016552E+02  0.11794822774E+03  0.16482162138E+03  0.00000000000E+00 0. -1.
          1    1    1    2  501    0 -0.13914927878E+03 -0.55039151225E+01  0.58290216371E+03  0.59930605481E+03  0.00000000000E+00 0. -1.
<scales pt_clust_5="13000.00000" pt_clust_6="13000.00000" pt_clust_7="13000.00000" pt_clust_8="13000.00000" pt_clust_9="143.24841"></scales>
<clustering>
<clus scale="   82.219">  5  6 -1 -1</clus>
<clus scale="   89.437">  7  8 -1 -1</clus>
<clus scale="   90.791">  1  5  2 -1</clus>
<clus scale="  143.248">  2  9  1 -1</clus>
<clus scale="  143.248">  2  5  1 -1</clus>
</clustering>
</event>
<event>
 9    2  0.9254368E-005  0.9565648E+02  0.7546771E-02  0.1294917E+00
         21   -1    0    0  501  502  0.00000000000E+00  0.00000000000E+00  0.26961746505E+03  0.26961746505E+03  0.00000000000E+00 0.  1.
          2   -1    0    0  502    0 -0.00000000000E+00 -0.00000000000E+00 -0.92642645944E+02  0.92642645944E+02  0.00000000000E+00 0. -1.
         24    2    1    2    0    0  0.29646253923E+02  0.21790202443E+02 -0.50646119106E+02  0.10148081598E+03  0.79872481721E+02 0.  0.
         23    2    1    2    0    0 -0.22947796586E+02  0.11530882035E+01  0.12495382533E+03  0.15536677212E+03  0.89428431910E+02 0.  0.
        -11    1    3    3    0    0  0.19497607181E+02 -0.29651841185E+02 -0.19439648410E+02  0.40463419304E+02  0.00000000000E+00 0.  1.
         12    1    3    3    0    0  0.10148646742E+02  0.51442043628E+02 -0.31206470696E+02  0.61017396672E+02  0.00000000000E+00 0. -1.
        -13    1    4    4    0    0 -0.22419885404E+02 -0.32817500602E+02  0.11227715540E+03  0.11910415287E+03  0.00000000000E+00 0.  1.
         13    1    4    4    0    0 -0.52791118144E+00  0.33970588806E+02  0.12676669930E+02  0.36262619245E+02  0.00000000000E+00 0. -1.
          1    1    1    2  501    0 -0.66984573373E+01 -0.22943290646E+02  0.10266711288E+03  0.10541252290E+03  0.00000000000E+00 0. -1.
<scales pt_clust_5="13000.00000" pt_clust_6="13000.00000" pt_clust_7="13000.00000" pt_clust_8="13000.00000" pt_clust_9="23.90113"></scales>
<clustering>
<clus scale="   23.901">  1  9  2 -1</clus>
<clus scale="   79.872">  5  6 -1 -1</clus>
<clus scale="   86.789">  2  5  1 -1</clus>
<clus scale="   89.428">  7  8 -1 -1</clus>
<clus scale="   23.901">  1  5  2 -1</clus>
</clustering>
</event>
<event>
 9    2  0.9254368E-005  0.1098922E+03  0.7546771E-02  0.1265466E+00
         21   -1    0    0  501  502  0.00000000000E+00  0.00000000000E+00  0.29340606193E+02  0.29340606193E+02  0.00000000000E+00 0.  1.
         -3   -1    0    0    0  501 -0.00000000000E+00 -0.00000000000E+00 -0.67160215101E+03  0.67160215101E+03  0.00000000000E+00 0.  1.
         24    2    1    2    0    0  0.73254469668E+02 -0.18498700325E+02 -0.36937867364E+03  0.38539104656E+03  0.79857591931E+02 0.  0.
         23    2    1    2    0    0 -0.32360177033E+02 -0.13928722751E+02 -0.12652500877E+03  0.16016668941E+03  0.91671152359E+02 0.  0.
        -13    1    3    3    0    0  0.78558392294E+01  0.28376329008E+02 -0.10287772210E+03  0.10700820512E+03  0.00000000000E+00 0.  1.
         14    1    3    3    0    0  0.65398630439E+02 -0.46875029334E+02 -0.26650095154E+03  0.27838284145E+03  0.00000000000E+00 0. -1.
        -13    1    4    4    0    0 -0.40033534474E+01 -0.50586899403E+02 -0.78096385197E+02  0.93134883963E+02  0.00000000000E+00 0.  1.
         13    1    4    4    0    0 -0.28356823586E+02  0.36658176652E+02 -0.48428623576E+02  0.67031805442E+02  0.00000000000E+00 0. -1.
         -4    1    1    2    0  502 -0.40894292635E+02  0.32427423076E+02 -0.14635786240E+03  0.15538502123E+03  0.00000000000E+00 0.  1.
<scales pt_clust_5="13000.00000" pt_clust_6="13000.00000" pt_clust_7="13000.00000" pt_clust_8="13000.00000" pt_clust_9="52.19084"></scales>
<clustering>
<clus scale="   52.191">  1  9  2 -1</clus>
<clus scale="   79.858">  5  6 -1 -1</clus>
<clus scale="   91.671">  7  8 -1 -1</clus>
<clus scale="  100.249">  2  5  1 -1</clus>
<clus scale="   52.191">  1  5  2 -1</clus>
</clustering>
</event>
<event>
 9    2  0.9254368E-005  0.1015756E+03  0.7546771E-02  0.1285271E+00
          2   -1    0    0  502    0 -0.00000000000E+00  0.00000000000E+00  0.41928246851E+03  0.41928246851E+03  0.00000000000E+00 0. -1.
         21   -1    0    0  501  502  0.00000000000E+00 -0.00000000000E+00 -0.31516681628E+02  0.31516681628E+02  0.00000000000E+00 0.  1.
         23    2    1    2    0    0 -0.36280289017E+02 -0.30186220539E+02  0.17736242349E+03  0.20722001818E+03  0.96204154719E+02 0.  0.
         24    2    1    2    0    0  0.86205908791E+00  0.25268240995E+02  0.12307603083E+03  0.14921441108E+03  0.80486048239E+02 0.  0.
        -11    1    4    4    0    0 -0.54199572049E+01  0.53570035411E+02  0.92852783408E+02  0.10733482201E+03  0.00000000000E+00 0.  1.
         12    1    4    4    0    0  0.62820162928E+01 -0.28301794416E+02  0.30223247417E+02  0.41879589066E+02  0.00000000000E+00 0. -1.
        -11    1    3    3    0    0 -0.36731894828E+02 -0.52318250441E+02  0.59613195058E+02  0.87408034253E+02  0.00000000000E+00 0.  1.
         11    1    3    3    0    0  0.45160581108E+00  0.22132029902E+02  0.11774922844E+03  0.11981198393E+03  0.00000000000E+00 0. -1.
          1    1    1    2  501    0  0.35418229929E+02  0.49179795445E+01  0.87327332562E+02  0.94364720878E+02  0.00000000000E+00 0. -1.
<scales pt_clust_5="13000.00000" pt_clust_6="13000.00000" pt_clust_7="13000.00000" pt_clust_8="13000.00000" pt_clust_9="35.75806"></scales>
<clustering>
<clus scale="   35.758">  2  9  1 -1</clus>
<clus scale="   80.486">  5  6 -1 -1</clus>
<clus scale="   86.835">  2  5  1 -1</clus>
<clus scale="   96.204">  7  8 -1 -1</clus>
<clus scale="   35.758">  2  5  1 -1</clus>
</clustering>
</event>
<event>
 9    2  0.1326678E-004  0.1182242E+03  0.7546771E-02  0.1260875E+00
         -1   -1    0    0    0  501 -0.00000000000E+00  0.00000000000E+00  0.34725123008E+03  0.34725123008E+03  0.00000000000E+00 0.  1.
         21   -1    0    0  501  502  0.00000000000E+00 -0.00000000000E+00 -0.12890754965E+03  0.12890754965E+03  0.00000000000E+00 0.  1.
         23    2    1    2    0    0 -0.11604091128E+02 -0.22944868940E+02  0.30278489377E+03  0.32517030514E+03  0.11574071672E+03 0.  0.
         24    2    1    2    0    0 -0.16544655833E+02  0.22412601442E+02 -0.38553437742E+02  0.97152397336E+02  0.84712280139E+02 0.  0.
        -13    1    4    4    0    0 -0.38225923283E+02  0.37893883454E+02 -0.46382388283E+01  0.54024817200E+02  0.00000000000E+00 0.  1.
         14    1    4    4    0    0  0.21681267450E+02 -0.15481282012E+02 -0.33915198914E+02  0.43127580136E+02  0.00000000000E+00 0. -1.
        -11    1    3    3    0    0  0.40018478735E+02 -0.37155840931E+02  0.21925401943E+03  0.22595211924E+03  0.00000000000E+00 0.  1.
         11    1    3    3    0    0 -0.51622569863E+02  0.14210971991E+02  0.83530874347E+02  0.99218185900E+02  0.00000000000E+00 0. -1.
         -2    1    1    2    0  502  0.28148746961E+02  0.53226749810E+00 -0.45887775604E+02  0.53836077254E+02  0.00000000000E+00 0.  1.
<scales pt_clust_5="13000.00000" pt_clust_6="13000.00000" pt_clust_7="13000.00000" pt_clust_8="13000.00000" pt_clust_9="28.15378"></scales>
<clustering>
<clus scale="   28.154">  2  9  1 -1</clus>
<clus scale="   84.712">  5  6 -1 -1</clus>
<clus scale="   88.075">  2  5  1 -1</clus>
<clus scale="  115.741">  7  8 -1 -1</clus>
<clus scale="   28.154">  2  5  1 -1</clus>
</clustering>
</event>
<event>
 9    2  0.9254368E-005  0.1627584E+03  0.7546771E-02  0.1190301E+00
         -1   -1    0    0    0  501 -0.00000000000E+00  0.00000000000E+00  0.15696517299E+03  0.15696517299E+03  0.00000000000E+00 0.  1.
         21   -1    0    0  501  502  0.00000000000E+00 -0.00000000000E+00 -0.24871377712E+03  0.24871377712E+03  0.00000000000E+00 0.  1.
         23    2    1    2    0    0 -0.12407356686E+03 -0.23967958418E+02  0.21843588178E+02  0.16711676349E+03  0.10715482849E+03 0.  0.
         24    2    1    2    0    0  0.97673445221E+02  0.78454219149E+02 -0.75881788095E+02  0.16723341531E+03  0.80708134823E+02 0.  0.
        -13    1    4    4    0    0  0.10381219694E+03  0.88763185770E+02 -0.66035073626E+02  0.15171191888E+03  0.00000000000E+00 0.  1.
         14    1    4    4    0    0 -0.61387517196E+01 -0.10308966620E+02 -0.98467144689E+01  0.15521496425E+02  0.00000000000E+00 0. -1.
        -11    1    3    3    0    0 -0.21182746898E+02 -0.30134303470E+02  0.48259268785E+02  0.60710312431E+02  0.00000000000E+00 0. -1.
         11    1    3    3    0    0 -0.10289081997E+03  0.61663450525E+01 -0.26415680607E+02  0.10640645106E+03  0.00000000000E+00 0.  1.
         -2    1    1    2    0  502  0.26400121644E+02 -0.54486260732E+02 -0.37710404221E+02  0.71328771319E+02  0.00000000000E+00 0.  1.
<scales pt_clust_5="13000.00000" pt_clust_6="13000.00000" pt_clust_7="13000.00000" pt_clust_8="13000.00000" pt_clust_9="60.54518"></scales>
<clustering>
<clus scale="   60.545">  2  9  1 -1</clus>
<clus scale="   80.708">  5  6 -1 -1</clus>
<clus scale="  107.155">  7  8 -1 -1</clus>
<clus scale="  146.704">  2  5  1 -1</clus>
<clus scale="   60.545">  2  5  1 -1</clus>
</clustering>
</event>
<event>
 9    2  0.9254368E-005  0.1553130E+03  0.7546771E-02  0.1196920E+00
         21   -1    0    0  501  502  0.00000000000E+00  0.00000000000E+00  0.74759033165E+02  0.74759033165E+02  0.00000000000E+00 0.  1.
          2   -1    0    0  502    0 -0.00000000000E+00 -0.00000000000E+00 -0.35879252848E+03  0.35879252848E+03  0.00000000000E+00 0. -1.
         23    2    1    2    0    0  0.30186439002E+02 -0.12721376252E+03 -0.16815564772E+03  0.23408429795E+03  0.97080246255E+02 0.  0.
         24    2    1    2    0    0 -0.36346387277E+02  0.10578073876E+03 -0.10911777216E+03  0.17616451515E+03  0.81342631111E+02 0.  0.
        -13    1    4    4    0    0 -0.23249601402E+02  0.68805363675E+02 -0.11548578660E+03  0.13642466398E+03  0.00000000000E+00 0.  1.
         14    1    4    4    0    0 -0.13096785875E+02  0.36975375088E+02  0.63680144402E+01  0.39739851171E+02  0.00000000000E+00 0. -1.
        -11    1    3    3    0    0 -0.26255954792E+02 -0.36087054732E+02 -0.14874062025E+02  0.47041347796E+02  0.00000000000E+00 0.  1.
         11    1    3    3    0    0  0.56442393794E+02 -0.91126707784E+02 -0.15328158570E+03  0.18704295016E+03  0.00000000000E+00 0. -1.
          1    1    1    2  501    0  0.61599482755E+01  0.21433023754E+02 -0.67600754380E+01  0.23302748548E+02  0.00000000000E+00 0. -1.
<scales pt_clust_5="13000.00000" pt_clust_6="13000.00000" pt_clust_7="13000.00000" pt_clust_8="13000.00000" pt_clust_9="22.30066"></scales>
<clustering>
<clus scale="   22.301">  1  9  2 -1</clus>
<clus scale="   81.343">  5  6 -1 -1</clus>
<clus scale="   97.080">  7  8 -1 -1</clus>
<clus scale="  145.994">  1  5  2 -1</clus>
<clus scale="   22.301">  1  5  2 -1</clus>
</clustering>
</event>
<event>
 9    2  0.9254368E-005  0.1562977E+03  0.7546771E-02  0.1194479E+00
         21   -1    0    0  501  502  0.00000000000E+00  0.00000000000E+00  0.46732407211E+02  0.46732407211E+02  0.00000000000E+00 0. -1.
         -3   -1    0    0    0  501 -0.00000000000E+00 -0.00000000000E+00 -0.84469282534E+03  0.84469282534E+03  0.00000000000E+00 0.  1.
         23    2    1    2    0    0 -0.12713329888E+03 -0.64789624106E+02 -0.53897334802E+03  0.56467551500E+03  0.89473997832E+02 0.  0.
         24    2    1    2    0    0  0.10849171086E+03  0.35326174828E+01 -0.16693243985E+03  0.21461593756E+03  0.80066412845E+02 0.  0.
        -11    1    4    4    0    0  0.97468633195E+02 -0.15821036435E+02 -0.16496055328E+03  0.19225614109E+03  0.00000000000E+00 0.  1.
         12    1    4    4    0    0  0.11023077667E+02  0.19353653917E+02 -0.19718865766E+01  0.22359796463E+02  0.00000000000E+00 0. -1.
        -13    1    3    3    0    0 -0.10422419606E+03 -0.17540555777E+02 -0.44132411067E+03  0.45380317848E+03  0.00000000000E+00 0.  1.
         13    1    3    3    0    0 -0.22909102824E+02 -0.47249068329E+02 -0.97649237353E+02  0.11087233652E+03  0.00000000000E+00 0. -1.
         -4    1    1    2    0  502  0.18641588021E+02  0.61257006624E+02 -0.92054630257E+02  0.11213378000E+03  0.00000000000E+00 0.  1.
<scales pt_clust_5="13000.00000" pt_clust_6="13000.00000" pt_clust_7="13000.00000" pt_clust_8="13000.00000" pt_clust_9="64.03069"></scales>
<clustering>
<clus scale="   64.031">  1  9  2 -1</clus>
<clus scale="   80.066">  5  6 -1 -1</clus>
<clus scale="   89.474">  7  8 -1 -1</clus>
<clus scale="  151.109">  1  5  2 -1</clus>
<clus scale="   64.031">  1  5  2 -1</clus>
</clustering>
</event>
<event>
 9    2  0.9254368E-005  0.2238593E+03  0.7546771E-02  0.1132027E+00
         21   -1    0    0  501  502  0.00000000000E+00  0.00000000000E+00  0.17797448906E+03  0.17797448906E+03  0.00000000000E+00 0. -1.
          2   -1    0    0  502    0 -0.00000000000E+00 -0.00000000000E+00 -0.50357041602E+03  0.50357041602E+03  0.00000000000E+00 0. -1.
         24    2    1    2    0    0 -0.11700421152E+03  0.15717799074E+03 -0.26223083570E+03  0.33717360408E+03  0.80784415675E+02 0.  0.
         23    2    1    2    0    0  0.62919239491E+02 -0.22275204862E+03 -0.68659755232E+02  0.25920572854E+03  0.94319360990E+02 0.  0.
        -11    1    3    3    0    0 -0.47173644983E+02  0.11922841096E+03 -0.12798260071E+03  0.18116377355E+03  0.00000000000E+00 0.  1.
         12    1    3    3    0    0 -0.69830566535E+02  0.37949579780E+02 -0.13424823498E+03  0.15600983054E+03  0.00000000000E+00 0. -1.
        -11    1    4    4    0    0 -0.92358477830E+01 -0.13927890829E+03 -0.40192108799E+02  0.14525605250E+03  0.00000000000E+00 0. -1.
         11    1    4    4    0    0  0.72155087274E+02 -0.83473140332E+02 -0.28467646432E+02  0.11394967604E+03  0.00000000000E+00 0.  1.
          1    1    1    2  501    0  0.54084972026E+02  0.65574057882E+02  0.52946639662E+01  0.85165572461E+02  0.00000000000E+00 0. -1.
<scales pt_clust_5="13000.00000" pt_clust_6="13000.00000" pt_clust_7="13000.00000" pt_clust_8="13000.00000" pt_clust_9="85.00083"></scales>
<clustering>
<clus scale="   80.784">  5  6 -1 -1</clus>
<clus scale="   85.001">  1  9  2 -1</clus>
<clus scale="   94.319">  7  8 -1 -1</clus>
<clus scale="  218.502">  2  5  1 -1</clus>
<clus scale="   85.001">  1  5  2 -1</clus>
</clustering>
</event>
<event>
 9    2  0.9254368E-005  0.1702535E+03  0.7546771E-02  0.1179288E+00
         21   -1    0    0  501  502  0.00000000000E+00  0.00000000000E+00  0.56908747201E+03  0.56908747201E+03  0.00000000000E+00 0.  1.
          2   -1    0    0  502    0 -0.00000000000E+00 -0.00000000000E+00 -0.11852804349E+03  0.11852804349E+03  0.00000000000E+00 0. -1.
         23    2    1    2    0    0 -0.12214872634E+03  0.38248230638E+02  0.11931302113E+03  0.19703930979E+03  0.90585065526E+02 0.  0.
         24    2    1    2    0    0  0.19004682010E+03  0.11874634995E+02  0.34826081834E+03  0.40448356389E+03  0.77862411242E+02 0.  0.
        -13    1    4    4    0    0  0.16537964990E+03  0.17017166762E+02  0.33911822593E+03  0.37767867788E+03  0.00000000000E+00 0.  1.
         14    1    4    4    0    0  0.24667170194E+02 -0.51425317667E+01  0.91425924119E+01  0.26804886017E+02  0.00000000000E+00 0. -1.
        -11    1    3    3    0    0 -0.60757174370E+02  0.64189622718E+02  0.82479284471E+02  0.12089075345E+03  0.00000000000E+00 0. -1.
         11    1    3    3    0    0 -0.61391551971E+02 -0.25941392080E+02  0.36833736662E+02  0.76148556342E+02  0.00000000000E+00 0.  1.
          1    1    1    2  501    0 -0.67898093755E+02 -0.50122865633E+02 -0.17014410959E+02  0.86092641817E+02  0.00000000000E+00 0. -1.
<scales pt_clust_5="13000.00000" pt_clust_6="13000.00000" pt_clust_7="13000.00000" pt_clust_8="13000.00000" pt_clust_9="84.39467"></scales>
<clustering>
<clus scale="   77.862">  5  6 -1 -1</clus>
<clus scale="   84.395">  1  9  2 -1</clus>
<clus scale="   90.585">  7  8 -1 -1</clus>
<clus scale="  163.839">  1  5  2 -1</clus>
<clus scale="   84.395">  1  5  2 -1</clus>
</clustering>
</event>
<event>
 9    2  0.9254368E-005  0.1427575E+03  0.7546771E-02  0.1232944E+00
         21   -1    0    0  501  502  0.00000000000E+00  0.00000000000E+00  0.40485483350E+03  0.40485483350E+03  0.00000000000E+00 0. -1.
          2   -1    0    0  502    0 -0.00000000000E+00 -0.00000000000E+00 -0.77221940088E+02  0.77221940088E+02  0.00000000000E+00 0. -1.
         24    2    1    2    0    0 -0.51690972829E+02 -0.23552410736E+02  0.67965412465E+02  0.11091775315E+03  0.66759103859E+02 0.  0.
         23    2    1    2    0    0 -0.38997225458E+02  0.10283885789E+03  0.16827141789E+03  0.21995078537E+03  0.89255048145E+02 0.  0.
        -13    1    3    3    0    0 -0.24375891138E+02  0.18457462188E+02  0.48139877235E+02  0.57029025587E+02  0.00000000000E+00 0.  1.
         14    1    3    3    0    0 -0.27315081691E+02 -0.42009872924E+02  0.19825535230E+02  0.53888727560E+02  0.00000000000E+00 0. -1.
        -11    1    4    4    0    0 -0.25572404533E+02  0.50122083624E+02  0.15363769608E+03  0.16361758095E+03  0.00000000000E+00 0. -1.
         11    1    4    4    0    0 -0.13424820925E+02  0.52716774267E+02  0.14633721817E+02  0.56333204419E+02  0.00000000000E+00 0.  1.
          1    1    1    2  501    0  0.90688198287E+02 -0.79286447155E+02  0.91396063050E+02  0.15120823507E+03  0.00000000000E+00 0. -1.
<scales pt_clust_5="13000.00000" pt_clust_6="13000.00000" pt_clust_7="13000.00000" pt_clust_8="13000.00000" pt_clust_9="111.41472"></scales>
<clustering>
<clus scale="   66.759">  5  6 -1 -1</clus>
<clus scale="   87.655">  2  5  1 -1</clus>
<clus scale="   89.255">  7  8 -1 -1</clus>
<clus scale="  111.415">  1  9  2 -1</clus>
<clus scale="  111.415">  1  5  2 -1</clus>
</clustering>
</event>
<event>
 9    2  0.9254368E-005  0.1928280E+03  0.7546771E-02  0.1195004E+00
         -1   -1    0    0    0  501 -0.00000000000E+00  0.00000000000E+00  0.79525992330E+03  0.79525992330E+03  0.00000000000E+00 0.  1.
         21   -1    0    0  501  502  0.00000000000E+00 -0.00000000000E+00 -0.15635822200E+03  0.15635822200E+03  0.00000000000E+00 0.  1.
         24    2    1    2    0    0  0.58438309722E+02 -0.42639459845E+01  0.67446118586E+02  0.10429442078E+03  0.53806412388E+02 0.  0.
         23    2    1    2    0    0  0.98987768368E+02  0.76794175611E+02  0.64166722329E+03  0.66031228438E+03  0.92625934630E+02 0.  0.
        -11    1    3    3    0    0  0.79248121466E+01 -0.22393132374E+02  0.10278201079E+02  0.25882357746E+02  0.00000000000E+00 0.  1.
         12    1    3    3    0    0  0.50513497576E+02  0.18129186390E+02  0.57167917507E+02  0.78412063029E+02  0.00000000000E+00 0. -1.
        -13    1    4    4    0    0 -0.13580760033E+02  0.27352737429E+02  0.87681719448E+02  0.92847688250E+02  0.00000000000E+00 0. -1.
         13    1    4    4    0    0  0.11256852840E+03  0.49441438182E+02  0.55398550384E+03  0.56746459613E+03  0.00000000000E+00 0.  1.
         -2    1    1    2    0  502 -0.15742607809E+03 -0.72530229627E+02 -0.70211640572E+02  0.18701144014E+03  0.00000000000E+00 0.  1.
<scales pt_clust_5="13000.00000" pt_clust_6="13000.00000" pt_clust_7="13000.00000" pt_clust_8="13000.00000" pt_clust_9="169.12444"></scales>
<clustering>
<clus scale="   53.806">  5  6 -1 -1</clus>
<clus scale="   79.551">  1  5  2 -1</clus>
<clus scale="   92.626">  7  8 -1 -1</clus>
<clus scale="  169.124">  2  9  1 -1</clus>
<clus scale="  169.124">  2  5  1 -1</clus>
</clustering>
</event>
<event>
 9    2  0.9254368E-005  0.1315063E+03  0.7546771E-02  0.1240035E+00
         21   -1    0    0  501  502  0.00000000000E+00  0.00000000000E+00  0.67033463664E+02  0.67033463664E+02  0.00000000000E+00 0.  1.
          2   -1    0    0  502    0 -0.00000000000E+00 -0.00000000000E+00 -0.64531066428E+03  0.64531066428E+03  0.00000000000E+00 0. -1.
         23    2    1    2    0    0 -0.44108958344E+01  0.35664361581E+02 -0.23556366407E+03  0.25475766215E+03  0.90110065505E+02 0.  0.
         24    2    1    2    0    0  0.29687535809E+02  0.63858274579E+02 -0.34071492452E+02  0.13231185101E+03  0.10670674911E+03 0.  0.
        -13    1    4    4    0    0 -0.74925991100E+01  0.82090696665E+02 -0.37896202659E+02  0.90725650708E+02  0.00000000000E+00 0.  1.
         14    1    4    4    0    0  0.37180134919E+02 -0.18232422086E+02  0.38247102077E+01  0.41586200306E+02  0.00000000000E+00 0. -1.
        -11    1    3    3    0    0  0.31877351889E+02 -0.13155184027E+02 -0.10918807310E+03  0.11450440925E+03  0.00000000000E+00 0.  1.
         11    1    3    3    0    0 -0.36288247724E+02  0.48819545609E+02 -0.12637559097E+03  0.14025325290E+03  0.00000000000E+00 0. -1.
          1    1    1    2  501    0 -0.25276639975E+02 -0.99522636161E+02 -0.30864204409E+03  0.32527461478E+03  0.00000000000E+00 0. -1.
<scales pt_clust_5="13000.00000" pt_clust_6="13000.00000" pt_clust_7="13000.00000" pt_clust_8="13000.00000" pt_clust_9="76.86078"></scales>
<clustering>
<clus scale="   90.110">  7  8 -1 -1</clus>
<clus scale="   97.011">  2  7  1 -1</clus>
<clus scale="   76.861">  1  9  2 -1</clus>
<clus scale="  106.707">  5  6 -1 -1</clus>
<clus scale="   76.861">  1  5  2 -1</clus>
</clustering>
</event>
<event>
 9    2  0.9254368E-005  0.1011951E+03  0.7546771E-02  0.1282891E+00
          2   -1    0    0  502    0 -0.00000000000E+00  0.00000000000E+00  0.94603918507E+03  0.94603918507E+03  0.00000000000E+00 0. -1.
         21   -1    0    0  501  502  0.00000000000E+00 -0.00000000000E+00 -0.20415073069E+02  0.20415073069E+02  0.00000000000E+00 0. -1.
         24    2    1    2    0    0  0.19139040290E+02 -0.44215754214E+02  0.72466496872E+03  0.73057229534E+03  0.79216324344E+02 0.  0.
         23    2    1    2    0    0  0.31602022498E+01  0.43106218599E+02  0.17679100545E+03  0.20297928550E+03  0.89874344367E+02 0.  0.
        -13    1    3    3    0    0 -0.17932502496E+02 -0.23587186902E+02  0.95789016030E+02  0.10026697175E+03  0.00000000000E+00 0.  1.
         14    1    3    3    0    0  0.37071542786E+02 -0.20628567312E+02  0.62887595269E+03  0.63030532359E+03  0.00000000000E+00 0. -1.
        -11    1    4    4    0    0  0.38407506308E+02  0.35496708171E+02  0.54716849782E+02  0.75690729167E+02  0.00000000000E+00 0. -1.
         11    1    4    4    0    0 -0.35247304058E+02  0.76095104276E+01  0.12207415566E+03  0.12728855633E+03  0.00000000000E+00 0.  1.
          1    1    1    2  501    0 -0.22299242540E+02  0.11095356152E+01  0.24168137833E+02  0.32902677299E+02  0.00000000000E+00 0. -1.
<scales pt_clust_5="13000.00000" pt_clust_6="13000.00000" pt_clust_7="13000.00000" pt_clust_8="13000.00000" pt_clust_9="22.32683"></scales>
<clustering>
<clus scale="   22.327">  2  9  1 -1</clus>
<clus scale="   79.216">  5  6 -1 -1</clus>
<clus scale="   89.874">  7  8 -1 -1</clus>
<clus scale="   91.860">  1  5  2 -1</clus>
<clus scale="   22.327">  2  5  1 -1</clus>
</clustering>
</event>
<event>
 9    2  0.9254368E-005  0.1180236E+03  0.7546771E-02  0.1247694E+00
          2   -1    0    0  502    0 -0.00000000000E+00  0.00000000000E+00  0.40490740272E+03  0.40490740272E+03  0.00000000000E+00 0. -1.
         21   -1    0    0  501  502  0.00000000000E+00 -0.00000000000E+00 -0.22937157993E+03  0.22937157993E+03  0.00000000000E+00 0. -1.
         23    2    1    2    0    0 -0.48303215943E+02 -0.70726720825E+02  0.34599164494E+03  0.36541507024E+03  0.80513883802E+02 0.  0.
         24    2    1    2    0    0  0.68786727160E+02  0.63229031207E+02 -0.26559822596E+02  0.12332406127E+03  0.75986022996E+02 0.  0.
        -11    1    4    4    0    0  0.37154204829E+02  0.74050961851E+02 -0.33173262996E+02  0.89243740763E+02  0.00000000000E+00 0.  1.
         12    1    4    4    0    0  0.31632522331E+02 -0.10821930644E+02  0.66134404001E+01  0.34080320506E+02  0.00000000000E+00 0. -1.
        -13    1    3    3    0    0 -0.69936556207E+02 -0.46469630592E+02  0.27025441163E+03  0.28299822520E+03  0.00000000000E+00 0. -1.
         13    1    3    3    0    0  0.21633340264E+02 -0.24257090233E+02  0.75737233306E+02  0.82416845040E+02  0.00000000000E+00 0.  1.
          1    1    1    2  501    0 -0.20483511217E+02  0.74976896181E+01 -0.14389599955E+03  0.14553985113E+03  0.00000000000E+00 0. -1.
<scales pt_clust_5="13000.00000" pt_clust_6="13000.00000" pt_clust_7="13000.00000" pt_clust_8="13000.00000" pt_clust_9="21.81260"></scales>
<clustering>
<clus scale="   21.813">  2  9  1 -1</clus>
<clus scale="   75.986">  5  6 -1 -1</clus>
<clus scale="   80.514">  7  8 -1 -1</clus>
<clus scale="  114.982">  2  5  1 -1</clus>
<clus scale="   21.813">  2  5  1 -1</clus>
</clustering>
</event>
<event>
 9    2  0.9254368E-005  0.1222964E+03  0.7546771E-02  0.1243279E+00
         21   -1    0    0  501  502  0.00000000000E+00  0.00000000000E+00  0.13144846550E+03  0.13144846550E+03  0.00000000000E+00 0. -1.
          2   -1    0    0  502    0 -0.00000000000E+00 -0.00000000000E+00 -0.65551563099E+03  0.65551563099E+03  0.00000000000E+00 0. -1.
         24    2    1    2    0    0 -0.94293949194E+02  0.15404974491E+02 -0.54622150847E+03  0.56001462870E+03  0.78292949583E+02 0.  0.
         23    2    1    2    0    0  0.25163706945E+02  0.30568932918E+02 -0.54949548237E+02  0.11364633192E+03  0.91259871246E+02 0.  0.
        -13    1    3    3    0    0 -0.78667033480E+02 -0.93483176474E+01 -0.24766936578E+03  0.26003078269E+03  0.00000000000E+00 0.  1.
         14    1    3    3    0    0 -0.15626915714E+02  0.24753292138E+02 -0.29855214269E+03  0.29998384602E+03  0.00000000000E+00 0. -1.
        -11    1    4    4    0    0  0.35373837942E+02 -0.23932712490E+02 -0.14853394303E+02  0.45218430536E+02  0.00000000000E+00 0.  1.
         11    1    4    4    0    0 -0.10210130996E+02  0.54501645408E+02 -0.40096153935E+02  0.68427901381E+02  0.00000000000E+00 0. -1.
          1    1    1    2  501    0  0.69130242249E+02 -0.45973907409E+02  0.77103891222E+02  0.11330313587E+03  0.00000000000E+00 0. -1.
<scales pt_clust_5="13000.00000" pt_clust_6="13000.00000" pt_clust_7="13000.00000" pt_clust_8="13000.00000" pt_clust_9="83.02163"></scales>
<clustering>
<clus scale="   78.293">  5  6 -1 -1</clus>
<clus scale="   83.022">  1  9  2 -1</clus>
<clus scale="   91.260">  7  8 -1 -1</clus>
<clus scale="  112.951">  2  5  1 -1</clus>
<clus scale="   83.022">  1  5  2 -1</clus>
</clustering>
</event>
<event>
 9    2  0.9254368E-005  0.1994405E+03  0.7546771E-02  0.1185664E+00
          2   -1    0    0  502    0 -0.00000000000E+00  0.00000000000E+00  0.58936274207E+03  0.58936274207E+03  0.00000000000E+00 0. -1.
         21   -1    0    0  501  502  0.00000000000E+00 -0.00000000000E+00 -0.20478288125E+03  0.20478288125E+03  0.00000000000E+00 0. -1.
         24    2    1    2    0    0  0.32706479410E+02 -0.20076847855E+02  0.16891859150E+03  0.19063524341E+03  0.79595928670E+02 0.  0.
         23    2    1    2    0    0  0.14411445551E+03 -0.24999660937E+02  0.34129304293E+03  0.38196833601E+03  0.89581857673E+02 0.  0.
        -11    1    3    3    0    0  0.21270889623E+02  0.11137670763E+02  0.65350695312E+01  0.24883841929E+02  0.00000000000E+00 0.  1.
         12    1    3    3    0    0  0.11435589787E+02 -0.31214518618E+02  0.16238352197E+03  0.16575140148E+03  0.00000000000E+00 0. -1.
        -11    1    4    4    0    0  0.93798209749E+02  0.14944127909E+02  0.12918056334E+03  0.16034041616E+03  0.00000000000E+00 0. -1.
         11    1    4    4    0    0  0.50316245764E+02 -0.39943788845E+02  0.21211247960E+03  0.22162791985E+03  0.00000000000E+00 0.  1.
          1    1    1    2  501    0 -0.17682093492E+03  0.45076508792E+02 -0.12563177362E+03  0.22154204390E+03  0.00000000000E+00 0. -1.
<scales pt_clust_5="13000.00000" pt_clust_6="13000.00000" pt_clust_7="13000.00000" pt_clust_8="13000.00000" pt_clust_9="178.18976"></scales>
<clustering>
<clus scale="   79.596">  5  6 -1 -1</clus>
<clus scale="   88.365">  1  5  2 -1</clus>
<clus scale="   89.582">  7  8 -1 -1</clus>
<clus scale="  178.190">  2  9  1 -1</clus>
<clus scale="  178.190">  2  5  1 -1</clus>
</clustering>
</event>
<event>
 9    2  0.9254368E-005  0.7016476E+03  0.7546771E-02  0.9714419E-01
          2   -1    0    0  502    0 -0.00000000000E+00  0.00000000000E+00  0.18295959779E+04  0.18295959779E+04  0.00000000000E+00 0. -1.
         21   -1    0    0  501  502  0.00000000000E+00 -0.00000000000E+00 -0.30291301297E+03  0.30291301297E+03  0.00000000000E+00 0.  1.
         24    2    1    2    0    0  0.36500081168E+03  0.11451999062E+03  0.53699283791E+03  0.66363850033E+03  0.75593190045E+02 0.  0.
         23    2    1    2    0    0  0.20316962886E+03  0.18657524033E+03  0.71096102607E+03  0.76803820010E+03  0.91262685809E+02 0.  0.
        -11    1    3    3    0    0  0.35938723907E+03  0.11885069221E+03  0.53641440392E+03  0.65652500895E+03  0.00000000000E+00 0.  1.
         12    1    3    3    0    0  0.56135726150E+01 -0.43307015961E+01  0.57843399080E+00  0.71134913861E+01  0.00000000000E+00 0. -1.
        -13    1    4    4    0    0  0.11520617583E+03  0.13845440763E+03  0.35295432080E+03  0.39625602647E+03  0.00000000000E+00 0.  1.
         13    1    4    4    0    0  0.87963453028E+02  0.48120832703E+02  0.35800670528E+03  0.37178217364E+03  0.00000000000E+00 0. -1.
          1    1    1    2  501    0 -0.56817044054E+03 -0.30109523095E+03  0.27872910096E+03  0.70083229044E+03  0.00000000000E+00 0. -1.
<scales pt_clust_5="13000.00000" pt_clust_6="13000.00000" pt_clust_7="13000.00000" pt_clust_8="13000.00000" pt_clust_9="643.02099"></scales>
<clustering>
<clus scale="   75.593">  5  6 -1 -1</clus>
<clus scale="   91.263">  7  8 -1 -1</clus>
<clus scale="  211.504">  5  7 -1 -1</clus>
<clus scale="  643.021">  2  9  1 -1</clus>
<clus scale="  643.021">  2  5  1 -1</clus>
</clustering>
</event>
<event>
 9    2  0.9254368E-005  0.1031821E+03  0.7546771E-02  0.1280577E+00
          2   -1    0    0  502    0 -0.00000000000E+00  0.00000000000E+00  0.23006918793E+03  0.23006918793E+03  0.00000000000E+00 0. -1.
         21   -1    0    0  501  502  0.00000000000E+00 -0.00000000000E+00 -0.11908108775E+03  0.11908108775E+03  0.00000000000E+00 0.  1.
         24    2    1    2    0    0 -0.94554820867E+00 -0.42984972690E+02  0.17298569909E+03  0.19505722420E+03  0.79212793673E+02 0.  0.
         23    2    1    2    0    0  0.21881355616E+02  0.50805634166E+02 -0.71315974958E+02  0.12987935888E+03  0.93395253582E+02 0.  0.
        -11    1    3    3    0    0  0.26868681900E+02 -0.66483851591E+01  0.16965114799E+02  0.32464476161E+02  0.00000000000E+00 0.  1.
         12    1    3    3    0    0 -0.27814230109E+02 -0.36336587531E+02  0.15602058429E+03  0.16259274803E+03  0.00000000000E+00 0. -1.
        -13    1    4    4    0    0 -0.32195904024E+02  0.89124314156E+01 -0.35578185878E+01  0.33595620887E+02  0.00000000000E+00 0. -1.
         13    1    4    4    0    0  0.54077259640E+02  0.41893202751E+02 -0.67758156370E+02  0.96283737991E+02  0.00000000000E+00 0.  1.
          1    1    1    2  501    0 -0.20935807407E+02 -0.78206614758E+01  0.93183760430E+01  0.24213692610E+02  0.00000000000E+00 0. -1.
<scales pt_clust_5="13000.00000" pt_clust_6="13000.00000" pt_clust_7="13000.00000" pt_clust_8="13000.00000" pt_clust_9="22.34885"></scales>
<clustering>
<clus scale="   22.349">  2  9  1 -1</clus>
<clus scale="   79.213">  5  6 -1 -1</clus>
<clus scale="   90.546">  1  5  2 -1</clus>
<clus scale="   93.395">  7  8 -1 -1</clus>
<clus scale="   22.349">  2  5  1 -1</clus>
</clustering>
</event>
<event>
 9    2  0.9254368E-005  0.1106663E+03  0.7546771E-02  0.1262805E+00
          4   -1    0    0  502    0 -0.00000000000E+00  0.00000000000E+00  0.45647470977E+03  0.45647470977E+03  0.00000000000E+00 0. -1.
         21   -1    0    0  501  502  0.00000000000E+00 -0.00000000000E+00 -0.97296459206E+02  0.97296459206E+02  0.00000000000E+00 0. -1.
         23    2    1    2    0    0  0.48311177429E+01  0.76699968110E+02  0.38674596150E+03  0.40420917943E+03  0.88917923928E+02 0.  0.
         24    2    1    2    0    0  0.55965123906E+01 -0.15473190080E+02  0.59217889708E+00  0.81367904661E+02  0.79684657688E+02 0.  0.
        -13    1    4    4    0    0 -0.18298340975E+02  0.25843623686E+02  0.89646299069E+01  0.32910283454E+02  0.00000000000E+00 0.  1.
         14    1    4    4    0    0  0.23894853365E+02 -0.41316813766E+02 -0.83724510099E+01  0.48457621207E+02  0.00000000000E+00 0. -1.
        -13    1    3    3    0    0 -0.31404454709E+02  0.40938250928E+02  0.29321416347E+03  0.29771920634E+03  0.00000000000E+00 0. -1.
         13    1    3    3    0    0  0.36235572452E+02  0.35761717182E+02  0.93531798027E+02  0.10648997309E+03  0.00000000000E+00 0.  1.
          3    1    1    2  501    0 -0.10427630133E+02 -0.61226778030E+02 -0.28159889828E+02  0.68194084885E+02  0.00000000000E+00 0. -1.
<scales pt_clust_5="13000.00000" pt_clust_6="13000.00000" pt_clust_7="13000.00000" pt_clust_8="13000.00000" pt_clust_9="62.10840"></scales>
<clustering>
<clus scale="   62.108">  2  9  1 -1</clus>
<clus scale="   79.685">  5  6 -1 -1</clus>
<clus scale="   88.918">  7  8 -1 -1</clus>
<clus scale="  103.394">  2  5  1 -1</clus>
<clus scale="   62.108">  2  5  1 -1</clus>
</clustering>
</event>
<event>
 9    2  0.9254368E-005  0.1073177E+03  0.7546771E-02  0.1271550E+00
          2   -1    0    0  502    0 -0.00000000000E+00  0.00000000000E+00  0.22951293880E+03  0.22951293880E+03  0.00000000000E+00 0. -1.
         21   -1    0    0  501  502  0.00000000000E+00 -0.00000000000E+00 -0.88063865285E+02  0.88063865285E+02  0.00000000000E+00 0. -1.
         24    2    1    2    0    0 -0.43484649982E+02  0.13985352758E+02  0.99836779299E+02  0.13474988189E+03  0.78125817062E+02 0.  0.
         23    2    1    2    0    0  0.88581759794E+02 -0.43189344068E+01  0.12803331661E+02  0.12844728189E+03  0.92029329887E+02 0.  0.
        -13    1    3    3    0    0  0.11800376947E+02  0.19458834782E+02  0.65735527255E+02  0.69563314258E+02  0.00000000000E+00 0.  1.
         14    1    3    3    0    0 -0.55285026929E+02 -0.54734820248E+01  0.34101252045E+02  0.65186567628E+02  0.00000000000E+00 0. -1.
        -13    1    4    4    0    0 -0.13200022302E+02  0.16337069496E+02 -0.80942371811E+01  0.22509044939E+02  0.00000000000E+00 0.  1.
         13    1    4    4    0    0  0.10178178210E+03 -0.20656003903E+02  0.20897568842E+02  0.10593823695E+03  0.00000000000E+00 0. -1.
          1    1    1    2  501    0 -0.45097109811E+02 -0.96664183508E+01  0.28808962553E+02  0.54379640312E+02  0.00000000000E+00 0. -1.
<scales pt_clust_5="13000.00000" pt_clust_6="13000.00000" pt_clust_7="13000.00000" pt_clust_8="13000.00000" pt_clust_9="46.12148"></scales>
<clustering>
<clus scale="   46.121">  2  9  1 -1</clus>
<clus scale="   78.126">  5  6 -1 -1</clus>
<clus scale="   92.029">  7  8 -1 -1</clus>
<clus scale="   95.663">  1  5  2 -1</clus>
<clus scale="   46.121">  2  5  1 -1</clus>
</clustering>
</event>
<event>
 9    2  0.9254368E-005  0.9999615E+02  0.7546771E-02  0.1286267E+00
         -1   -1    0    0    0  501 -0.00000000000E+00  0.00000000000E+00  0.13275821427E+03  0.13275821427E+03  0.00000000000E+00 0.  1.
         21   -1    0    0  501  502  0.00000000000E+00 -0.00000000000E+00 -0.30680767921E+03  0.30680767921E+03  0.00000000000E+00 0.  1.
         24    2    1    2    0    0 -0.91489819845E+01 -0.36358648803E+02  0.35698560685E+02  0.95833589739E+02  0.80647594342E+02 0.  0.
         23    2    1    2    0    0 -0.58845622896E+02  0.55082133491E+02 -0.23804273193E+03  0.26774266250E+03  0.92330614271E+02 0.  0.
        -11    1    3    3    0    0  0.17739780784E+02 -0.36807463549E+02 -0.10671156613E+02  0.42229880164E+02  0.00000000000E+00 0.  1.
         12    1    3    3    0    0 -0.26888762769E+02  0.44881474656E+00  0.46369717298E+02  0.53603709575E+02  0.00000000000E+00 0. -1.
        -13    1    4    4    0    0  0.18540606468E+02  0.33489592955E+02 -0.11112105296E+03  0.11752955090E+03  0.00000000000E+00 0.  1.
         13    1    4    4    0    0 -0.77386229363E+02  0.21592540537E+02 -0.12692167897E+03  0.15021311160E+03  0.00000000000E+00 0. -1.
         -2    1    1    2    0  502  0.67994604880E+02 -0.18723484689E+02  0.28294706312E+02  0.75989641248E+02  0.00000000000E+00 0.  1.
<scales pt_clust_5="13000.00000" pt_clust_6="13000.00000" pt_clust_7="13000.00000" pt_clust_8="13000.00000" pt_clust_9="70.52546"></scales>
<clustering>
<clus scale="   70.525">  2  9  1 -1</clus>
<clus scale="   80.648">  5  6 -1 -1</clus>
<clus scale="   89.321">  1  5  2 -1</clus>
<clus scale="   92.331">  7  8 -1 -1</clus>
<clus scale="   70.525">  2  5  1 -1</clus>
</clustering>
</event>
<event>
 9    2  0.9254368E-005  0.1282627E+03  0.7546771E-02  0.1232056E+00
         21   -1    0    0  501  502  0.00000000000E+00  0.00000000000E+00  0.58082809564E+03  0.58082809564E+03  0.00000000000E+00 0.  1.
         -3   -1    0    0    0  501 -0.00000000000E+00 -0.00000000000E+00 -0.58365028030E+02  0.58365028030E+02  0.00000000000E+00 0.  1.
         23    2    1    2    0    0  0.11885291009E+03 -0.10297217686E+02  0.84088136901E+02  0.17033164402E+03  0.87806646996E+02 0.  0.
         24    2    1    2    0    0 -0.47455183327E+02  0.50859346592E+01  0.21605406000E+03  0.23529914876E+03  0.80052928805E+02 0.  0.
        -13    1    4    4    0    0 -0.24022776331E+02 -0.36726611028E+02  0.12358947697E+03  0.13114990109E+03  0.00000000000E+00 0.  1.
         14    1    4    4    0    0 -0.23432406996E+02  0.41812545687E+02  0.92464583034E+02  0.10414924767E+03  0.00000000000E+00 0. -1.
        -11    1    3    3    0    0  0.84255020387E+02  0.33030830673E+01  0.99207502875E+02  0.13019964456E+03  0.00000000000E+00 0.  1.
         11    1    3    3    0    0  0.34597889705E+02 -0.13600300753E+02 -0.15119365973E+02  0.40131999452E+02  0.00000000000E+00 0. -1.
         -4    1    1    2    0  502 -0.71397726765E+02  0.52112830263E+01  0.22232087071E+03  0.23356233089E+03  0.00000000000E+00 0.  1.
<scales pt_clust_5="13000.00000" pt_clust_6="13000.00000" pt_clust_7="13000.00000" pt_clust_8="13000.00000" pt_clust_9="71.58766"></scales>
<clustering>
<clus scale="   71.588">  1  9  2 -1</clus>
<clus scale="   80.053">  5  6 -1 -1</clus>
<clus scale="   87.807">  7  8 -1 -1</clus>
<clus scale="  123.084">  1  5  2 -1</clus>
<clus scale="   71.588">  1  5  2 -1</clus>
</clustering>
</event>
<event>
 9    2  0.9254368E-005  0.9500292E+02  0.7546771E-02  0.1297344E+00
          2   -1    0    0  502    0 -0.00000000000E+00  0.00000000000E+00  0.66332082395E+02  0.66332082395E+02  0.00000000000E+00 0. -1.
         21   -1    0    0  501  502  0.00000000000E+00 -0.00000000000E+00 -0.21044513199E+03  0.21044513199E+03  0.00000000000E+00 0. -1.
         24    2    1    2    0    0 -0.24143836903E+02  0.18658060638E+02  0.28905342147E+01  0.85944719525E+02  0.80293782692E+02 0.  0.
         23    2    1    2    0    0  0.19976680891E+00 -0.21029575791E+02 -0.13424911935E+03  0.16359981338E+03  0.91103182868E+02 0.  0.
        -13    1    3    3    0    0  0.17885253525E+02  0.27053040402E+02  0.21823542062E+02  0.39089848769E+02  0.00000000000E+00 0.  1.
         14    1    3    3    0    0 -0.42029090427E+02 -0.83949797639E+01 -0.18933007848E+02  0.46854870756E+02  0.00000000000E+00 0. -1.
        -11    1    4    4    0    0 -0.42063584494E+02  0.71989043986E+01 -0.61069818619E+02  0.74502967130E+02  0.00000000000E+00 0. -1.
         11    1    4    4    0    0  0.42263351303E+02 -0.28228480190E+02 -0.73179300731E+02  0.89096846255E+02  0.00000000000E+00 0.  1.
          1    1    1    2  501    0  0.23944070094E+02  0.23715151534E+01 -0.12754464462E+02  0.27232681478E+02  0.00000000000E+00 0. -1.
<scales pt_clust_5="13000.00000" pt_clust_6="13000.00000" pt_clust_7="13000.00000" pt_clust_8="13000.00000" pt_clust_9="24.06124"></scales>
<clustering>
<clus scale="   24.061">  2  9  1 -1</clus>
<clus scale="   80.294">  5  6 -1 -1</clus>
<clus scale="   84.693">  1  5  2 -1</clus>
<clus scale="   91.103">  7  8 -1 -1</clus>
<clus scale="   24.061">  2  5  1 -1</clus>
</clustering>
</event>
<event>
 9    2  0.9254368E-005  0.1589419E+03  0.7546771E-02  0.1191299E+00
         21   -1    0    0  501  502  0.00000000000E+00  0.00000000000E+00  0.15822369044E+03  0.15822369044E+03  0.00000000000E+00 0. -1.
          2   -1    0    0  502    0 -0.00000000000E+00 -0.00000000000E+00 -0.87539721515E+03  0.87539721515E+03  0.00000000000E+00 0. -1.
         23    2    1    2    0    0 -0.29801941332E+02  0.13201691901E+03 -0.63901019711E+03  0.65946083860E+03  0.90763114921E+02 0.  0.
         24    2    1    2    0    0  0.75442034907E+02 -0.49021856021E+02  0.10964232598E+03  0.16382185805E+03  0.81984867683E+02 0.  0.
        -13    1    4    4    0    0 -0.10384132090E+02 -0.31485165789E+02  0.39719543470E+02  0.51737684501E+02  0.00000000000E+00 0.  1.
         14    1    4    4    0    0  0.85826166997E+02 -0.17536690232E+02  0.69922782511E+02  0.11208417355E+03  0.00000000000E+00 0. -1.
        -13    1    3    3    0    0 -0.47030030066E+02  0.25053167016E+02 -0.17291831193E+03  0.18094260832E+03  0.00000000000E+00 0.  1.
         13    1    3    3    0    0  0.17228088733E+02  0.10696375200E+03 -0.46609188518E+03  0.47851823029E+03  0.00000000000E+00 0. -1.
          1    1    1    2  501    0 -0.45640093574E+02 -0.82995062993E+02 -0.18780565358E+03  0.21033820894E+03  0.00000000000E+00 0. -1.
<scales pt_clust_5="13000.00000" pt_clust_6="13000.00000" pt_clust_7="13000.00000" pt_clust_8="13000.00000" pt_clust_9="94.71646"></scales>
<clustering>
<clus scale="   81.985">  5  6 -1 -1</clus>
<clus scale="   90.763">  7  8 -1 -1</clus>
<clus scale="   94.716">  1  9  2 -1</clus>
<clus scale="  154.098">  1  5  2 -1</clus>
<clus scale="   94.716">  1  5  2 -1</clus>
</clustering>
</event>
<event>
 9    2  0.9254368E-005  0.1787794E+03  0.7546771E-02  0.1169935E+00
         21   -1    0    0  501  502  0.00000000000E+00  0.00000000000E+00  0.36644942204E+02  0.36644942204E+02  0.00000000000E+00 0. -1.
          2   -1    0    0  502    0 -0.00000000000E+00 -0.00000000000E+00 -0.14724399042E+04  0.14724399042E+04  0.00000000000E+00 0. -1.
         24    2    1    2    0    0  0.11871189952E+03 -0.12116888246E+03 -0.82533645112E+03  0.84643541915E+03  0.80611711877E+02 0.  0.
         23    2    1    2    0    0 -0.60702499528E+02  0.11084698023E+03 -0.22585185463E+03  0.27355572108E+03  0.88610528830E+02 0.  0.
        -13    1    3    3    0    0  0.32370454877E+02 -0.16277743073E+01 -0.74336562472E+02  0.81095132520E+02  0.00000000000E+00 0.  1.
         14    1    3    3    0    0  0.86341444642E+02 -0.11954110816E+03 -0.75099988864E+03  0.76534028663E+03  0.00000000000E+00 0. -1.
        -11    1    4    4    0    0 -0.29633787905E+02  0.66808229871E+00 -0.95885144252E+02  0.10036218714E+03  0.00000000000E+00 0.  1.
         11    1    4    4    0    0 -0.31068711623E+02  0.11017889793E+03 -0.12996671038E+03  0.17319353393E+03  0.00000000000E+00 0. -1.
          1    1    1    2  501    0 -0.58009399992E+02  0.10321902239E+02 -0.38460665627E+03  0.38909370619E+03  0.00000000000E+00 0. -1.
<scales pt_clust_5="13000.00000" pt_clust_6="13000.00000" pt_clust_7="13000.00000" pt_clust_8="13000.00000" pt_clust_9="58.92059"></scales>
<clustering>
<clus scale="   58.921">  1  9  2 -1</clus>
<clus scale="   80.612">  5  6 -1 -1</clus>
<clus scale="   88.611">  7  8 -1 -1</clus>
<clus scale="  174.953">  2  5  1 -1</clus>
<clus scale="   58.921">  1  5  2 -1</clus>
</clustering>
</event>
<event>
 9    2  0.9254368E-005  0.9825190E+02  0.7546771E-02  0.1289434E+00
         21   -1    0    0  501  502  0.00000000000E+00  0.00000000000E+00  0.40820834321E+03  0.40820834321E+03  0.00000000000E+00 0. -1.
         -1   -1    0    0    0  501 -0.00000000000E+00 -0.00000000000E+00 -0.51595827373E+02  0.51595827373E+02  0.00000000000E+00 0.  1.
         23    2    1    2    0    0 -0.26356991760E+02  0.15899750257E+02  0.13212378025E+03  0.16403827993E+03  0.92219146071E+02 0.  0.
         24    2    1    2    0    0  0.46161089899E+02  0.22535233973E+02  0.23246769230E+03  0.25179869759E+03  0.81991909077E+02 0.  0.
        -13    1    4    4    0    0  0.22409515913E+02 -0.29170327537E+02  0.62060911349E+02  0.72143268081E+02  0.00000000000E+00 0.  1.
         14    1    4    4    0    0  0.23751573986E+02  0.51705561510E+02  0.17040678095E+03  0.17965542951E+03  0.00000000000E+00 0. -1.
        -11    1    3    3    0    0  0.41955332007E+00  0.40584656594E+02  0.18284273531E+02  0.44515222502E+02  0.00000000000E+00 0.  1.
         11    1    3    3    0    0 -0.26776545080E+02 -0.24684906336E+02  0.11383950672E+03  0.11952305743E+03  0.00000000000E+00 0. -1.
         -2    1    1    2    0  502 -0.19804098139E+02 -0.38434984230E+02 -0.79789567097E+01  0.43967193065E+02  0.00000000000E+00 0.  1.
<scales pt_clust_5="13000.00000" pt_clust_6="13000.00000" pt_clust_7="13000.00000" pt_clust_8="13000.00000" pt_clust_9="43.23716"></scales>
<clustering>
<clus scale="   43.237">  1  9  2 -1</clus>
<clus scale="   81.992">  5  6 -1 -1</clus>
<clus scale="   88.723">  1  5  2 -1</clus>
<clus scale="   92.219">  7  8 -1 -1</clus>
<clus scale="   43.237">  1  5  2 -1</clus>
</clustering>
</event>
<event>
 9    2  0.9254368E-005  0.1482053E+03  0.7546771E-02  0.1206219E+00
         21   -1    0    0  501  502  0.00000000000E+00  0.00000000000E+00  0.58233894493E+02  0.58233894493E+02  0.00000000000E+00 0.  1.
          2   -1    0    0  502    0 -0.00000000000E+00 -0.00000000000E+00 -0.77003587951E+03  0.77003587951E+03  0.00000000000E+00 0. -1.
         24    2    1    2    0    0 -0.12862309131E+03 -0.48471313286E+01 -0.28000834601E+03  0.31849016099E+03  0.80398473334E+02 0.  0.
         23    2    1    2    0    0  0.74881608471E+02  0.43399933491E+02 -0.82893035595E+02  0.15466541083E+03  0.97771797784E+02 0.  0.
        -11    1    3    3    0    0 -0.12042364289E+03  0.20289088339E+02 -0.20116182517E+03  0.23532866544E+03  0.00000000000E+00 0.  1.
         12    1    3    3    0    0 -0.81994484109E+01 -0.25136219667E+02 -0.78846520836E+02  0.83161495545E+02  0.00000000000E+00 0. -1.
        -11    1    4    4    0    0 -0.34317644415E+00  0.41958316296E+02 -0.64936974245E+02  0.77313832530E+02  0.00000000000E+00 0. -1.
         11    1    4    4    0    0  0.75224784916E+02  0.14416171944E+01 -0.17956061350E+02  0.77351578296E+02  0.00000000000E+00 0.  1.
          1    1    1    2  501    0  0.53741482834E+02 -0.38552802162E+02 -0.34890060342E+03  0.35511420219E+03  0.00000000000E+00 0. -1.
<scales pt_clust_5="13000.00000" pt_clust_6="13000.00000" pt_clust_7="13000.00000" pt_clust_8="13000.00000" pt_clust_9="66.13978"></scales>
<clustering>
<clus scale="   66.140">  1  9  2 -1</clus>
<clus scale="   80.398">  5  6 -1 -1</clus>
<clus scale="   97.772">  7  8 -1 -1</clus>
<clus scale="  137.366">  2  5  1 -1</clus>
<clus scale="   66.140">  1  5  2 -1</clus>
</clustering>
</event>
<event>
 9    2  0.9254368E-005  0.1492908E+03  0.7546771E-02  0.1222910E+00
          2   -1    0    0  502    0 -0.00000000000E+00  0.00000000000E+00  0.90978081077E+03  0.90978081077E+03  0.00000000000E+00 0. -1.
         21   -1    0    0  501  502  0.00000000000E+00 -0.00000000000E+00 -0.71573269082E+02  0.71573269082E+02  0.00000000000E+00 0. -1.
         23    2    1    2    0    0 -0.71509467158E+01 -0.11953864132E+02  0.51279788184E+02  0.10738989328E+03  0.93321710209E+02 0.  0.
         24    2    1    2    0    0 -0.11612980860E+03  0.30077034591E+02  0.71568786867E+03  0.73043121082E+03  0.83245828219E+02 0.  0.
        -11    1    4    4    0    0 -0.25438611428E+02  0.11370008631E+02  0.41957903976E+02  0.50367308383E+02  0.00000000000E+00 0.  1.
         12    1    4    4    0    0 -0.90691197170E+02  0.18707025960E+02  0.67372996470E+03  0.68006390243E+03  0.00000000000E+00 0. -1.
        -13    1    3    3    0    0 -0.25636525118E+02  0.17762082682E+02 -0.13324549734E+02  0.33915580888E+02  0.00000000000E+00 0. -1.
         13    1    3    3    0    0  0.18485578403E+02 -0.29715946815E+02  0.64604337918E+02  0.73474312394E+02  0.00000000000E+00 0.  1.
          1    1    1    2  501    0  0.12328075531E+03 -0.18123170459E+02  0.71239884835E+02  0.14353297576E+03  0.00000000000E+00 0. -1.
<scales pt_clust_5="13000.00000" pt_clust_6="13000.00000" pt_clust_7="13000.00000" pt_clust_8="13000.00000" pt_clust_9="123.92688"></scales>
<clustering>
<clus scale="   83.246">  5  6 -1 -1</clus>
<clus scale="   93.322">  7  8 -1 -1</clus>
<clus scale="   94.356">  1  7  2 -1</clus>
<clus scale="  123.927">  2  9  1 -1</clus>
<clus scale="  123.927">  2  5  1 -1</clus>
</clustering>
</event>
<event>
 9    2  0.9254368E-005  0.1574335E+03  0.7546771E-02  0.1221122E+00
         -1   -1    0    0    0  501 -0.00000000000E+00  0.00000000000E+00  0.26716844177E+03  0.26716844177E+03  0.00000000000E+00 0.  1.
         21   -1    0    0  501  502  0.00000000000E+00 -0.00000000000E+00 -0.14161300024E+03  0.14161300024E+03  0.00000000000E+00 0.  1.
         24    2    1    2    0    0 -0.23425029067E+02 -0.41733146884E+00  0.65050483821E+02  0.10586975355E+03  0.80174391921E+02 0.  0.
         23    2    1    2    0    0  0.12334004322E+03  0.59889450980E+02 -0.13220303634E+02  0.16523323257E+03  0.91256408644E+02 0.  0.
        -13    1    3    3    0    0 -0.31183503889E+02  0.28744128216E+02  0.10755844947E+02  0.43752988723E+02  0.00000000000E+00 0.  1.
         14    1    3    3    0    0  0.77584748223E+01 -0.29161459685E+02  0.54294638874E+02  0.62116764830E+02  0.00000000000E+00 0. -1.
        -11    1    4    4    0    0  0.11077523732E+03  0.24448927451E+02 -0.38644438423E+02  0.11984279652E+03  0.00000000000E+00 0.  1.
         11    1    4    4    0    0  0.12564805899E+02  0.35440523529E+02  0.25424134788E+02  0.45390436053E+02  0.00000000000E+00 0. -1.
         -2    1    1    2    0  502 -0.99915014154E+02 -0.59472119512E+02  0.73725261345E+02  0.13767845588E+03  0.00000000000E+00 0.  1.
<scales pt_clust_5="13000.00000" pt_clust_6="13000.00000" pt_clust_7="13000.00000" pt_clust_8="13000.00000" pt_clust_9="128.28712"></scales>
<clustering>
<clus scale="   80.174">  5  6 -1 -1</clus>
<clus scale="   83.527">  1  5  2 -1</clus>
<clus scale="   91.256">  7  8 -1 -1</clus>
<clus scale="  128.287">  2  9  1 -1</clus>
<clus scale="  128.287">  2  5  1 -1</clus>
</clustering>
</event>
<event>
 9    2  0.9254368E-005  0.1036650E+03  0.7546771E-02  0.1275961E+00
         21   -1    0    0  501  502  0.00000000000E+00  0.00000000000E+00  0.39209214637E+02  0.39209214637E+02  0.00000000000E+00 0. -1.
          2   -1    0    0  502    0 -0.00000000000E+00 -0.00000000000E+00 -0.59163985300E+03  0.59163985300E+03  0.00000000000E+00 0. -1.
         23    2    1    2    0    0 -0.19511349181E+02 -0.28449498776E+02 -0.22489921167E+03  0.24359462488E+03  0.86997811067E+02 0.  0.
         24    2    1    2    0    0 -0.30515400589E+01  0.97821991031E+02 -0.25444766049E+03  0.28399330034E+03  0.79562107072E+02 0.  0.
        -13    1    4    4    0    0  0.29572168957E+02  0.51927148961E+02 -0.74866004915E+02  0.95790712848E+02  0.00000000000E+00 0.  1.
         14    1    4    4    0    0 -0.32623709016E+02  0.45894842070E+02 -0.17958165558E+03  0.18820258749E+03  0.00000000000E+00 0. -1.
        -11    1    3    3    0    0 -0.43783297181E+02  0.73167168335E+01 -0.15657297873E+03  0.16274399874E+03  0.00000000000E+00 0.  1.
         11    1    3    3    0    0  0.24271948000E+02 -0.35766215610E+02 -0.68326232945E+02  0.80850626140E+02  0.00000000000E+00 0. -1.
          1    1    1    2  501    0  0.22562889240E+02 -0.69372492255E+02 -0.73083766199E+02  0.10326114242E+03  0.00000000000E+00 0. -1.
<scales pt_clust_5="13000.00000" pt_clust_6="13000.00000" pt_clust_7="13000.00000" pt_clust_8="13000.00000" pt_clust_9="72.94948"></scales>
<clustering>
<clus scale="   72.949">  1  9  2 -1</clus>
<clus scale="   79.562">  5  6 -1 -1</clus>
<clus scale="   86.998">  7  8 -1 -1</clus>
<clus scale="   97.509">  1  5  2 -1</clus>
<clus scale="   72.949">  1  5  2 -1</clus>
</clustering>
</event>
<event>
 9    2  0.9254368E-005  0.1205925E+03  0.7546771E-02  0.1249764E+00
         21   -1    0    0  501  502  0.00000000000E+00  0.00000000000E+00  0.21410482065E+03  0.21410482065E+03  0.00000000000E+00 0. -1.
          2   -1    0    0  502    0 -0.00000000000E+00 -0.00000000000E+00 -0.24324415728E+03  0.24324415728E+03  0.00000000000E+00 0. -1.
         24    2    1    2    0    0 -0.33893916254E+02 -0.54262424700E+02 -0.40664405880E+02  0.11112174279E+03  0.81248012422E+02 0.  0.
         23    2    1    2    0    0  0.86843700715E+00 -0.67619623619E+02  0.12910105492E+03  0.17368730241E+03  0.94482955898E+02 0.  0.
        -11    1    3    3    0    0  0.18157710000E+02  0.86478531035E+01 -0.16370206488E+02  0.25932054608E+02  0.00000000000E+00 0.  1.
         12    1    3    3    0    0 -0.52051626253E+02 -0.62910277804E+02 -0.24294199392E+02  0.85189688185E+02  0.00000000000E+00 0. -1.
        -11    1    4    4    0    0 -0.41358178468E+02 -0.10580106295E+02  0.31695511163E+02  0.53169944548E+02  0.00000000000E+00 0.  1.
         11    1    4    4    0    0  0.42226615475E+02 -0.57039517324E+02  0.97405543754E+02  0.12051735786E+03  0.00000000000E+00 0. -1.
          1    1    1    2  501    0  0.33025479246E+02  0.12188204832E+03 -0.11757598567E+03  0.17253993274E+03  0.00000000000E+00 0. -1.
<scales pt_clust_5="13000.00000" pt_clust_6="13000.00000" pt_clust_7="13000.00000" pt_clust_8="13000.00000" pt_clust_9="74.93683"></scales>
<clustering>
<clus scale="   81.248">  5  6 -1 -1</clus>
<clus scale="   94.483">  7  8 -1 -1</clus>
<clus scale="  103.414">  2  5  1 -1</clus>
<clus scale="   74.937">  1  9  2 -1</clus>
<clus scale="   74.937">  1  5  2 -1</clus>
</clustering>
</event>
<event>
 9    2  0.9254368E-005  0.1418873E+03  0.7546771E-02  0.1229405E+00
         21   -1    0    0  501  502  0.00000000000E+00  0.00000000000E+00  0.86863101116E+02  0.86863101116E+02  0.00000000000E+00 0. -1.
          2   -1    0    0  502    0 -0.00000000000E+00 -0.00000000000E+00 -0.42951786309E+03  0.42951786309E+03  0.00000000000E+00 0. -1.
         24    2    1    2    0    0  0.55882471588E+02 -0.24984755267E+01 -0.38900554223E+02  0.10361262072E+03  0.78059138112E+02 0.  0.
         23    2    1    2    0    0 -0.37162823644E+02  0.11045568750E+03 -0.87993149179E+02  0.17078070076E+03  0.88553481517E+02 0.  0.
        -11    1    3    3    0    0  0.75212782116E+02 -0.22839628539E+01 -0.37905320133E+02  0.84255518361E+02  0.00000000000E+00 0.  1.
         12    1    3    3    0    0 -0.19330310528E+02 -0.21451267285E+00 -0.99523409080E+00  0.19357102358E+02  0.00000000000E+00 0. -1.
        -11    1    4    4    0    0 -0.63118131877E+02  0.98880211614E+02 -0.64265800539E+02  0.13375831914E+03  0.00000000000E+00 0. -1.
         11    1    4    4    0    0  0.25955308233E+02  0.11575475883E+02 -0.23727348640E+02  0.37022381621E+02  0.00000000000E+00 0.  1.
          1    1    1    2  501    0 -0.18719647944E+02 -0.10795721197E+03 -0.21576105858E+03  0.24198764273E+03  0.00000000000E+00 0. -1.
<scales pt_clust_5="13000.00000" pt_clust_6="13000.00000" pt_clust_7="13000.00000" pt_clust_8="13000.00000" pt_clust_9="110.86161"></scales>
<clustering>
<clus scale="   78.059">  5  6 -1 -1</clus>
<clus scale="   88.553">  7  8 -1 -1</clus>
<clus scale="   96.033">  2  5  1 -1</clus>
<clus scale="  110.862">  1  9  2 -1</clus>
<clus scale="  110.862">  1  5  2 -1</clus>
</clustering>
</event>
<event>
 9    2  0.9254368E-005  0.1656501E+03  0.7546771E-02  0.1184772E+00
          2   -1    0    0  502    0 -0.00000000000E+00  0.00000000000E+00  0.75449244783E+03  0.75449244783E+03  0.00000000000E+00 0. -1.
         21   -1    0    0  501  502  0.00000000000E+00 -0.00000000000E+00 -0.70414755794E+02  0.70414755794E+02  0.00000000000E+00 0. -1.
         23    2    1    2    0    0 -0.13484009180E+03  0.54714803767E+01  0.52994462923E+03  0.55515912895E+03  0.95648110060E+02 0.  0.
         24    2    1    2    0    0  0.13618403427E+03  0.20706399027E+02  0.17461628809E+03  0.23648172427E+03  0.80361132997E+02 0.  0.
        -13    1    4    4    0    0  0.14324978582E+03  0.23720735276E+02  0.17652131797E+03  0.22856716763E+03  0.00000000000E+00 0.  1.
         14    1    4    4    0    0 -0.70657515485E+01 -0.30143362491E+01 -0.19050298828E+01  0.79145566409E+01  0.00000000000E+00 0. -1.
        -13    1    3    3    0    0 -0.54107924263E+02 -0.85095935869E+01  0.74863886543E+02  0.92761426032E+02  0.00000000000E+00 0.  1.
         13    1    3    3    0    0 -0.80732167537E+02  0.13981073964E+02  0.45508074268E+03  0.46239770292E+03  0.00000000000E+00 0. -1.
          1    1    1    2  501    0 -0.13439424684E+01 -0.26177879404E+02 -0.20483225279E+02  0.33266350405E+02  0.00000000000E+00 0. -1.
<scales pt_clust_5="13000.00000" pt_clust_6="13000.00000" pt_clust_7="13000.00000" pt_clust_8="13000.00000" pt_clust_9="26.21235"></scales>
<clustering>
<clus scale="   26.212">  2  9  1 -1</clus>
<clus scale="   80.361">  5  6 -1 -1</clus>
<clus scale="   95.648">  7  8 -1 -1</clus>
<clus scale="  157.319">  2  5  1 -1</clus>
<clus scale="   26.212">  2  5  1 -1</clus>
</clustering>
</event>
<event>
 9    2  0.9254368E-005  0.9181949E+02  0.7546771E-02  0.1317428E+00
          4   -1    0    0  502    0 -0.00000000000E+00  0.00000000000E+00  0.72676689122E+02  0.72676689122E+02  0.00000000000E+00 0. -1.
         21   -1    0    0  501  502  0.00000000000E+00 -0.00000000000E+00 -0.23107841523E+03  0.23107841523E+03  0.00000000000E+00 0.  1.
         24    2    1    2    0    0  0.16686615402E+02  0.10060927043E+02  0.27963610741E+02  0.72197455184E+02  0.63646238089E+02 0.  0.
         23    2    1    2    0    0  0.18921908682E+02  0.14490868477E+02 -0.12061548750E+03  0.15285694815E+03  0.90824704108E+02 0.  0.
        -13    1    3    3    0    0  0.39571694616E+02  0.13689679995E+02  0.25178126664E+02  0.48859639944E+02  0.00000000000E+00 0.  1.
         14    1    3    3    0    0 -0.22885079214E+02 -0.36287529523E+01  0.27854840770E+01  0.23337815240E+02  0.00000000000E+00 0. -1.
        -11    1    4    4    0    0  0.19179072389E+02 -0.18335307422E+02  0.13335176802E+01  0.26566870071E+02  0.00000000000E+00 0. -1.
         11    1    4    4    0    0 -0.25716370768E+00  0.32826175899E+02 -0.12194900518E+03  0.12629007808E+03  0.00000000000E+00 0.  1.
          3    1    1    2  501    0 -0.35608524083E+02 -0.24551795520E+02 -0.65749849344E+02  0.78700701009E+02  0.00000000000E+00 0. -1.
<scales pt_clust_5="13000.00000" pt_clust_6="13000.00000" pt_clust_7="13000.00000" pt_clust_8="13000.00000" pt_clust_9="43.25226"></scales>
<clustering>
<clus scale="   43.252">  2  9  1 -1</clus>
<clus scale="   63.646">  5  6 -1 -1</clus>
<clus scale="   65.058">  1  5  2 -1</clus>
<clus scale="   90.825">  7  8 -1 -1</clus>
<clus scale="   43.252">  2  5  1 -1</clus>
</clustering>
</event>
<event>
 9    2  0.9254368E-005  0.1036944E+03  0.7546771E-02  0.1276317E+00
          2   -1    0    0  502    0 -0.00000000000E+00  0.00000000000E+00  0.69121141135E+02  0.69121141135E+02  0.00000000000E+00 0. -1.
         21   -1    0    0  501  502  0.00000000000E+00 -0.00000000000E+00 -0.21022437508E+03  0.21022437508E+03  0.00000000000E+00 0.  1.
         23    2    1    2    0    0  0.31546633397E+02 -0.53539338052E+02 -0.46783715239E+02  0.11948796855E+03  0.90702854527E+02 0.  0.
         24    2    1    2    0    0 -0.39531995787E-01  0.39162803479E+02 -0.82693086621E+02  0.12332597080E+03  0.82688703947E+02 0.  0.
        -13    1    4    4    0    0  0.18570337341E+02 -0.15062884363E+02 -0.54339107197E+02  0.59367385703E+02  0.00000000000E+00 0.  1.
         14    1    4    4    0    0 -0.18609869337E+02  0.54225687842E+02 -0.28353979424E+02  0.63958585099E+02  0.00000000000E+00 0. -1.
        -11    1    3    3    0    0  0.35824727283E+02 -0.77285599046E+02 -0.41638734665E+02  0.94816977010E+02  0.00000000000E+00 0. -1.
         11    1    3    3    0    0 -0.42780938860E+01  0.23746260995E+02 -0.51449805746E+01  0.24670991541E+02  0.00000000000E+00 0.  1.
          1    1    1    2  501    0 -0.31507101401E+02  0.14376534573E+02 -0.11626432087E+02  0.36531576863E+02  0.00000000000E+00 0. -1.
<scales pt_clust_5="13000.00000" pt_clust_6="13000.00000" pt_clust_7="13000.00000" pt_clust_8="13000.00000" pt_clust_9="34.63211"></scales>
<clustering>
<clus scale="   34.632">  2  9  1 -1</clus>
<clus scale="   82.689">  5  6 -1 -1</clus>
<clus scale="   90.703">  7  8 -1 -1</clus>
<clus scale="   96.762">  2  5  1 -1</clus>
<clus scale="   34.632">  2  5  1 -1</clus>
</clustering>
</event>
<event>
 9    2  0.9254368E-005  0.1028575E+03  0.7546771E-02  0.1282574E+00
         21   -1    0    0  501  502  0.00000000000E+00  0.00000000000E+00  0.31841864383E+02  0.31841864383E+02  0.00000000000E+00 0.  1.
          4   -1    0    0  502    0 -0.00000000000E+00 -0.00000000000E+00 -0.51821826696E+03  0.51821826696E+03  0.00000000000E+00 0. -1.
         24    2    1    2    0    0  0.27664592816E+02  0.27860144577E+02 -0.37318920585E+03  0.38370436883E+03  0.80108313821E+02 0.  0.
         23    2    1    2    0    0 -0.60858493592E+01 -0.27601525331E+02 -0.90822251523E+02  0.13527683353E+03  0.96188661257E+02 0.  0.
        -13    1    3    3    0    0  0.34927808834E+02  0.48393991903E+01 -0.60059931273E+02  0.69646011796E+02  0.00000000000E+00 0.  1.
         14    1    3    3    0    0 -0.72632160181E+01  0.23020745387E+02 -0.31312927458E+03  0.31405835703E+03  0.00000000000E+00 0. -1.
        -13    1    4    4    0    0  0.45096693307E+02 -0.15110493857E+02 -0.44033585638E+02  0.64815086484E+02  0.00000000000E+00 0.  1.
         13    1    4    4    0    0 -0.51182542666E+02 -0.12491031474E+02 -0.46788665885E+02  0.70461747043E+02  0.00000000000E+00 0. -1.
          3    1    1    2  501    0 -0.21578743457E+02 -0.25861924623E+00 -0.22364945205E+02  0.31078928989E+02  0.00000000000E+00 0. -1.
<scales pt_clust_5="13000.00000" pt_clust_6="13000.00000" pt_clust_7="13000.00000" pt_clust_8="13000.00000" pt_clust_9="21.58029"></scales>
<clustering>
<clus scale="   21.580">  1  9  2 -1</clus>
<clus scale="   80.108">  5  6 -1 -1</clus>
<clus scale="   88.004">  2  5  1 -1</clus>
<clus scale="   96.189">  7  8 -1 -1</clus>
<clus scale="   21.580">  1  5  2 -1</clus>
</clustering>
</event>
<event>
 9    2  0.9254368E-005  0.4347690E+03  0.7546771E-02  0.1032557E+00
          2   -1    0    0  502    0 -0.00000000000E+00  0.00000000000E+00  0.13171557559E+04  0.13171557559E+04  0.00000000000E+00 0. -1.
         21   -1    0    0  501  502  0.00000000000E+00 -0.00000000000E+00 -0.47933079846E+03  0.47933079846E+03  0.00000000000E+00 0. -1.
         23    2    1    2    0    0 -0.34524419604E+03 -0.28318113634E+03  0.99672391587E+03  0.10959607421E+04  0.91028966820E+02 0.  0.
         24    2    1    2    0    0  0.37474816532E+03  0.82698168523E+00 -0.16420143389E+03  0.41658485173E+03  0.78383394210E+02 0.  0.
        -13    1    4    4    0    0  0.14703507552E+03 -0.26305772993E+02 -0.35176439846E+02  0.15345582115E+03  0.00000000000E+00 0.  1.
         14    1    4    4    0    0  0.22771308980E+03  0.27132754679E+02 -0.12902499404E+03  0.26312903057E+03  0.00000000000E+00 0. -1.
        -11    1    3    3    0    0 -0.16170446565E+03 -0.79664072089E+02  0.35422152986E+03  0.39745136912E+03  0.00000000000E+00 0.  1.
         11    1    3    3    0    0 -0.18353973039E+03 -0.20351706425E+03  0.64250238600E+03  0.69850937295E+03  0.00000000000E+00 0. -1.
          1    1    1    2  501    0 -0.29503969278E+02  0.28235415466E+03  0.53024754819E+01  0.28394096059E+03  0.00000000000E+00 0. -1.
<scales pt_clust_5="13000.00000" pt_clust_6="13000.00000" pt_clust_7="13000.00000" pt_clust_8="13000.00000" pt_clust_9="283.89145"></scales>
<clustering>
<clus scale="   78.383">  5  6 -1 -1</clus>
<clus scale="   91.029">  7  8 -1 -1</clus>
<clus scale="  283.891">  2  9  1 -1</clus>
<clus scale="  432.298">  2  5  1 -1</clus>
<clus scale="  283.891">  2  5  1 -1</clus>
</clustering>
</event>
<event>
 9    2  0.9254368E-005  0.1450492E+03  0.7546771E-02  0.1211718E+00
         21   -1    0    0  501  502  0.00000000000E+00  0.00000000000E+00  0.31317555009E+03  0.31317555009E+03  0.00000000000E+00 0. -1.
          2   -1    0    0  502    0 -0.00000000000E+00 -0.00000000000E+00 -0.22008145598E+03  0.22008145598E+03  0.00000000000E+00 0. -1.
         23    2    1    2    0    0 -0.97656696700E+02 -0.81745072168E+02 -0.15048468328E+03  0.21790390591E+03  0.92829871669E+02 0.  0.
         24    2    1    2    0    0  0.22955787564E+02  0.74222856402E+02  0.65156480768E+02  0.12177798429E+03  0.67442641389E+02 0.  0.
        -13    1    4    4    0    0  0.21694779556E+02  0.72971377133E+02  0.22919124905E+02  0.79503280606E+02  0.00000000000E+00 0.  1.
         14    1    4    4    0    0  0.12610080077E+01  0.12514792683E+01  0.42237355864E+02  0.42274703688E+02  0.00000000000E+00 0. -1.
        -11    1    3    3    0    0 -0.47087648518E+02 -0.94067985668E+02 -0.93709664158E+02  0.14088127529E+03  0.00000000000E+00 0.  1.
         11    1    3    3    0    0 -0.50569048181E+02  0.12322913500E+02 -0.56775019121E+02  0.77022630618E+02  0.00000000000E+00 0. -1.
          1    1    1    2  501    0  0.74700909136E+02  0.75222157659E+01  0.17842229662E+03  0.19357511588E+03  0.00000000000E+00 0. -1.
<scales pt_clust_5="13000.00000" pt_clust_6="13000.00000" pt_clust_7="13000.00000" pt_clust_8="13000.00000" pt_clust_9="75.07869"></scales>
<clustering>
<clus scale="   67.443">  5  6 -1 -1</clus>
<clus scale="   75.079">  1  9  2 -1</clus>
<clus scale="   92.830">  7  8 -1 -1</clus>
<clus scale="  130.270">  1  5  2 -1</clus>
<clus scale="   75.079">  1  5  2 -1</clus>
</clustering>
</event>
<event>
 9    2  0.9254368E-005  0.2390235E+03  0.7546771E-02  0.1121256E+00
         21   -1    0    0  501  502  0.00000000000E+00  0.00000000000E+00  0.37090661280E+02  0.37090661280E+02  0.00000000000E+00 0. -1.
          2   -1    0    0  502    0 -0.00000000000E+00 -0.00000000000E+00 -0.22389275609E+04  0.22389275609E+04  0.00000000000E+00 0. -1.
         24    2    1    2    0    0 -0.20503128578E+03 -0.67090819564E+02 -0.88831174233E+03  0.91753825936E+03  0.78991769258E+02 0.  0.
         23    2    1    2    0    0  0.23374101777E+03 -0.10724680595E+01 -0.77047651396E+03  0.81041763834E+03  0.92231645281E+02 0.  0.
        -11    1    3    3    0    0 -0.15032825940E+03 -0.52964135011E+02 -0.77136130708E+03  0.78765604881E+03  0.00000000000E+00 0.  1.
         12    1    3    3    0    0 -0.54703026380E+02 -0.14126684553E+02 -0.11695043525E+03  0.12988221055E+03  0.00000000000E+00 0. -1.
        -13    1    4    4    0    0  0.64984447121E+02  0.29678055529E+02 -0.14208535060E+03  0.15903462580E+03  0.00000000000E+00 0. -1.
         13    1    4    4    0    0  0.16875657065E+03 -0.30750523589E+02 -0.62839116336E+03  0.65138301254E+03  0.00000000000E+00 0.  1.
          1    1    1    2  501    0 -0.28709731990E+02  0.68163287623E+02 -0.54304864332E+03  0.54806232446E+03  0.00000000000E+00 0. -1.
<scales pt_clust_5="13000.00000" pt_clust_6="13000.00000" pt_clust_7="13000.00000" pt_clust_8="13000.00000" pt_clust_9="73.96275"></scales>
<clustering>
<clus scale="   73.963">  1  9  2 -1</clus>
<clus scale="   78.992">  5  6 -1 -1</clus>
<clus scale="   92.232">  7  8 -1 -1</clus>
<clus scale="  234.233">  2  5  1 -1</clus>
<clus scale="   73.963">  1  5  2 -1</clus>
</clustering>
</event>
<event>
 9    2  0.9254368E-005  0.1341655E+03  0.7546771E-02  0.1230726E+00
         21   -1    0    0  501  502  0.00000000000E+00  0.00000000000E+00  0.39331567542E+02  0.39331567542E+02  0.00000000000E+00 0. -1.
          2   -1    0    0  502    0 -0.00000000000E+00 -0.00000000000E+00 -0.48148984545E+03  0.48148984545E+03  0.00000000000E+00 0. -1.
         23    2    1    2    0    0 -0.83904393403E+02  0.52163771443E+01 -0.30483864868E+03  0.33504164526E+03  0.11072102108E+03 0.  0.
         24    2    1    2    0    0  0.63776482293E+02 -0.35017503695E+01 -0.10015483069E+03  0.14347970861E+03  0.80471949922E+02 0.  0.
        -11    1    4    4    0    0  0.47998793045E+02  0.18802559876E+02 -0.10382048005E+03  0.11591424619E+03  0.00000000000E+00 0.  1.
         12    1    4    4    0    0  0.15777689248E+02 -0.22304310245E+02  0.36656493604E+01  0.27565462426E+02  0.00000000000E+00 0. -1.
        -13    1    3    3    0    0 -0.23641073014E+02 -0.45663414158E+02 -0.66938175688E+02  0.84408335431E+02  0.00000000000E+00 0.  1.
         13    1    3    3    0    0 -0.60263320388E+02  0.50879791302E+02 -0.23790047299E+03  0.25063330983E+03  0.00000000000E+00 0. -1.
          1    1    1    2  501    0  0.20127911110E+02 -0.17146267748E+01 -0.37164798533E+02  0.42300059109E+02  0.00000000000E+00 0. -1.
<scales pt_clust_5="13000.00000" pt_clust_6="13000.00000" pt_clust_7="13000.00000" pt_clust_8="13000.00000" pt_clust_9="20.20082"></scales>
<clustering>
<clus scale="   20.201">  1  9  2 -1</clus>
<clus scale="   80.472">  5  6 -1 -1</clus>
<clus scale="  110.530">  1  5  2 -1</clus>
<clus scale="  110.721">  7  8 -1 -1</clus>
<clus scale="   20.201">  1  5  2 -1</clus>
</clustering>
</event>
<event>
 9    2  0.9254368E-005  0.2588722E+03  0.7546771E-02  0.1108426E+00
          2   -1    0    0  502    0 -0.00000000000E+00  0.00000000000E+00  0.22520207800E+04  0.22520207800E+04  0.00000000000E+00 0. -1.
         21   -1    0    0  501  502  0.00000000000E+00 -0.00000000000E+00 -0.12253530536E+03  0.12253530536E+03  0.00000000000E+00 0. -1.
         24    2    1    2    0    0 -0.17755491269E+03 -0.20360469996E+03  0.13717101195E+04  0.14003203246E+04  0.79547084594E+02 0.  0.
         23    2    1    2    0    0  0.11430105514E+03  0.17956215194E+03  0.83791334366E+03  0.86934919429E+03  0.91443712312E+02 0.  0.
        -13    1    3    3    0    0 -0.80068840834E+02 -0.50285035209E+02  0.34817018429E+03  0.36077982380E+03  0.00000000000E+00 0.  1.
         14    1    3    3    0    0 -0.97486071856E+02 -0.15331966475E+03  0.10235399352E+04  0.10395405008E+04  0.00000000000E+00 0. -1.
        -13    1    4    4    0    0  0.29997553119E+02 -0.27130697928E+01  0.13434512615E+03  0.13768016146E+03  0.00000000000E+00 0.  1.
         13    1    4    4    0    0  0.84303502016E+02  0.18227522174E+03  0.70356821751E+03  0.73166903283E+03  0.00000000000E+00 0. -1.
          1    1    1    2  501    0  0.63253857554E+02  0.24042548013E+02 -0.80137988552E+02  0.10488656644E+03  0.00000000000E+00 0. -1.
<scales pt_clust_5="13000.00000" pt_clust_6="13000.00000" pt_clust_7="13000.00000" pt_clust_8="13000.00000" pt_clust_9="67.66901"></scales>
<clustering>
<clus scale="   67.669">  2  9  1 -1</clus>
<clus scale="   79.547">  5  6 -1 -1</clus>
<clus scale="   91.444">  7  8 -1 -1</clus>
<clus scale="  254.913">  1  5  2 -1</clus>
<clus scale="   67.669">  2  5  1 -1</clus>
</clustering>
</event>
<event>
 9    2  0.9254368E-005  0.1437573E+03  0.7546771E-02  0.1210806E+00
         21   -1    0    0  501  502  0.00000000000E+00  0.00000000000E+00  0.11758924344E+03  0.11758924344E+03  0.00000000000E+00 0. -1.
         -1   -1    0    0    0  501 -0.00000000000E+00 -0.00000000000E+00 -0.28733643617E+03  0.28733643617E+03  0.00000000000E+00 0.  1.
         24    2    1    2    0    0 -0.24470447967E+01  0.12642245576E+03 -0.16837646404E+03  0.22499399821E+03  0.79265630891E+02 0.  0.
         23    2    1    2    0    0 -0.13236913269E+02 -0.83727279884E+02 -0.27361904875E+02  0.12754460452E+03  0.91287890952E+02 0.  0.
        -11    1    3    3    0    0 -0.36729169515E+02  0.97990400263E+02 -0.11539263240E+03  0.15577743755E+03  0.00000000000E+00 0.  1.
         12    1    3    3    0    0  0.34282124718E+02  0.28432055500E+02 -0.52983831643E+02  0.69216560668E+02  0.00000000000E+00 0. -1.
        -13    1    4    4    0    0 -0.46628415065E+02 -0.48349786257E+02 -0.38798807855E+02  0.77570989510E+02  0.00000000000E+00 0.  1.
         13    1    4    4    0    0  0.33391501796E+02 -0.35377493627E+02  0.11436902980E+02  0.49973615011E+02  0.00000000000E+00 0. -1.
         -2    1    1    2    0  502  0.15683958066E+02 -0.42695175879E+02  0.25991176180E+02  0.52387076872E+02  0.00000000000E+00 0.  1.
<scales pt_clust_5="13000.00000" pt_clust_6="13000.00000" pt_clust_7="13000.00000" pt_clust_8="13000.00000" pt_clust_9="45.48477"></scales>
<clustering>
<clus scale="   45.485">  1  9  2 -1</clus>
<clus scale="   79.266">  5  6 -1 -1</clus>
<clus scale="   91.288">  7  8 -1 -1</clus>
<clus scale="  136.439">  2  5  1 -1</clus>
<clus scale="   45.485">  1  5  2 -1</clus>
</clustering>
</event>
<event>
 9    2  0.9254368E-005  0.1764554E+03  0.7546771E-02  0.1172656E+00
         21   -1    0    0  501  502  0.00000000000E+00  0.00000000000E+00  0.14187583617E+03  0.14187583617E+03  0.00000000000E+00 0.  1.
          2   -1    0    0  502    0 -0.00000000000E+00 -0.00000000000E+00 -0.36991677496E+03  0.36991677496E+03  0.00000000000E+00 0. -1.
         23    2    1    2    0    0 -0.11092485470E+03 -0.16282998801E+03 -0.14964157712E+03  0.26354467646E+03  0.90803449847E+02 0.  0.
         24    2    1    2    0    0  0.71045924264E+02  0.75867522997E+02 -0.11433197874E+02  0.13146922725E+03  0.79687108740E+02 0.  0.
        -13    1    4    4    0    0  0.31360721948E+02  0.84627885162E+02 -0.99908021637E+01  0.90803028341E+02  0.00000000000E+00 0.  1.
         14    1    4    4    0    0  0.39685202316E+02 -0.87603621647E+01 -0.14423957098E+01  0.40666198906E+02  0.00000000000E+00 0. -1.
        -11    1    3    3    0    0 -0.87456458031E+01 -0.79586114777E+02 -0.29866790708E+02  0.85454439165E+02  0.00000000000E+00 0.  1.
         11    1    3    3    0    0 -0.10217920889E+03 -0.83243873233E+02 -0.11977478641E+03  0.17809023730E+03  0.00000000000E+00 0. -1.
          1    1    1    2  501    0  0.39878930433E+02  0.86962465013E+02 -0.66966163797E+02  0.11677870742E+03  0.00000000000E+00 0. -1.
<scales pt_clust_5="13000.00000" pt_clust_6="13000.00000" pt_clust_7="13000.00000" pt_clust_8="13000.00000" pt_clust_9="95.67031"></scales>
<clustering>
<clus scale="   79.687">  5  6 -1 -1</clus>
<clus scale="   90.803">  7  8 -1 -1</clus>
<clus scale="   95.670">  1  9  2 -1</clus>
<clus scale="  171.001">  1  5  2 -1</clus>
<clus scale="   95.670">  1  5  2 -1</clus>
</clustering>
</event>
<event>
 9    2  0.9254368E-005  0.1088718E+03  0.7546771E-02  0.1266693E+00
         -1   -1    0    0    0  501 -0.00000000000E+00  0.00000000000E+00  0.26751921721E+03  0.26751921721E+03  0.00000000000E+00 0.  1.
         21   -1    0    0  501  502  0.00000000000E+00 -0.00000000000E+00 -0.27177711310E+03  0.27177711310E+03  0.00000000000E+00 0.  1.
         23    2    1    2    0    0 -0.28423792921E+02  0.58691994516E+02  0.23602037179E+03  0.26080693052E+03  0.89788511985E+02 0.  0.
         24    2    1    2    0    0  0.13459080697E+02 -0.38096658300E+01 -0.16856957404E+03  0.18695716853E+03  0.79634296419E+02 0.  0.
        -13    1    4    4    0    0  0.35989924698E+02  0.22858132365E+02 -0.11834601704E+03  0.12579168750E+03  0.00000000000E+00 0.  1.
         14    1    4    4    0    0 -0.22530844001E+02 -0.26667798195E+02 -0.50223557002E+02  0.61165481032E+02  0.00000000000E+00 0. -1.
        -13    1    3    3    0    0 -0.24496797003E+02  0.81940817957E+02  0.16300246775E+03  0.18407660145E+03  0.00000000000E+00 0.  1.
         13    1    3    3    0    0 -0.39269959181E+01 -0.23248823441E+02  0.73017904043E+02  0.76730329069E+02  0.00000000000E+00 0. -1.
         -2    1    1    2    0  502  0.14964712224E+02 -0.54882328686E+02 -0.71708693649E+02  0.91532231257E+02  0.00000000000E+00 0.  1.
<scales pt_clust_5="13000.00000" pt_clust_6="13000.00000" pt_clust_7="13000.00000" pt_clust_8="13000.00000" pt_clust_9="56.88596"></scales>
<clustering>
<clus scale="   56.886">  2  9  1 -1</clus>
<clus scale="   79.634">  5  6 -1 -1</clus>
<clus scale="   89.789">  7  8 -1 -1</clus>
<clus scale="  100.661">  2  5  1 -1</clus>
<clus scale="   56.886">  2  5  1 -1</clus>
</clustering>
</event>
<event>
 9    2  0.9254368E-005  0.1050523E+03  0.7546771E-02  0.1274228E+00
         21   -1    0    0  501  502  0.00000000000E+00  0.00000000000E+00  0.85417125463E+02  0.85417125463E+02  0.00000000000E+00 0.  1.
          2   -1    0    0  502    0 -0.00000000000E+00 -0.00000000000E+00 -0.15582975971E+03  0.15582975971E+03  0.00000000000E+00 0. -1.
         23    2    1    2    0    0 -0.34433915435E+02 -0.24530145349E+02 -0.27994791022E+02  0.10254730339E+03  0.89133711614E+02 0.  0.
         24    2    1    2    0    0  0.54457428039E+02  0.41257490607E+02 -0.41442603244E+02  0.11259026870E+03  0.79317635128E+02 0.  0.
        -13    1    4    4    0    0  0.24316507762E+02 -0.11609901165E+02  0.13911734705E+02  0.30325215866E+02  0.00000000000E+00 0.  1.
         14    1    4    4    0    0  0.30140920278E+02  0.52867391772E+02 -0.55354337949E+02  0.82265052834E+02  0.00000000000E+00 0. -1.
        -11    1    3    3    0    0 -0.55917760371E+02  0.45093631751E+01 -0.34478231836E+02  0.65847389862E+02  0.00000000000E+00 0.  1.
         11    1    3    3    0    0  0.21483844935E+02 -0.29039508524E+02  0.64834408141E+01  0.36699913533E+02  0.00000000000E+00 0. -1.
          1    1    1    2  501    0 -0.20023512604E+02 -0.16727345258E+02 -0.97523998019E+00  0.26109313078E+02  0.00000000000E+00 0. -1.
<scales pt_clust_5="13000.00000" pt_clust_6="13000.00000" pt_clust_7="13000.00000" pt_clust_8="13000.00000" pt_clust_9="26.09109"></scales>
<clustering>
<clus scale="   26.091">  1  9  2 -1</clus>
<clus scale="   79.318">  5  6 -1 -1</clus>
<clus scale="   89.134">  7  8 -1 -1</clus>
<clus scale="   96.863">  1  5  2 -1</clus>
<clus scale="   26.091">  1  5  2 -1</clus>
</clustering>
</event>
<event>
 9    2  0.9254368E-005  0.1183426E+03  0.7546771E-02  0.1258206E+00
          2   -1    0    0  502    0 -0.00000000000E+00  0.00000000000E+00  0.76268832810E+03  0.76268832810E+03  0.00000000000E+00 0. -1.
         21   -1    0    0  501  502  0.00000000000E+00 -0.00000000000E+00 -0.59785017224E+02  0.59785017224E+02  0.00000000000E+00 0. -1.
         24    2    1    2    0    0  0.31349102973E+02  0.55922199901E+02  0.51872262323E+03  0.52746905562E+03  0.70995676581E+02 0.  0.
         23    2    1    2    0    0 -0.58599648876E+02 -0.11151479166E+02  0.20646733469E+03  0.23805076195E+03  0.10237739319E+03 0.  0.
        -13    1    3    3    0    0  0.16048987050E+02  0.19444246129E+02  0.41138880136E+02  0.48249934214E+02  0.00000000000E+00 0.  1.
         14    1    3    3    0    0  0.15300115923E+02  0.36477953772E+02  0.47758374309E+03  0.47921912141E+03  0.00000000000E+00 0. -1.
        -13    1    4    4    0    0 -0.75755259401E+01 -0.37489840639E+02  0.15904399504E+03  0.16357832712E+03  0.00000000000E+00 0.  1.
         13    1    4    4    0    0 -0.51024122936E+02  0.26338361473E+02  0.47423339650E+02  0.74472434833E+02  0.00000000000E+00 0. -1.
          1    1    1    2  501    0  0.27250545902E+02 -0.44770720734E+02 -0.22286647040E+02  0.56953527751E+02  0.00000000000E+00 0. -1.
<scales pt_clust_5="13000.00000" pt_clust_6="13000.00000" pt_clust_7="13000.00000" pt_clust_8="13000.00000" pt_clust_9="52.41192"></scales>
<clustering>
<clus scale="   52.412">  2  9  1 -1</clus>
<clus scale="   70.996">  5  6 -1 -1</clus>
<clus scale="   92.543">  1  5  2 -1</clus>
<clus scale="  102.377">  7  8 -1 -1</clus>
<clus scale="   52.412">  2  5  1 -1</clus>
</clustering>
</event>
<event>
 9    2  0.9254368E-005  0.1264346E+03  0.7546771E-02  0.1246967E+00
         21   -1    0    0  501  502  0.00000000000E+00  0.00000000000E+00  0.38780425575E+03  0.38780425575E+03  0.00000000000E+00 0. -1.
          2   -1    0    0  502    0 -0.00000000000E+00 -0.00000000000E+00 -0.33607974487E+03  0.33607974487E+03  0.00000000000E+00 0. -1.
         23    2    1    2    0    0  0.27057726857E+02  0.56648636887E+01  0.69734335022E+02  0.11776772830E+03  0.90786282474E+02 0.  0.
         24    2    1    2    0    0 -0.71627609169E+02  0.81139991795E+02 -0.28859506130E+03  0.31847425884E+03  0.80153175035E+02 0.  0.
        -13    1    4    4    0    0 -0.53088617971E+01  0.30106539090E+02 -0.17350512701E+03  0.17617779885E+03  0.00000000000E+00 0.  1.
         14    1    4    4    0    0 -0.66318747372E+02  0.51033452705E+02 -0.11508993429E+03  0.14229645998E+03  0.00000000000E+00 0. -1.
        -13    1    3    3    0    0  0.12304210492E+02  0.45046006016E+02  0.15631943913E+02  0.49243211962E+02  0.00000000000E+00 0. -1.
         13    1    3    3    0    0  0.14753516365E+02 -0.39381142327E+02  0.54102391108E+02  0.68524516341E+02  0.00000000000E+00 0.  1.
          1    1    1    2  501    0  0.44569882312E+02 -0.86804855484E+02  0.27058523716E+03  0.28764201347E+03  0.00000000000E+00 0. -1.
<scales pt_clust_5="13000.00000" pt_clust_6="13000.00000" pt_clust_7="13000.00000" pt_clust_8="13000.00000" pt_clust_9="97.78122"></scales>
<clustering>
<clus scale="   80.153">  5  6 -1 -1</clus>
<clus scale="   90.786">  7  8 -1 -1</clus>
<clus scale="   94.902">  2  7  1 -1</clus>
<clus scale="   97.781">  1  9  2 -1</clus>
<clus scale="   97.781">  1  5  2 -1</clus>
</clustering>
</event>
<event>
 9    2  0.9254368E-005  0.8724137E+02  0.7546771E-02  0.1313543E+00
         -1   -1    0    0    0  501 -0.00000000000E+00  0.00000000000E+00  0.15854057407E+03  0.15854057407E+03  0.00000000000E+00 0.  1.
         21   -1    0    0  501  502  0.00000000000E+00 -0.00000000000E+00 -0.19639817933E+03  0.19639817933E+03  0.00000000000E+00 0. -1.
         23    2    1    2    0    0  0.28638714551E+02 -0.66772036701E+01  0.12945081381E+03  0.15318477675E+03  0.76441491426E+02 0.  0.
         24    2    1    2    0    0 -0.48023820059E+01  0.19860583457E+02 -0.11991263719E+03  0.14708833487E+03  0.82694812702E+02 0.  0.
        -13    1    4    4    0    0 -0.36995465306E+01  0.24418700095E+02  0.22830798476E+01  0.24802661399E+02  0.00000000000E+00 0.  1.
         14    1    4    4    0    0 -0.11028354753E+01 -0.45581166384E+01 -0.12219571704E+03  0.12228567347E+03  0.00000000000E+00 0. -1.
        -13    1    3    3    0    0 -0.22709510009E+02 -0.12324890637E+02  0.68939241308E+02  0.73622304814E+02  0.00000000000E+00 0.  1.
         13    1    3    3    0    0  0.51348224560E+02  0.56476869673E+01  0.60511572499E+02  0.79562471931E+02  0.00000000000E+00 0. -1.
         -2    1    1    2    0  502 -0.23836332545E+02 -0.13183379786E+02 -0.47395781883E+02  0.54665641788E+02  0.00000000000E+00 0.  1.
<scales pt_clust_5="13000.00000" pt_clust_6="13000.00000" pt_clust_7="13000.00000" pt_clust_8="13000.00000" pt_clust_9="27.23917"></scales>
<clustering>
<clus scale="   27.239">  2  9  1 -1</clus>
<clus scale="   76.441">  7  8 -1 -1</clus>
<clus scale="   81.338">  1  7  2 -1</clus>
<clus scale="   82.695">  5  6 -1 -1</clus>
<clus scale="   27.239">  2  5  1 -1</clus>
</clustering>
</event>
<event>
 9    2  0.9254368E-005  0.9439122E+02  0.7546771E-02  0.1299142E+00
         21   -1    0    0  501  502  0.00000000000E+00  0.00000000000E+00  0.28744119692E+03  0.28744119692E+03  0.00000000000E+00 0. -1.
          2   -1    0    0  502    0 -0.00000000000E+00 -0.00000000000E+00 -0.15282414781E+03  0.15282414781E+03  0.00000000000E+00 0. -1.
         24    2    1    2    0    0  0.12750059731E+01  0.22712760058E+02 -0.12091347674E+03  0.14722238510E+03  0.80850891817E+02 0.  0.
         23    2    1    2    0    0  0.44652977076E+01  0.11656445236E+02  0.23479198022E+03  0.25249322925E+03  0.92031218848E+02 0.  0.
        -11    1    3    3    0    0 -0.11270304696E+02  0.30337803280E+02 -0.79723108261E+01  0.33331063825E+02  0.00000000000E+00 0.  1.
         12    1    3    3    0    0  0.12545310669E+02 -0.76250432215E+01 -0.11294116591E+03  0.11389132128E+03  0.00000000000E+00 0. -1.
        -11    1    4    4    0    0 -0.39573001739E+02  0.24801509325E+02  0.10979094264E+03  0.11931130884E+03  0.00000000000E+00 0.  1.
         11    1    4    4    0    0  0.44038299447E+02 -0.13145064089E+02  0.12500103758E+03  0.13318192041E+03  0.00000000000E+00 0. -1.
          1    1    1    2  501    0 -0.57403036808E+01 -0.34369205294E+02  0.20738545626E+02  0.40549730376E+02  0.00000000000E+00 0. -1.
<scales pt_clust_5="13000.00000" pt_clust_6="13000.00000" pt_clust_7="13000.00000" pt_clust_8="13000.00000" pt_clust_9="34.84528"></scales>
<clustering>
<clus scale="   34.845">  1  9  2 -1</clus>
<clus scale="   80.851">  5  6 -1 -1</clus>
<clus scale="   83.527">  2  5  1 -1</clus>
<clus scale="   92.031">  7  8 -1 -1</clus>
<clus scale="   34.845">  1  5  2 -1</clus>
</clustering>
</event>
<event>
 9    2  0.9254368E-005  0.1056963E+03  0.7546771E-02  0.1271943E+00
         21   -1    0    0  501  502  0.00000000000E+00  0.00000000000E+00  0.13439499086E+03  0.13439499086E+03  0.00000000000E+00 0. -1.
          2   -1    0    0  502    0 -0.00000000000E+00 -0.00000000000E+00 -0.26956479659E+03  0.26956479659E+03  0.00000000000E+00 0. -1.
         24    2    1    2    0    0  0.15309971460E+01  0.68323518295E+02 -0.16009072551E+03  0.19214261232E+03  0.81359055852E+02 0.  0.
         23    2    1    2    0    0 -0.30002946696E+02 -0.33752214641E+02 -0.59561108670E+02  0.11619792979E+03  0.88966535381E+02 0.  0.
        -13    1    3    3    0    0 -0.10799236224E+02  0.33972838953E+02 -0.90827727109E+01  0.36786873334E+02  0.00000000000E+00 0.  1.
         14    1    3    3    0    0  0.12330233370E+02  0.34350679342E+02 -0.15100795280E+03  0.15535573899E+03  0.00000000000E+00 0. -1.
        -11    1    4    4    0    0 -0.56001988939E+02 -0.40541307755E+02 -0.56240944060E+02  0.89122747872E+02  0.00000000000E+00 0. -1.
         11    1    4    4    0    0  0.25999042242E+02  0.67890931139E+01 -0.33201646101E+01  0.27075181917E+02  0.00000000000E+00 0.  1.
          1    1    1    2  501    0  0.28471949550E+02 -0.34571303654E+02  0.84482028452E+02  0.95619245337E+02  0.00000000000E+00 0. -1.
<scales pt_clust_5="13000.00000" pt_clust_6="13000.00000" pt_clust_7="13000.00000" pt_clust_8="13000.00000" pt_clust_9="44.78646"></scales>
<clustering>
<clus scale="   44.786">  1  9  2 -1</clus>
<clus scale="   81.359">  5  6 -1 -1</clus>
<clus scale="   88.967">  7  8 -1 -1</clus>
<clus scale="   99.378">  2  5  1 -1</clus>
<clus scale="   44.786">  1  5  2 -1</clus>
</clustering>
</event>
<event>
 9    2  0.9254368E-005  0.9785454E+02  0.7546771E-02  0.1290344E+00
         21   -1    0    0  501  502  0.00000000000E+00  0.00000000000E+00  0.33692495728E+02  0.33692495728E+02  0.00000000000E+00 0. -1.
          2   -1    0    0  502    0 -0.00000000000E+00 -0.00000000000E+00 -0.92013452917E+03  0.92013452917E+03  0.00000000000E+00 0. -1.
         24    2    1    2    0    0  0.64545783445E+01  0.38111988393E+02 -0.74884526357E+03  0.75423512010E+03  0.81284699539E+02 0.  0.
         23    2    1    2    0    0  0.26905223865E+02 -0.33811599574E+01 -0.80618130569E+02  0.12498847201E+03  0.91583360085E+02 0.  0.
        -11    1    3    3    0    0  0.26339055296E+02 -0.69179521103E+01 -0.10374907303E+03  0.10726357280E+03  0.00000000000E+00 0.  1.
         12    1    3    3    0    0 -0.19884476952E+02  0.45029940503E+02 -0.64509619054E+03  0.64697154730E+03  0.00000000000E+00 0. -1.
        -11    1    4    4    0    0 -0.76281378070E+01 -0.34603981123E+02 -0.44416395027E+01  0.35712072993E+02  0.00000000000E+00 0.  1.
         11    1    4    4    0    0  0.34533361672E+02  0.31222821166E+02 -0.76176491066E+02  0.89276399015E+02  0.00000000000E+00 0. -1.
          1    1    1    2  501    0 -0.33359802210E+02 -0.34730828435E+02 -0.56978639298E+02  0.74603432787E+02  0.00000000000E+00 0. -1.
<scales pt_clust_5="13000.00000" pt_clust_6="13000.00000" pt_clust_7="13000.00000" pt_clust_8="13000.00000" pt_clust_9="48.15711"></scales>
<clustering>
<clus scale="   48.157">  1  9  2 -1</clus>
<clus scale="   81.285">  5  6 -1 -1</clus>
<clus scale="   88.290">  2  5  1 -1</clus>
<clus scale="   91.583">  7  8 -1 -1</clus>
<clus scale="   48.157">  1  5  2 -1</clus>
</clustering>
</event>
<event>
 9    2  0.9254368E-005  0.1046502E+03  0.7546771E-02  0.1272332E+00
         21   -1    0    0  501  502  0.00000000000E+00  0.00000000000E+00  0.30443057529E+02  0.30443057529E+02  0.00000000000E+00 0.  1.
         -1   -1    0    0    0  501 -0.00000000000E+00 -0.00000000000E+00 -0.65426255171E+03  0.65426255171E+03  0.00000000000E+00 0.  1.
         23    2    1    2    0    0 -0.40282499827E+01  0.41999542478E+02 -0.44155410385E+03  0.45320337059E+03  0.92968167277E+02 0.  0.
         24    2    1    2    0    0 -0.11269025855E+02 -0.67346977122E+02 -0.15193396173E+03  0.18911716282E+03  0.89547564327E+02 0.  0.
        -13    1    4    4    0    0  0.17093269834E+02 -0.76939654647E+02 -0.85708843322E+02  0.11643837922E+03  0.00000000000E+00 0.  1.
         14    1    4    4    0    0 -0.28362295690E+02  0.95926775245E+01 -0.66225118406E+02  0.72678783609E+02  0.00000000000E+00 0. -1.
        -13    1    3    3    0    0  0.29501736067E+02 -0.17127270157E+02 -0.15041396837E+03  0.15423377612E+03  0.00000000000E+00 0. -1.
         13    1    3    3    0    0 -0.33529986049E+02  0.59126812635E+02 -0.29114013547E+03  0.29896959447E+03  0.00000000000E+00 0.  1.
         -2    1    1    2    0  502  0.15297275838E+02  0.25347434644E+02 -0.30331428608E+02  0.42385075823E+02  0.00000000000E+00 0.  1.
<scales pt_clust_5="13000.00000" pt_clust_6="13000.00000" pt_clust_7="13000.00000" pt_clust_8="13000.00000" pt_clust_9="29.60573"></scales>
<clustering>
<clus scale="   29.606">  1  9  2 -1</clus>
<clus scale="   89.548">  5  6 -1 -1</clus>
<clus scale="   92.968">  7  8 -1 -1</clus>
<clus scale="  101.624">  1  5  2 -1</clus>
<clus scale="   29.606">  1  5  2 -1</clus>
</clustering>
</event>
<event>
 9    2  0.9254368E-005  0.9526006E+02  0.7546771E-02  0.1292055E+00
         21   -1    0    0  501  502  0.00000000000E+00  0.00000000000E+00  0.16991888711E+03  0.16991888711E+03  0.00000000000E+00 0. -1.
         -3   -1    0    0    0  501 -0.00000000000E+00 -0.00000000000E+00 -0.14904259175E+03  0.14904259175E+03  0.00000000000E+00 0.  1.
         24    2    1    2    0    0 -0.44367136970E+02  0.21661971045E+02 -0.10792993567E+03  0.14370092874E+03  0.81014826274E+02 0.  0.
         23    2    1    2    0    0  0.22316676239E+02 -0.28119724178E+01  0.78098545846E+02  0.11684125019E+03  0.83943752929E+02 0.  0.
        -11    1    3    3    0    0 -0.37960596021E+02  0.20318379320E+02 -0.12135405326E+03  0.12876587137E+03  0.00000000000E+00 0.  1.
         12    1    3    3    0    0 -0.64065409485E+01  0.13435917247E+01  0.13424117589E+02  0.14935057371E+02  0.00000000000E+00 0. -1.
        -11    1    4    4    0    0  0.10321376507E+02  0.38482626694E+02  0.20058401160E+02  0.44606981823E+02  0.00000000000E+00 0.  1.
         11    1    4    4    0    0  0.11995299732E+02 -0.41294599112E+02  0.58040144686E+02  0.72234268368E+02  0.00000000000E+00 0. -1.
         -4    1    1    2    0  502  0.22050460731E+02 -0.18849998627E+02  0.50707685189E+02  0.58419299926E+02  0.00000000000E+00 0.  1.
<scales pt_clust_5="13000.00000" pt_clust_6="13000.00000" pt_clust_7="13000.00000" pt_clust_8="13000.00000" pt_clust_9="29.00940"></scales>
<clustering>
<clus scale="   29.009">  1  9  2 -1</clus>
<clus scale="   81.015">  5  6 -1 -1</clus>
<clus scale="   83.944">  7  8 -1 -1</clus>
<clus scale="   92.689">  2  5  1 -1</clus>
<clus scale="   29.009">  1  5  2 -1</clus>
</clustering>
</event>
<event>
 9    2  0.9254368E-005  0.1645968E+03  0.7546771E-02  0.1184663E+00
         21   -1    0    0  501  502  0.00000000000E+00  0.00000000000E+00  0.10024971998E+03  0.10024971998E+03  0.00000000000E+00 0.  1.
          2   -1    0    0  502    0 -0.00000000000E+00 -0.00000000000E+00 -0.58831877906E+03  0.58831877906E+03  0.00000000000E+00 0. -1.
         24    2    1    2    0    0  0.34512926702E+02 -0.12435381812E+03 -0.19048362806E+03  0.24433093492E+03  0.82210577242E+02 0.  0.
         23    2    1    2    0    0 -0.20106221217E+02  0.16227701744E+03 -0.49517710428E+02  0.19287464679E+03  0.89501593324E+02 0.  0.
        -13    1    3    3    0    0  0.52978389179E+02 -0.41281230846E+02 -0.96145689358E+02  0.11728104417E+03  0.00000000000E+00 0.  1.
         14    1    3    3    0    0 -0.18465462476E+02 -0.83072587275E+02 -0.94337938703E+02  0.12704989075E+03  0.00000000000E+00 0. -1.
        -13    1    4    4    0    0 -0.30132443333E+02  0.89127300786E+02 -0.68811407294E+02  0.11656178473E+03  0.00000000000E+00 0. -1.
         13    1    4    4    0    0  0.10026222116E+02  0.73149716650E+02  0.19293696866E+02  0.76312862053E+02  0.00000000000E+00 0.  1.
          1    1    1    2  501    0 -0.14406705485E+02 -0.37923199316E+02 -0.24806772059E+03  0.25136291733E+03  0.00000000000E+00 0. -1.
<scales pt_clust_5="13000.00000" pt_clust_6="13000.00000" pt_clust_7="13000.00000" pt_clust_8="13000.00000" pt_clust_9="40.56752"></scales>
<clustering>
<clus scale="   40.568">  1  9  2 -1</clus>
<clus scale="   82.211">  5  6 -1 -1</clus>
<clus scale="   89.502">  7  8 -1 -1</clus>
<clus scale="  160.749">  2  5  1 -1</clus>
<clus scale="   40.568">  1  5  2 -1</clus>
</clustering>
</event>
<event>
 9    2  0.9254368E-005  0.1171433E+03  0.7546771E-02  0.1250624E+00
         -3   -1    0    0    0  501 -0.00000000000E+00  0.00000000000E+00  0.15254714766E+03  0.15254714766E+03  0.00000000000E+00 0.  1.
         21   -1    0    0  501  502  0.00000000000E+00 -0.00000000000E+00 -0.14246464632E+03  0.14246464632E+03  0.00000000000E+00 0. -1.
         24    2    1    2    0    0  0.54263207294E+02 -0.61489087209E+02  0.61935186481E+02  0.13119061243E+03  0.81545116057E+02 0.  0.
         23    2    1    2    0    0 -0.53771905019E+02  0.36581192264E+02 -0.53289328421E+01  0.11104709571E+03  0.89852426471E+02 0.  0.
        -13    1    3    3    0    0  0.38081578576E+02 -0.78457491686E+02  0.63209203682E+02  0.10770881142E+03  0.00000000000E+00 0.  1.
         14    1    3    3    0    0  0.16181628718E+02  0.16968404476E+02 -0.12740172006E+01  0.23481801001E+02  0.00000000000E+00 0. -1.
        -11    1    4    4    0    0 -0.32243611386E+02  0.55496952986E+02 -0.32159177921E+02  0.71789797259E+02  0.00000000000E+00 0. -1.
         11    1    4    4    0    0 -0.21528293633E+02 -0.18915760722E+02  0.26830245079E+02  0.39257298448E+02  0.00000000000E+00 0.  1.
         -4    1    1    2    0  502 -0.49130227491E+00  0.24907894945E+02 -0.46523752301E+02  0.52774085844E+02  0.00000000000E+00 0.  1.
<scales pt_clust_5="13000.00000" pt_clust_6="13000.00000" pt_clust_7="13000.00000" pt_clust_8="13000.00000" pt_clust_9="24.91274"></scales>
<clustering>
<clus scale="   24.913">  2  9  1 -1</clus>
<clus scale="   81.545">  5  6 -1 -1</clus>
<clus scale="   89.852">  7  8 -1 -1</clus>
<clus scale="  110.900">  1  5  2 -1</clus>
<clus scale="   24.913">  2  5  1 -1</clus>
</clustering>
</event>
<event>
 9    2  0.9254368E-005  0.1261505E+03  0.7546771E-02  0.1239926E+00
         -3   -1    0    0    0  501 -0.00000000000E+00  0.00000000000E+00  0.61239336576E+02  0.61239336576E+02  0.00000000000E+00 0.  1.
         21   -1    0    0  501  502  0.00000000000E+00 -0.00000000000E+00 -0.47152151407E+03  0.47152151407E+03  0.00000000000E+00 0.  1.
         24    2    1    2    0    0  0.29919009479E+02 -0.57479417688E+02 -0.13361296568E+03  0.16881289745E+03  0.80289097404E+02 0.  0.
         23    2    1    2    0    0 -0.10819569882E+03  0.19622371850E+02 -0.18017703121E+03  0.23405901244E+03  0.10113610636E+03 0.  0.
        -13    1    3    3    0    0  0.44710875370E+01 -0.73001267312E+02 -0.99914262584E+02  0.12382259697E+03  0.00000000000E+00 0.  1.
         14    1    3    3    0    0  0.25447921942E+02  0.15521849624E+02 -0.33698703098E+02  0.44990300481E+02  0.00000000000E+00 0. -1.
        -13    1    4    4    0    0 -0.48419886915E+02  0.49791528638E+02 -0.43742642851E+02  0.82079842693E+02  0.00000000000E+00 0.  1.
         13    1    4    4    0    0 -0.59775811901E+02 -0.30169156789E+02 -0.13643438835E+03  0.15197916974E+03  0.00000000000E+00 0. -1.
         -4    1    1    2    0  502  0.78276689336E+02  0.37857045839E+02 -0.96492180607E+02  0.12988894076E+03  0.00000000000E+00 0.  1.
<scales pt_clust_5="13000.00000" pt_clust_6="13000.00000" pt_clust_7="13000.00000" pt_clust_8="13000.00000" pt_clust_9="86.95058"></scales>
<clustering>
<clus scale="   80.289">  5  6 -1 -1</clus>
<clus scale="   86.951">  2  9  1 -1</clus>
<clus scale="  101.136">  7  8 -1 -1</clus>
<clus scale="  110.144">  1  5  2 -1</clus>
<clus scale="   86.951">  2  5  1 -1</clus>
</clustering>
</event>
<event>
 9    2  0.9254368E-005  0.9765570E+02  0.7546771E-02  0.1292710E+00
          2   -1    0    0  502    0 -0.00000000000E+00  0.00000000000E+00  0.99922661816E+03  0.99922661816E+03  0.00000000000E+00 0. -1.
         21   -1    0    0  501  502  0.00000000000E+00 -0.00000000000E+00 -0.24526407803E+02  0.24526407803E+02  0.00000000000E+00 0.  1.
         24    2    1    2    0    0 -0.12924229753E+02 -0.18043154903E+02  0.29837014779E+03  0.30976387109E+03  0.80226676273E+02 0.  0.
         23    2    1    2    0    0 -0.51718672227E+02  0.54778389762E+02  0.21127031439E+03  0.24302339006E+03  0.93539987866E+02 0.  0.
        -11    1    3    3    0    0  0.30005644045E+02 -0.47049513832E+01  0.60643285138E+02  0.67823913736E+02  0.00000000000E+00 0.  1.
         12    1    3    3    0    0 -0.42929873799E+02 -0.13338203520E+02  0.23772686265E+03  0.24193995735E+03  0.00000000000E+00 0. -1.
        -13    1    4    4    0    0 -0.57303993181E+02  0.76278555023E+01  0.17184630985E+03  0.18130936552E+03  0.00000000000E+00 0.  1.
         13    1    4    4    0    0  0.55853209538E+01  0.47150534260E+02  0.39424004539E+02  0.61714024541E+02  0.00000000000E+00 0. -1.
          1    1    1    2  501    0  0.64642901981E+02 -0.36735234859E+02  0.46505974817E+03  0.47096576481E+03  0.00000000000E+00 0. -1.
<scales pt_clust_5="13000.00000" pt_clust_6="13000.00000" pt_clust_7="13000.00000" pt_clust_8="13000.00000" pt_clust_9="74.35178"></scales>
<clustering>
<clus scale="   74.352">  2  9  1 -1</clus>
<clus scale="   80.227">  5  6 -1 -1</clus>
<clus scale="   84.990">  1  5  2 -1</clus>
<clus scale="   93.540">  7  8 -1 -1</clus>
<clus scale="   74.352">  2  5  1 -1</clus>
</clustering>
</event>
<event>
 9    2  0.9254368E-005  0.9120199E+02  0.7546771E-02  0.1305189E+00
         21   -1    0    0  501  502  0.00000000000E+00  0.00000000000E+00  0.16495192464E+02  0.16495192464E+02  0.00000000000E+00 0. -1.
          2   -1    0    0  502    0 -0.00000000000E+00 -0.00000000000E+00 -0.94939114557E+03  0.94939114557E+03  0.00000000000E+00 0. -1.
         24    2    1    2    0    0  0.20720716221E+02  0.44830662592E+01 -0.70726947728E+03  0.71218106426E+03  0.80760812496E+02 0.  0.
         23    2    1    2    0    0 -0.11583326133E+01 -0.14832034405E+02 -0.15293272915E+03  0.17771732210E+03  0.89295553916E+02 0.  0.
        -11    1    3    3    0    0  0.12986576956E+02  0.32635188997E+02 -0.14648711537E+03  0.15063924359E+03  0.00000000000E+00 0.  1.
         12    1    3    3    0    0  0.77341392659E+01 -0.28152122738E+02 -0.56078236191E+03  0.56154182067E+03  0.00000000000E+00 0. -1.
        -13    1    4    4    0    0  0.38787460058E+02 -0.73813761577E+01 -0.11696976932E+03  0.12345395379E+03  0.00000000000E+00 0.  1.
         13    1    4    4    0    0 -0.39945792671E+02 -0.74506582473E+01 -0.35962959836E+02  0.54263368312E+02  0.00000000000E+00 0. -1.
          1    1    1    2  501    0 -0.19562383608E+02  0.10348968146E+02 -0.72693746669E+02  0.75987951670E+02  0.00000000000E+00 0. -1.
<scales pt_clust_5="13000.00000" pt_clust_6="13000.00000" pt_clust_7="13000.00000" pt_clust_8="13000.00000" pt_clust_9="22.13115"></scales>
<clustering>
<clus scale="   22.131">  1  9  2 -1</clus>
<clus scale="   80.761">  5  6 -1 -1</clus>
<clus scale="   82.864">  2  5  1 -1</clus>
<clus scale="   89.296">  7  8 -1 -1</clus>
<clus scale="   22.131">  1  5  2 -1</clus>
</clustering>
</event>
<event>
 9    2  0.9254368E-005  0.2781630E+03  0.7546771E-02  0.1097288E+00
         21   -1    0    0  501  502  0.00000000000E+00  0.00000000000E+00  0.48124493511E+03  0.48124493511E+03  0.00000000000E+00 0. -1.
         -1   -1    0    0    0  501 -0.00000000000E+00 -0.00000000000E+00 -0.45010662934E+03  0.45010662934E+03  0.00000000000E+00 0.  1.
         24    2    1    2    0    0  0.69279376990E+02  0.27413867966E+03 -0.31911047581E+03  0.43357655402E+03  0.78774898682E+02 0.  0.
         23    2    1    2    0    0 -0.49859417156E+02 -0.13651482213E+03  0.30731381899E+03  0.35230724076E+03  0.92500542740E+02 0.  0.
        -13    1    3    3    0    0  0.52597771601E+02  0.20771924146E+03 -0.28639448468E+03  0.35768087691E+03  0.00000000000E+00 0.  1.
         14    1    3    3    0    0  0.16681605388E+02  0.66419438195E+02 -0.32715991134E+02  0.75895677113E+02  0.00000000000E+00 0. -1.
        -13    1    4    4    0    0  0.17147447554E+02 -0.62770706687E+02  0.73602921035E+02  0.98242488571E+02  0.00000000000E+00 0.  1.
         13    1    4    4    0    0 -0.67006864711E+02 -0.73744115444E+02  0.23371089796E+03  0.25406475219E+03  0.00000000000E+00 0. -1.
         -2    1    1    2    0  502 -0.19419959833E+02 -0.13762385753E+03  0.42934962584E+02  0.14546776967E+03  0.00000000000E+00 0.  1.
<scales pt_clust_5="13000.00000" pt_clust_6="13000.00000" pt_clust_7="13000.00000" pt_clust_8="13000.00000" pt_clust_9="138.98727"></scales>
<clustering>
<clus scale="   78.775">  5  6 -1 -1</clus>
<clus scale="   92.501">  7  8 -1 -1</clus>
<clus scale="  138.987">  1  9  2 -1</clus>
<clus scale="  273.905">  2  5  1 -1</clus>
<clus scale="  138.987">  1  5  2 -1</clus>
</clustering>
</event>
<event>
 9    2  0.9254368E-005  0.3158667E+03  0.7546771E-02  0.1077888E+00
         21   -1    0    0  501  502  0.00000000000E+00  0.00000000000E+00  0.42590370661E+03  0.42590370661E+03  0.00000000000E+00 0. -1.
          2   -1    0    0  502    0 -0.00000000000E+00 -0.00000000000E+00 -0.43483857489E+03  0.43483857489E+03  0.00000000000E+00 0. -1.
         24    2    1    2    0    0 -0.27312329596E+03 -0.53224546225E+02 -0.71353852084E+02  0.29875015460E+03  0.82043254119E+02 0.  0.
         23    2    1    2    0    0  0.34887720118E+03  0.11011121134E+03  0.17418120850E+03  0.41548089289E+03  0.91899393884E+02 0.  0.
        -13    1    3    3    0    0 -0.11285354337E+03 -0.40243891092E+02  0.67213058777E+01  0.12000278736E+03  0.00000000000E+00 0.  1.
         14    1    3    3    0    0 -0.16026975259E+03 -0.12980655133E+02 -0.78075157962E+02  0.17874736724E+03  0.00000000000E+00 0. -1.
        -11    1    4    4    0    0  0.23030632603E+03  0.11722216625E+03  0.11979306643E+03  0.28483753059E+03  0.00000000000E+00 0. -1.
         11    1    4    4    0    0  0.11857087516E+03 -0.71109549170E+01  0.54388142073E+02  0.13064336230E+03  0.00000000000E+00 0.  1.
          1    1    1    2  501    0 -0.75753905220E+02 -0.56886665111E+02 -0.11176222470E+03  0.14651123402E+03  0.00000000000E+00 0. -1.
<scales pt_clust_5="13000.00000" pt_clust_6="13000.00000" pt_clust_7="13000.00000" pt_clust_8="13000.00000" pt_clust_9="94.73519"></scales>
<clustering>
<clus scale="   82.043">  5  6 -1 -1</clus>
<clus scale="   91.899">  7  8 -1 -1</clus>
<clus scale="   94.735">  1  9  2 -1</clus>
<clus scale="  313.141">  2  5  1 -1</clus>
<clus scale="   94.735">  1  5  2 -1</clus>
</clustering>
</event>
<event>
 9    2  0.9254368E-005  0.1586516E+03  0.7546771E-02  0.1198414E+00
          2   -1    0    0  502    0 -0.00000000000E+00  0.00000000000E+00  0.10562140293E+03  0.10562140293E+03  0.00000000000E+00 0. -1.
         21   -1    0    0  501  502  0.00000000000E+00 -0.00000000000E+00 -0.25576668720E+03  0.25576668720E+03  0.00000000000E+00 0.  1.
         24    2    1    2    0    0  0.40917466192E+02  0.85968569100E+02 -0.31977817385E+02  0.12995030103E+03  0.82460087445E+02 0.  0.
         23    2    1    2    0    0 -0.62263566074E+02 -0.10347212703E+03 -0.10990735280E+03  0.20262355642E+03  0.11997269141E+03 0.  0.
        -11    1    3    3    0    0 -0.13520349744E+01  0.58512833585E+02 -0.49432038255E+02  0.76610091363E+02  0.00000000000E+00 0.  1.
         12    1    3    3    0    0  0.42269501167E+02  0.27455735515E+02  0.17454220869E+02  0.53340209671E+02  0.00000000000E+00 0. -1.
        -13    1    4    4    0    0 -0.85219165434E+01 -0.71694758403E+02 -0.11934087066E+03  0.13948119893E+03  0.00000000000E+00 0.  1.
         13    1    4    4    0    0 -0.53741649531E+02 -0.31777368624E+02  0.94335178569E+01  0.63142357495E+02  0.00000000000E+00 0. -1.
          1    1    1    2  501    0  0.21346099882E+02  0.17503557928E+02 -0.82601140769E+01  0.28814232678E+02  0.00000000000E+00 0. -1.
<scales pt_clust_5="13000.00000" pt_clust_6="13000.00000" pt_clust_7="13000.00000" pt_clust_8="13000.00000" pt_clust_9="27.60491"></scales>
<clustering>
<clus scale="   27.605">  2  9  1 -1</clus>
<clus scale="   82.460">  5  6 -1 -1</clus>
<clus scale="  119.973">  7  8 -1 -1</clus>
<clus scale="  132.577">  1  5  2 -1</clus>
<clus scale="   27.605">  2  5  1 -1</clus>
</clustering>
</event>
<event>
 9    2  0.9254368E-005  0.1381388E+03  0.7546771E-02  0.1218958E+00
          2   -1    0    0  502    0 -0.00000000000E+00  0.00000000000E+00  0.59007404947E+03  0.59007404947E+03  0.00000000000E+00 0. -1.
         21   -1    0    0  501  502  0.00000000000E+00 -0.00000000000E+00 -0.91998836883E+02  0.91998836883E+02  0.00000000000E+00 0.  1.
         23    2    1    2    0    0 -0.55464641684E+02  0.94973893490E+02  0.20262899715E+03  0.24808540419E+03  0.91605078269E+02 0.  0.
         24    2    1    2    0    0  0.68857298783E+02 -0.55344040670E+02 -0.16843878302E+02  0.11890814113E+03  0.77789069648E+02 0.  0.
        -11    1    4    4    0    0  0.46985283469E+02 -0.37229221248E+00 -0.33191897103E+02  0.57527884521E+02  0.00000000000E+00 0.  1.
         12    1    4    4    0    0  0.21872015314E+02 -0.54971748458E+02  0.16348018801E+02  0.61380256607E+02  0.00000000000E+00 0. -1.
        -11    1    3    3    0    0 -0.58856952878E+02  0.41990809171E+02  0.53947593558E+02  0.90209266750E+02  0.00000000000E+00 0.  1.
         11    1    3    3    0    0  0.33923111940E+01  0.52983084320E+02  0.14868140359E+03  0.15787613744E+03  0.00000000000E+00 0. -1.
          1    1    1    2  501    0 -0.13392657099E+02 -0.39629852820E+02  0.31229009374E+03  0.31507934103E+03  0.00000000000E+00 0. -1.
<scales pt_clust_5="13000.00000" pt_clust_6="13000.00000" pt_clust_7="13000.00000" pt_clust_8="13000.00000" pt_clust_9="41.83169"></scales>
<clustering>
<clus scale="   41.832">  2  9  1 -1</clus>
<clus scale="   77.789">  5  6 -1 -1</clus>
<clus scale="   91.605">  7  8 -1 -1</clus>
<clus scale="  129.391">  2  5  1 -1</clus>
<clus scale="   41.832">  2  5  1 -1</clus>
</clustering>
</event>
<event>
 9    2  0.9254368E-005  0.3073264E+03  0.7546771E-02  0.1122533E+00
         21   -1    0    0  501  502  0.00000000000E+00  0.00000000000E+00  0.52280556851E+03  0.52280556851E+03  0.00000000000E+00 0. -1.
          2   -1    0    0  502    0 -0.00000000000E+00 -0.00000000000E+00 -0.29793287365E+03  0.29793287365E+03  0.00000000000E+00 0. -1.
         23    2    1    2    0    0  0.27919782228E+01  0.24052942890E+02  0.15773545851E+01  0.10675593702E+03  0.10396154499E+03 0.  0.
         24    2    1    2    0    0  0.72978726028E+02  0.28021872070E+03  0.26082803697E+03  0.39818011723E+03  0.81656077578E+02 0.  0.
        -11    1    4    4    0    0 -0.13535205948E+02  0.18780011402E+02  0.84491649507E+01  0.24643031807E+02  0.00000000000E+00 0.  1.
         12    1    4    4    0    0  0.86513931976E+02  0.26143870930E+03  0.25237887202E+03  0.37353708543E+03  0.00000000000E+00 0. -1.
        -13    1    3    3    0    0 -0.24770307349E+02  0.24725588585E+02  0.43962524966E+02  0.56192761619E+02  0.00000000000E+00 0.  1.
         13    1    3    3    0    0  0.27562285572E+02 -0.67264569480E+00 -0.42385170381E+02  0.50563175398E+02  0.00000000000E+00 0. -1.
          1    1    1    2  501    0 -0.75770704251E+02 -0.30427166360E+03 -0.37532696695E+02  0.31580238791E+03  0.00000000000E+00 0. -1.
<scales pt_clust_5="13000.00000" pt_clust_6="13000.00000" pt_clust_7="13000.00000" pt_clust_8="13000.00000" pt_clust_9="296.28004"></scales>
<clustering>
<clus scale="   81.656">  5  6 -1 -1</clus>
<clus scale="  103.962">  7  8 -1 -1</clus>
<clus scale="  106.744">  2  7  1 -1</clus>
<clus scale="  296.280">  1  9  2 -1</clus>
<clus scale="  296.280">  1  5  2 -1</clus>
</clustering>
</event>
<event>
 9    2  0.9254368E-005  0.9210911E+02  0.7546771E-02  0.1300689E+00
          2   -1    0    0  502    0 -0.00000000000E+00  0.00000000000E+00  0.72187312938E+03  0.72187312938E+03  0.00000000000E+00 0. -1.
         21   -1    0    0  501  502  0.00000000000E+00 -0.00000000000E+00 -0.33354017048E+02  0.33354017048E+02  0.00000000000E+00 0.  1.
         24    2    1    2    0    0 -0.58621195575E+01 -0.23963392820E+02  0.37529048065E+03  0.38560971751E+03  0.85107583285E+02 0.  0.
         23    2    1    2    0    0 -0.68894588538E+02 -0.10153970626E+02  0.17207761759E+03  0.20628902148E+03  0.89971586965E+02 0.  0.
        -11    1    3    3    0    0  0.32728757889E+02  0.10800884784E+02  0.10964933650E+03  0.11493827778E+03  0.00000000000E+00 0.  1.
         12    1    3    3    0    0 -0.38590877447E+02 -0.34764277604E+02  0.26564114415E+03  0.27067143973E+03  0.00000000000E+00 0. -1.
        -11    1    4    4    0    0 -0.90930467306E+02 -0.11632609744E+02  0.14005394129E+03  0.16738809385E+03  0.00000000000E+00 0.  1.
         11    1    4    4    0    0  0.22035878768E+02  0.14786391182E+01  0.32023676301E+02  0.38900927631E+02  0.00000000000E+00 0. -1.
          1    1    1    2  501    0  0.74756708096E+02  0.34117363446E+02  0.14115101409E+03  0.16332840743E+03  0.00000000000E+00 0. -1.
<scales pt_clust_5="13000.00000" pt_clust_6="13000.00000" pt_clust_7="13000.00000" pt_clust_8="13000.00000" pt_clust_9="82.17396"></scales>
<clustering>
<clus scale="   82.174">  2  9  1 -1</clus>
<clus scale="   85.108">  5  6 -1 -1</clus>
<clus scale="   87.364">  1  5  2 -1</clus>
<clus scale="   89.972">  7  8 -1 -1</clus>
<clus scale="   82.174">  2  5  1 -1</clus>
</clustering>
</event>
<event>
 9    2  0.9254368E-005  0.9452504E+02  0.7546771E-02  0.1298189E+00
          2   -1    0    0  502    0 -0.00000000000E+00  0.00000000000E+00  0.14198698167E+03  0.14198698167E+03  0.00000000000E+00 0. -1.
         21   -1    0    0  501  502  0.00000000000E+00 -0.00000000000E+00 -0.15444386131E+03  0.15444386131E+03  0.00000000000E+00 0.  1.
         23    2    1    2    0    0 -0.64092097831E+01  0.67442915535E+01 -0.41156112802E+02  0.10036236795E+03  0.91061604652E+02 0.  0.
         24    2    1    2    0    0 -0.41947688205E+02 -0.31305825582E+02 -0.43623576928E+02  0.10566799164E+03  0.80765368396E+02 0.  0.
        -13    1    4    4    0    0 -0.66371093179E+02 -0.22949855075E+02 -0.28815010404E+02  0.75908646954E+02  0.00000000000E+00 0.  1.
         14    1    4    4    0    0  0.24423404975E+02 -0.83559705073E+01 -0.14808566524E+02  0.29759344686E+02  0.00000000000E+00 0. -1.
        -11    1    3    3    0    0  0.23137062129E+02  0.30583380379E+01 -0.60506668643E+02  0.64851630865E+02  0.00000000000E+00 0.  1.
         11    1    3    3    0    0 -0.29546271912E+02  0.36859535156E+01  0.19350555842E+02  0.35510737089E+02  0.00000000000E+00 0. -1.
          1    1    1    2  501    0  0.48356897988E+02  0.24561534028E+02  0.72322810089E+02  0.90400483383E+02  0.00000000000E+00 0. -1.
<scales pt_clust_5="13000.00000" pt_clust_6="13000.00000" pt_clust_7="13000.00000" pt_clust_8="13000.00000" pt_clust_9="54.23709"></scales>
<clustering>
<clus scale="   54.237">  2  9  1 -1</clus>
<clus scale="   80.765">  5  6 -1 -1</clus>
<clus scale="   84.651">  2  5  1 -1</clus>
<clus scale="   91.062">  7  8 -1 -1</clus>
<clus scale="   54.237">  2  5  1 -1</clus>
</clustering>
</event>
<event>
 9    2  0.9254368E-005  0.1363751E+03  0.7546771E-02  0.1235651E+00
          2   -1    0    0  502    0 -0.00000000000E+00  0.00000000000E+00  0.68311742227E+03  0.68311742227E+03  0.00000000000E+00 0. -1.
         21   -1    0    0  501  502  0.00000000000E+00 -0.00000000000E+00 -0.90671002889E+02  0.90671002889E+02  0.00000000000E+00 0.  1.
         23    2    1    2    0    0 -0.18101440064E+02  0.23662766197E+02  0.23344505701E+02  0.97941196994E+02  0.90332294811E+02 0.  0.
         24    2    1    2    0    0 -0.11109047552E+03 -0.12966940672E+02  0.54080374843E+02  0.14476141852E+03  0.74309797802E+02 0.  0.
        -13    1    4    4    0    0 -0.11741840647E+03 -0.12069856306E+02  0.32753046799E+02  0.12249704357E+03  0.00000000000E+00 0.  1.
         14    1    4    4    0    0  0.63279309548E+01 -0.89708436567E+00  0.21327328044E+02  0.22264374952E+02  0.00000000000E+00 0. -1.
        -13    1    3    3    0    0 -0.34541988672E+02  0.51591820016E+02  0.99777215789E+01  0.62884177675E+02  0.00000000000E+00 0. -1.
         13    1    3    3    0    0  0.16440548608E+02 -0.27929053819E+02  0.13366784122E+02  0.35057019319E+02  0.00000000000E+00 0.  1.
          1    1    1    2  501    0  0.12919191558E+03 -0.10695825525E+02  0.51502153884E+03  0.53108580964E+03  0.00000000000E+00 0. -1.
<scales pt_clust_5="13000.00000" pt_clust_6="13000.00000" pt_clust_7="13000.00000" pt_clust_8="13000.00000" pt_clust_9="114.35136"></scales>
<clustering>
<clus scale="   74.310">  5  6 -1 -1</clus>
<clus scale="   90.332">  7  8 -1 -1</clus>
<clus scale="   95.118">  1  7  2 -1</clus>
<clus scale="  114.351">  2  9  1 -1</clus>
<clus scale="  114.351">  2  5  1 -1</clus>
</clustering>
</event>
<event>
 9    2  0.9254368E-005  0.1185363E+03  0.7546771E-02  0.1248851E+00
         21   -1    0    0  501  502  0.00000000000E+00  0.00000000000E+00  0.18885383896E+03  0.18885383896E+03  0.00000000000E+00 0. -1.
          2   -1    0    0  502    0 -0.00000000000E+00 -0.00000000000E+00 -0.16521622885E+03  0.16521622885E+03  0.00000000000E+00 0. -1.
         23    2    1    2    0    0 -0.72954131923E+02  0.11743959225E+02 -0.97228917238E+02  0.15212121740E+03  0.90703784341E+02 0.  0.
         24    2    1    2    0    0  0.78749609798E+02 -0.36526213515E+02  0.53420210741E+02  0.12986034012E+03  0.80463182282E+02 0.  0.
        -13    1    4    4    0    0  0.74685884158E+02 -0.44611000508E+02  0.69541053673E+02  0.11137360910E+03  0.00000000000E+00 0.  1.
         14    1    4    4    0    0  0.40637256392E+01  0.80847869924E+01 -0.16120842932E+02  0.18486731015E+02  0.00000000000E+00 0. -1.
        -13    1    3    3    0    0 -0.70416838301E+02 -0.25915435609E+02 -0.82726498410E+02  0.11168623218E+03  0.00000000000E+00 0. -1.
         13    1    3    3    0    0 -0.25372936218E+01  0.37659394834E+02 -0.14502418828E+02  0.40434985224E+02  0.00000000000E+00 0.  1.
          1    1    1    2  501    0 -0.57954778749E+01  0.24782254290E+02  0.67446316608E+02  0.72088510288E+02  0.00000000000E+00 0. -1.
<scales pt_clust_5="13000.00000" pt_clust_6="13000.00000" pt_clust_7="13000.00000" pt_clust_8="13000.00000" pt_clust_9="25.45089"></scales>
<clustering>
<clus scale="   25.451">  1  9  2 -1</clus>
<clus scale="   80.463">  5  6 -1 -1</clus>
<clus scale="   90.704">  7  8 -1 -1</clus>
<clus scale="  110.896">  1  5  2 -1</clus>
<clus scale="   25.451">  1  5  2 -1</clus>
</clustering>
</event>
<event>
 9    2  0.9254368E-005  0.9240061E+02  0.7546771E-02  0.1303992E+00
          2   -1    0    0  502    0 -0.00000000000E+00  0.00000000000E+00  0.84933649212E+03  0.84933649212E+03  0.00000000000E+00 0. -1.
         21   -1    0    0  501  502  0.00000000000E+00 -0.00000000000E+00 -0.38552107940E+02  0.38552107940E+02  0.00000000000E+00 0. -1.
         24    2    1    2    0    0  0.11379728468E+02  0.48416742063E+01  0.65208585358E+03  0.65704590590E+03  0.79626766830E+02 0.  0.
         23    2    1    2    0    0 -0.31393898666E+02 -0.38587082008E+02  0.16113776287E+03  0.19153277924E+03  0.90801360841E+02 0.  0.
        -11    1    3    3    0    0 -0.26140289235E+02  0.17593301859E+02  0.14350515389E+03  0.14692368150E+03  0.00000000000E+00 0.  1.
         12    1    3    3    0    0  0.37520017703E+02 -0.12751627653E+02  0.50858069969E+03  0.51012222440E+03  0.00000000000E+00 0. -1.
        -11    1    4    4    0    0  0.77527896896E+00 -0.59417905354E+02  0.12697593969E+03  0.14019264529E+03  0.00000000000E+00 0. -1.
         11    1    4    4    0    0 -0.32169177635E+02  0.20830823346E+02  0.34161823178E+02  0.51340133949E+02  0.00000000000E+00 0.  1.
          1    1    1    2  501    0  0.20014170198E+02  0.33745407802E+02 -0.24392322690E+01  0.39309914914E+02  0.00000000000E+00 0. -1.
<scales pt_clust_5="13000.00000" pt_clust_6="13000.00000" pt_clust_7="13000.00000" pt_clust_8="13000.00000" pt_clust_9="39.23416"></scales>
<clustering>
<clus scale="   39.234">  2  9  1 -1</clus>
<clus scale="   79.627">  5  6 -1 -1</clus>
<clus scale="   81.446">  1  5  2 -1</clus>
<clus scale="   90.801">  7  8 -1 -1</clus>
<clus scale="   39.234">  2  5  1 -1</clus>
</clustering>
</event>
<event>
 9    2  0.9254368E-005  0.1917492E+03  0.7546771E-02  0.1157879E+00
         21   -1    0    0  501  502  0.00000000000E+00  0.00000000000E+00  0.14271679569E+04  0.14271679569E+04  0.00000000000E+00 0.  1.
         -3   -1    0    0    0  501 -0.00000000000E+00 -0.00000000000E+00 -0.57412755550E+02  0.57412755550E+02  0.00000000000E+00 0.  1.
         23    2    1    2    0    0 -0.89033495413E+02 -0.19637572174E+03  0.29892277659E+03  0.37955451680E+03  0.90644456345E+02 0.  0.
         24    2    1    2    0    0  0.91205757954E+02  0.70782522708E+02  0.44870658136E+03  0.47034601209E+03  0.80988388872E+02 0.  0.
        -13    1    4    4    0    0  0.60919573292E+02  0.50568911236E+02  0.15171931319E+03  0.17113491516E+03  0.00000000000E+00 0.  1.
         14    1    4    4    0    0  0.30286184661E+02  0.20213611472E+02  0.29698726817E+03  0.29921109693E+03  0.00000000000E+00 0. -1.
        -13    1    3    3    0    0 -0.40467401466E+02 -0.22842661690E+02  0.10504326221E+03  0.11486289527E+03  0.00000000000E+00 0. -1.
         13    1    3    3    0    0 -0.48566093947E+02 -0.17353306005E+03  0.19387951438E+03  0.26469162153E+03  0.00000000000E+00 0.  1.
         -4    1    1    2    0  502 -0.21722625407E+01  0.12559319903E+03  0.62212584338E+03  0.63468018353E+03  0.00000000000E+00 0.  1.
<scales pt_clust_5="13000.00000" pt_clust_6="13000.00000" pt_clust_7="13000.00000" pt_clust_8="13000.00000" pt_clust_9="125.61198"></scales>
<clustering>
<clus scale="   80.988">  5  6 -1 -1</clus>
<clus scale="   90.644">  7  8 -1 -1</clus>
<clus scale="  125.612">  1  9  2 -1</clus>
<clus scale="  187.378">  1  5  2 -1</clus>
<clus scale="  125.612">  1  5  2 -1</clus>
</clustering>
</event>
<event>
 9    2  0.9254368E-005  0.1156400E+03  0.7546771E-02  0.1254145E+00
         -1   -1    0    0    0  501 -0.00000000000E+00  0.00000000000E+00  0.57110996240E+03  0.57110996240E+03  0.00000000000E+00 0.  1.
         21   -1    0    0  501  502  0.00000000000E+00 -0.00000000000E+00 -0.54535575180E+02  0.54535575180E+02  0.00000000000E+00 0. -1.
         24    2    1    2    0    0 -0.86165522846E+01  0.66809873313E+02  0.39617627489E+03  0.41041727584E+03  0.83360034663E+02 0.  0.
         23    2    1    2    0    0 -0.43234815963E+02 -0.72736545611E+02  0.84691675121E+02  0.15199346521E+03  0.93645497776E+02 0.  0.
        -11    1    3    3    0    0  0.24221922610E+02 -0.77400548746E+01  0.82040479259E+02  0.85890920484E+02  0.00000000000E+00 0.  1.
         12    1    3    3    0    0 -0.32838474895E+02  0.74549928188E+02  0.31413579563E+03  0.32452635536E+03  0.00000000000E+00 0. -1.
        -11    1    4    4    0    0 -0.40921202955E+02 -0.16570566049E+02 -0.67430385729E+01  0.44660912212E+02  0.00000000000E+00 0.  1.
         11    1    4    4    0    0 -0.23136130081E+01 -0.56165979561E+02  0.91434713694E+02  0.10733255300E+03  0.00000000000E+00 0. -1.
         -2    1    1    2    0  502  0.51851368247E+02  0.59266722974E+01  0.35706437213E+02  0.63234796529E+02  0.00000000000E+00 0.  1.
<scales pt_clust_5="13000.00000" pt_clust_6="13000.00000" pt_clust_7="13000.00000" pt_clust_8="13000.00000" pt_clust_9="52.18898"></scales>
<clustering>
<clus scale="   52.189">  2  9  1 -1</clus>
<clus scale="   83.360">  5  6 -1 -1</clus>
<clus scale="   93.645">  7  8 -1 -1</clus>
<clus scale="  107.480">  1  5  2 -1</clus>
<clus scale="   52.189">  2  5  1 -1</clus>
</clustering>
</event>
<event>
 9    2  0.9254368E-005  0.2691757E+03  0.7546771E-02  0.1101752E+00
          2   -1    0    0  502    0 -0.00000000000E+00  0.00000000000E+00  0.22443976687E+04  0.22443976687E+04  0.00000000000E+00 0. -1.
         21   -1    0    0  501  502  0.00000000000E+00 -0.00000000000E+00 -0.29412837240E+02  0.29412837240E+02  0.00000000000E+00 0. -1.
         24    2    1    2    0    0  0.90534890880E+02 -0.10614194542E+03  0.48271326069E+03  0.50897245972E+03  0.81106064257E+02 0.  0.
         23    2    1    2    0    0  0.44232687348E+02 -0.30194584226E+02  0.27747517344E+03  0.29746539173E+03  0.92870575844E+02 0.  0.
        -13    1    3    3    0    0  0.48062293567E+02 -0.41713447433E+02  0.99823779125E+02  0.11838404723E+03  0.00000000000E+00 0.  1.
         14    1    3    3    0    0  0.42472597312E+02 -0.64428497988E+02  0.38288948157E+03  0.39058841249E+03  0.00000000000E+00 0. -1.
        -13    1    4    4    0    0 -0.24680576418E+02 -0.10782591696E+02  0.13890959261E+03  0.14149653726E+03  0.00000000000E+00 0.  1.
         13    1    4    4    0    0  0.68913263766E+02 -0.19411992530E+02  0.13856558083E+03  0.15596885448E+03  0.00000000000E+00 0. -1.
          1    1    1    2  501    0 -0.13476757823E+03  0.13633652965E+03  0.14547963973E+04  0.14673726545E+04  0.00000000000E+00 0. -1.
<scales pt_clust_5="13000.00000" pt_clust_6="13000.00000" pt_clust_7="13000.00000" pt_clust_8="13000.00000" pt_clust_9="191.70286"></scales>
<clustering>
<clus scale="   81.106">  5  6 -1 -1</clus>
<clus scale="   92.871">  7  8 -1 -1</clus>
<clus scale="   97.590">  5  7 -1 -1</clus>
<clus scale="  191.703">  2  9  1 -1</clus>
<clus scale="  191.703">  2  5  1 -1</clus>
</clustering>
</event>
<event>
 9    2  0.9254368E-005  0.1083869E+03  0.7546771E-02  0.1273036E+00
         21   -1    0    0  501  502  0.00000000000E+00  0.00000000000E+00  0.38250837471E+02  0.38250837471E+02  0.00000000000E+00 0. -1.
         -1   -1    0    0    0  501 -0.00000000000E+00 -0.00000000000E+00 -0.46846176714E+03  0.46846176714E+03  0.00000000000E+00 0.  1.
         23    2    1    2    0    0 -0.54529887035E+02  0.85498276732E+01 -0.23695865528E+03  0.26195521231E+03  0.97079971231E+02 0.  0.
         24    2    1    2    0    0  0.36091492017E+02  0.31042325065E+02 -0.69880102479E+02  0.11388262096E+03  0.76287619528E+02 0.  0.
        -11    1    4    4    0    0  0.24615356223E+02  0.13107679536E+02 -0.83883872642E+02  0.88398139767E+02  0.00000000000E+00 0.  1.
         12    1    4    4    0    0  0.11476135793E+02  0.17934645529E+02  0.14003770163E+02  0.25484481195E+02  0.00000000000E+00 0. -1.
        -11    1    3    3    0    0 -0.45110392670E+02 -0.23687124841E+02 -0.47883313080E+02  0.69920233707E+02  0.00000000000E+00 0. -1.
         11    1    3    3    0    0 -0.94194943650E+01  0.32236952515E+02 -0.18907534220E+03  0.19203497861E+03  0.00000000000E+00 0.  1.
         -2    1    1    2    0  502  0.18438395019E+02 -0.39592152739E+02 -0.12337217191E+03  0.13087477133E+03  0.00000000000E+00 0.  1.
<scales pt_clust_5="13000.00000" pt_clust_6="13000.00000" pt_clust_7="13000.00000" pt_clust_8="13000.00000" pt_clust_9="43.67511"></scales>
<clustering>
<clus scale="   43.675">  1  9  2 -1</clus>
<clus scale="   76.288">  5  6 -1 -1</clus>
<clus scale="   90.239">  1  5  2 -1</clus>
<clus scale="   97.080">  7  8 -1 -1</clus>
<clus scale="   43.675">  1  5  2 -1</clus>
</clustering>
</event>
<event>
 9    2  0.9254368E-005  0.1517563E+03  0.7546771E-02  0.1200375E+00
          2   -1    0    0  502    0 -0.00000000000E+00  0.00000000000E+00  0.47154706816E+03  0.47154706816E+03  0.00000000000E+00 0. -1.
         21   -1    0    0  501  502  0.00000000000E+00 -0.00000000000E+00 -0.39665166648E+03  0.39665166648E+03  0.00000000000E+00 0. -1.
         24    2    1    2    0    0  0.97980714026E+02  0.62646523525E+02  0.34820168855E+03  0.37599752311E+03  0.81270623519E+02 0.  0.
         23    2    1    2    0    0 -0.99244230490E+02 -0.10209055878E+03  0.41601705891E+02  0.17483002146E+03  0.92536128032E+02 0.  0.
        -11    1    3    3    0    0  0.32630923406E+02  0.68132885449E+02  0.20559345177E+03  0.21903318163E+03  0.00000000000E+00 0.  1.
         12    1    3    3    0    0  0.65349790620E+02 -0.54863619246E+01  0.14260823677E+03  0.15696434148E+03  0.00000000000E+00 0. -1.
        -11    1    4    4    0    0 -0.12271003927E+02 -0.59617968948E+02 -0.15021853582E+02  0.62693985708E+02  0.00000000000E+00 0.  1.
         11    1    4    4    0    0 -0.86973226563E+02 -0.42472589834E+02  0.56623559473E+02  0.11213603575E+03  0.00000000000E+00 0. -1.
          1    1    1    2  501    0  0.12635164639E+01  0.39444035257E+02 -0.31490799275E+03  0.31737119007E+03  0.00000000000E+00 0. -1.
<scales pt_clust_5="13000.00000" pt_clust_6="13000.00000" pt_clust_7="13000.00000" pt_clust_8="13000.00000" pt_clust_9="39.46427"></scales>
<clustering>
<clus scale="   39.464">  2  9  1 -1</clus>
<clus scale="   81.271">  5  6 -1 -1</clus>
<clus scale="   92.536">  7  8 -1 -1</clus>
<clus scale="  145.162">  1  5  2 -1</clus>
<clus scale="   39.464">  2  5  1 -1</clus>
</clustering>
</event>
<event>
 9    2  0.9254368E-005  0.1313699E+03  0.7546771E-02  0.1249586E+00
          2   -1    0    0  502    0 -0.00000000000E+00  0.00000000000E+00  0.73012060543E+03  0.73012060543E+03  0.00000000000E+00 0. -1.
         21   -1    0    0  501  502  0.00000000000E+00 -0.00000000000E+00 -0.31535894805E+02  0.31535894805E+02  0.00000000000E+00 0. -1.
         24    2    1    2    0    0  0.15320648736E+02 -0.15005203013E+02  0.26392076498E+03  0.27586004334E+03  0.77360939325E+02 0.  0.
         23    2    1    2    0    0 -0.17985197518E+02 -0.71980089210E+02  0.29941207940E+03  0.32496546421E+03  0.10222699774E+03 0.  0.
        -13    1    3    3    0    0 -0.97415966940E+01  0.26505319429E+02  0.60893757235E+02  0.67122874897E+02  0.00000000000E+00 0.  1.
         14    1    3    3    0    0  0.25062245430E+02 -0.41510522442E+02  0.20302700774E+03  0.20873716845E+03  0.00000000000E+00 0. -1.
        -13    1    4    4    0    0 -0.26999646687E+02 -0.91589483390E+02  0.18140390796E+03  0.20499998100E+03  0.00000000000E+00 0. -1.
         13    1    4    4    0    0  0.90144491692E+01  0.19609394180E+02  0.11800817144E+03  0.11996548320E+03  0.00000000000E+00 0.  1.
          1    1    1    2  501    0  0.26645487817E+01  0.86985292223E+02  0.13525186625E+03  0.16083099269E+03  0.00000000000E+00 0. -1.
<scales pt_clust_5="13000.00000" pt_clust_6="13000.00000" pt_clust_7="13000.00000" pt_clust_8="13000.00000" pt_clust_9="82.50869"></scales>
<clustering>
<clus scale="   77.361">  5  6 -1 -1</clus>
<clus scale="   80.278">  1  5  2 -1</clus>
<clus scale="   82.509">  2  9  1 -1</clus>
<clus scale="  102.227">  7  8 -1 -1</clus>
<clus scale="   82.509">  2  5  1 -1</clus>
</clustering>
</event>
<event>
 9    2  0.9254368E-005  0.1215643E+03  0.7546771E-02  0.1244160E+00
         21   -1    0    0  501  502  0.00000000000E+00  0.00000000000E+00  0.72169366934E+03  0.72169366934E+03  0.00000000000E+00 0. -1.
          4   -1    0    0  502    0 -0.00000000000E+00 -0.00000000000E+00 -0.35768501630E+02  0.35768501630E+02  0.00000000000E+00 0. -1.
         23    2    1    2    0    0 -0.80631856984E+02 -0.22883638293E+02  0.10353625813E+03  0.16179488272E+03  0.91829570744E+02 0.  0.
         24    2    1    2    0    0  0.60515408264E+02  0.18141899739E+02  0.52089824299E+03  0.53079620324E+03  0.80114834198E+02 0.  0.
        -13    1    4    4    0    0  0.42605916655E+02  0.40598628423E+02  0.19636902790E+03  0.20499831190E+03  0.00000000000E+00 0.  1.
         14    1    4    4    0    0  0.17909491609E+02 -0.22456728684E+02  0.32452921509E+03  0.32579789133E+03  0.00000000000E+00 0. -1.
        -11    1    3    3    0    0 -0.55182976232E+00 -0.41759050902E+02  0.29697935273E+02  0.51245392064E+02  0.00000000000E+00 0.  1.
         11    1    3    3    0    0 -0.80080027222E+02  0.18875412608E+02  0.73838322859E+02  0.11054949065E+03  0.00000000000E+00 0. -1.
          3    1    1    2  501    0  0.20116448720E+02  0.47417385543E+01  0.61490666592E+02  0.64871085019E+02  0.00000000000E+00 0. -1.
<scales pt_clust_5="13000.00000" pt_clust_6="13000.00000" pt_clust_7="13000.00000" pt_clust_8="13000.00000" pt_clust_9="20.66774"></scales>
<clustering>
<clus scale="   20.668">  1  9  2 -1</clus>
<clus scale="   80.115">  5  6 -1 -1</clus>
<clus scale="   91.830">  7  8 -1 -1</clus>
<clus scale="  112.976">  1  5  2 -1</clus>
<clus scale="   20.668">  1  5  2 -1</clus>
</clustering>
</event>
<event>
 9    2  0.9254368E-005  0.1169087E+03  0.7546771E-02  0.1251517E+00
          2   -1    0    0  502    0 -0.00000000000E+00  0.00000000000E+00  0.57395896130E+03  0.57395896130E+03  0.00000000000E+00 0. -1.
         21   -1    0    0  501  502  0.00000000000E+00 -0.00000000000E+00 -0.43201501849E+02  0.43201501849E+02  0.00000000000E+00 0. -1.
         23    2    1    2    0    0  0.36992534021E+02  0.64263502070E+02  0.24624193266E+03  0.27285184883E+03  0.91185507289E+02 0.  0.
         24    2    1    2    0    0 -0.93345033175E+01 -0.74466126293E+02  0.77654279007E+02  0.13535733761E+03  0.81603216107E+02 0.  0.
        -11    1    4    4    0    0 -0.22800652924E+02 -0.58146103369E+02  0.90978051154E+02  0.11035327318E+03  0.00000000000E+00 0.  1.
         12    1    4    4    0    0  0.13466149607E+02 -0.16320022924E+02 -0.13323772147E+02  0.25004064424E+02  0.00000000000E+00 0. -1.
        -13    1    3    3    0    0 -0.16989428068E+02  0.30589359365E+02  0.16993594275E+03  0.17350093432E+03  0.00000000000E+00 0.  1.
         13    1    3    3    0    0  0.53981962090E+02  0.33674142705E+02  0.76305989913E+02  0.99350914513E+02  0.00000000000E+00 0. -1.
          1    1    1    2  501    0 -0.27658030704E+02  0.10202624223E+02  0.20686124779E+03  0.20895127671E+03  0.00000000000E+00 0. -1.
<scales pt_clust_5="13000.00000" pt_clust_6="13000.00000" pt_clust_7="13000.00000" pt_clust_8="13000.00000" pt_clust_9="29.47984"></scales>
<clustering>
<clus scale="   29.480">  2  9  1 -1</clus>
<clus scale="   81.603">  5  6 -1 -1</clus>
<clus scale="   91.186">  7  8 -1 -1</clus>
<clus scale="  109.599">  2  5  1 -1</clus>
<clus scale="   29.480">  2  5  1 -1</clus>
</clustering>
</event>
<event>
 9    2  0.9254368E-005  0.1523860E+03  0.7546771E-02  0.1198157E+00
         21   -1    0    0  501  502  0.00000000000E+00  0.00000000000E+00  0.43999023514E+02  0.43999023514E+02  0.00000000000E+00 0.  1.
          2   -1    0    0  502    0 -0.00000000000E+00 -0.00000000000E+00 -0.11747825429E+04  0.11747825429E+04  0.00000000000E+00 0. -1.
         24    2    1    2    0    0 -0.69837999687E+01  0.12186927458E+03 -0.76508719090E+03  0.77890940574E+03  0.80253094125E+02 0.  0.
         23    2    1    2    0    0  0.13740598019E+02 -0.15353145220E+03 -0.17997866575E+03  0.25135373170E+03  0.83819254739E+02 0.  0.
        -11    1    3    3    0    0 -0.33873144862E+02  0.89335701598E+02 -0.39349687972E+03  0.40492968757E+03  0.00000000000E+00 0.  1.
         12    1    3    3    0    0  0.26889344893E+02  0.32533572977E+02 -0.37159031118E+03  0.37397971817E+03  0.00000000000E+00 0. -1.
        -11    1    4    4    0    0 -0.96554651582E+01 -0.21200655089E+02 -0.81461547824E+02  0.84727088688E+02  0.00000000000E+00 0. -1.
         11    1    4    4    0    0  0.23396063177E+02 -0.13233079711E+03 -0.98517117924E+02  0.16662664301E+03  0.00000000000E+00 0.  1.
          1    1    1    2  501    0 -0.67567980505E+01  0.31662177628E+02 -0.18571766272E+03  0.18851842896E+03  0.00000000000E+00 0. -1.
<scales pt_clust_5="13000.00000" pt_clust_6="13000.00000" pt_clust_7="13000.00000" pt_clust_8="13000.00000" pt_clust_9="32.37513"></scales>
<clustering>
<clus scale="   32.375">  1  9  2 -1</clus>
<clus scale="   80.253">  5  6 -1 -1</clus>
<clus scale="   83.819">  7  8 -1 -1</clus>
<clus scale="  150.454">  2  5  1 -1</clus>
<clus scale="   32.375">  1  5  2 -1</clus>
</clustering>
</event>
<event>
 9    2  0.9254368E-005  0.1365381E+03  0.7546771E-02  0.1220797E+00
          2   -1    0    0  502    0 -0.00000000000E+00  0.00000000000E+00  0.45381577229E+03  0.45381577229E+03  0.00000000000E+00 0. -1.
         21   -1    0    0  501  502  0.00000000000E+00 -0.00000000000E+00 -0.85979572807E+02  0.85979572807E+02  0.00000000000E+00 0. -1.
         24    2    1    2    0    0 -0.13462519447E+03  0.62258881492E+01  0.24761953559E+03  0.29296697906E+03  0.79696372209E+02 0.  0.
         23    2    1    2    0    0  0.36118875017E+02 -0.26541847104E+02  0.18095895118E+02  0.10349349738E+03  0.91511746781E+02 0.  0.
        -13    1    3    3    0    0 -0.10037581398E+03  0.90822569293E+01  0.10218018108E+03  0.14352205694E+03  0.00000000000E+00 0.  1.
         14    1    3    3    0    0 -0.34249380489E+02 -0.28563687801E+01  0.14543935451E+03  0.14944492212E+03  0.00000000000E+00 0. -1.
        -11    1    4    4    0    0 -0.15629086234E+01  0.30111385795E+02  0.18644623813E+02  0.35450814306E+02  0.00000000000E+00 0.  1.
         11    1    4    4    0    0  0.37681783640E+02 -0.56653232899E+02 -0.54872869520E+00  0.68042683070E+02  0.00000000000E+00 0. -1.
          1    1    1    2  501    0  0.98506319450E+02  0.20315958955E+02  0.10212076878E+03  0.14333486866E+03  0.00000000000E+00 0. -1.
<scales pt_clust_5="13000.00000" pt_clust_6="13000.00000" pt_clust_7="13000.00000" pt_clust_8="13000.00000" pt_clust_9="100.57954"></scales>
<clustering>
<clus scale="   79.696">  5  6 -1 -1</clus>
<clus scale="   91.512">  7  8 -1 -1</clus>
<clus scale="  100.580">  2  9  1 -1</clus>
<clus scale="  128.918">  1  5  2 -1</clus>
<clus scale="  100.580">  2  5  1 -1</clus>
</clustering>
</event>
<event>
 9    2  0.9254368E-005  0.9956647E+02  0.7546771E-02  0.1290300E+00
         21   -1    0    0  501  502  0.00000000000E+00  0.00000000000E+00  0.86546064316E+02  0.86546064316E+02  0.00000000000E+00 0.  1.
          2   -1    0    0  502    0 -0.00000000000E+00 -0.00000000000E+00 -0.20834140113E+03  0.20834140113E+03  0.00000000000E+00 0. -1.
         23    2    1    2    0    0  0.40640850316E+01  0.52536784450E+02 -0.11518119399E+03  0.15625883582E+03  0.91506752842E+02 0.  0.
         24    2    1    2    0    0 -0.26444046988E+02 -0.32818578861E+01  0.15310664449E+02  0.80253911967E+02  0.74136466923E+02 0.  0.
        -11    1    4    4    0    0 -0.37850008877E+02  0.19495078865E+02  0.28827144218E+02  0.51416782433E+02  0.00000000000E+00 0.  1.
         12    1    4    4    0    0  0.11405961890E+02 -0.22776936751E+02 -0.13516479769E+02  0.28837129534E+02  0.00000000000E+00 0. -1.
        -11    1    3    3    0    0 -0.39721367814E+02  0.33668592760E+02 -0.85466303561E+02  0.10007921984E+03  0.00000000000E+00 0. -1.
         11    1    3    3    0    0  0.43785452845E+02  0.18868191690E+02 -0.29714890426E+02  0.56179615979E+02  0.00000000000E+00 0.  1.
          1    1    1    2  501    0  0.22379961956E+02 -0.49254926564E+02 -0.21924807280E+02  0.58374717663E+02  0.00000000000E+00 0. -1.
<scales pt_clust_5="13000.00000" pt_clust_6="13000.00000" pt_clust_7="13000.00000" pt_clust_8="13000.00000" pt_clust_9="54.10093"></scales>
<clustering>
<clus scale="   54.101">  1  9  2 -1</clus>
<clus scale="   74.136">  5  6 -1 -1</clus>
<clus scale="   83.882">  1  5  2 -1</clus>
<clus scale="   91.507">  7  8 -1 -1</clus>
<clus scale="   54.101">  1  5  2 -1</clus>
</clustering>
</event>
<event>
 9    2  0.9254368E-005  0.1603007E+03  0.7546771E-02  0.1191173E+00
          2   -1    0    0  502    0 -0.00000000000E+00  0.00000000000E+00  0.17001710031E+03  0.17001710031E+03  0.00000000000E+00 0. -1.
         21   -1    0    0  501  502  0.00000000000E+00 -0.00000000000E+00 -0.35073905257E+03  0.35073905257E+03  0.00000000000E+00 0. -1.
         24    2    1    2    0    0  0.38216814495E+02 -0.11804973688E+03  0.88184526583E+02  0.17277862509E+03  0.81729292625E+02 0.  0.
         23    2    1    2    0    0 -0.48604102398E+02  0.13556479433E+03 -0.27592569028E+03  0.32643820755E+03  0.98421260709E+02 0.  0.
        -13    1    3    3    0    0  0.50477733812E+02 -0.28258501971E+02  0.31191412148E+02  0.65722513161E+02  0.00000000000E+00 0.  1.
         14    1    3    3    0    0 -0.12260919318E+02 -0.89791234907E+02  0.56993114435E+02  0.10705611193E+03  0.00000000000E+00 0. -1.
        -13    1    4    4    0    0 -0.18508583355E+02  0.56441442376E+02 -0.30394884089E+02  0.66723706837E+02  0.00000000000E+00 0.  1.
         13    1    4    4    0    0 -0.30095519043E+02  0.79123351950E+02 -0.24553080619E+03  0.25971450071E+03  0.00000000000E+00 0. -1.
          1    1    1    2  501    0  0.10387287903E+02 -0.17515057448E+02  0.70192114351E+01  0.21539320244E+02  0.00000000000E+00 0. -1.
<scales pt_clust_5="13000.00000" pt_clust_6="13000.00000" pt_clust_7="13000.00000" pt_clust_8="13000.00000" pt_clust_9="20.36353"></scales>
<clustering>
<clus scale="   20.364">  2  9  1 -1</clus>
<clus scale="   81.729">  5  6 -1 -1</clus>
<clus scale="   98.421">  7  8 -1 -1</clus>
<clus scale="  150.629">  1  5  2 -1</clus>
<clus scale="   20.364">  2  5  1 -1</clus>
</clustering>
</event>
<event>
 9    2  0.9254368E-005  0.1793793E+03  0.7546771E-02  0.1169565E+00
          2   -1    0    0  502    0 -0.00000000000E+00  0.00000000000E+00  0.59096072875E+03  0.59096072875E+03  0.00000000000E+00 0. -1.
         21   -1    0    0  501  502  0.00000000000E+00 -0.00000000000E+00 -0.10016923248E+03  0.10016923248E+03  0.00000000000E+00 0. -1.
         23    2    1    2    0    0 -0.57644343013E+02  0.12633013798E+03  0.16151241851E+03  0.23172428519E+03  0.91256281814E+02 0.  0.
         24    2    1    2    0    0  0.12584726860E+03 -0.13702890732E+03  0.11321922833E+03  0.23258424570E+03  0.81623411038E+02 0.  0.
        -11    1    4    4    0    0 -0.91562447804E+01 -0.24957972835E+02  0.70464095332E+01  0.27502529226E+02  0.00000000000E+00 0.  1.
         12    1    4    4    0    0  0.13500351338E+03 -0.11207093449E+03  0.10617281880E+03  0.20508171648E+03  0.00000000000E+00 0. -1.
        -13    1    3    3    0    0 -0.53008800565E+02  0.27679336007E+02  0.96366854207E+02  0.11341361986E+03  0.00000000000E+00 0.  1.
         13    1    3    3    0    0 -0.46355424488E+01  0.98650801969E+02  0.65145564303E+02  0.11831066533E+03  0.00000000000E+00 0. -1.
          1    1    1    2  501    0 -0.68202925588E+02  0.10698769347E+02  0.21605984943E+03  0.22682143034E+03  0.00000000000E+00 0. -1.
<scales pt_clust_5="13000.00000" pt_clust_6="13000.00000" pt_clust_7="13000.00000" pt_clust_8="13000.00000" pt_clust_9="69.03700"></scales>
<clustering>
<clus scale="   69.037">  2  9  1 -1</clus>
<clus scale="   81.623">  5  6 -1 -1</clus>
<clus scale="   91.256">  7  8 -1 -1</clus>
<clus scale="  174.676">  2  5  1 -1</clus>
<clus scale="   69.037">  2  5  1 -1</clus>
</clustering>
</event>
<event>
 9    2  0.1007233E-004  0.1884274E+03  0.7546771E-02  0.1182540E+00
         -3   -1    0    0    0  501 -0.00000000000E+00  0.00000000000E+00  0.13984584187E+04  0.13984584187E+04  0.00000000000E+00 0.  1.
         21   -1    0    0  501  502  0.00000000000E+00 -0.00000000000E+00 -0.50878975911E+02  0.50878975911E+02  0.00000000000E+00 0. -1.
         24    2    1    2    0    0 -0.63442225797E+02 -0.45962363294E+02  0.25271971312E+03  0.27656800794E+03  0.80530458605E+02 0.  0.
         23    2    1    2    0    0 -0.13575960665E+03  0.82624277260E+02  0.27885256560E+03  0.33200000224E+03  0.84898799493E+02 0.  0.
        -11    1    3    3    0    0 -0.35857465493E+02 -0.19221327389E+02  0.22633291311E+03  0.22996044185E+03  0.00000000000E+00 0.  1.
         12    1    3    3    0    0 -0.27584760304E+02 -0.26741035905E+02  0.26386800010E+02  0.46607566093E+02  0.00000000000E+00 0. -1.
        -13    1    4    4    0    0  0.46652066716E+01  0.19463153507E+02  0.10476479265E+02  0.22590597945E+02  0.00000000000E+00 0.  1.
         13    1    4    4    0    0 -0.14042481332E+03  0.63161123754E+02  0.26837608634E+03  0.30940940430E+03  0.00000000000E+00 0. -1.
         -4    1    1    2    0  502  0.19920183244E+03 -0.36661913966E+02  0.81600716405E+03  0.84076938441E+03  0.00000000000E+00 0.  1.
<scales pt_clust_5="13000.00000" pt_clust_6="13000.00000" pt_clust_7="13000.00000" pt_clust_8="13000.00000" pt_clust_9="168.21746"></scales>
<clustering>
<clus scale="   80.530">  5  6 -1 -1</clus>
<clus scale="   84.899">  7  8 -1 -1</clus>
<clus scale="  112.350">  1  5  2 -1</clus>
<clus scale="  168.217">  2  9  1 -1</clus>
<clus scale="  168.217">  2  5  1 -1</clus>
</clustering>
</event>
<event>
 9    2  0.9254368E-005  0.9887802E+02  0.7546771E-02  0.1288062E+00
         21   -1    0    0  501  502  0.00000000000E+00  0.00000000000E+00  0.34131120918E+03  0.34131120918E+03  0.00000000000E+00 0. -1.
          4   -1    0    0  502    0 -0.00000000000E+00 -0.00000000000E+00 -0.65052761830E+02  0.65052761830E+02  0.00000000000E+00 0. -1.
         24    2    1    2    0    0 -0.68822145909E+01  0.67600510779E+02  0.62651447796E+02  0.12311388472E+03  0.81330380337E+02 0.  0.
         23    2    1    2    0    0  0.26512515767E+01  0.17914134613E+02  0.14934450076E+03  0.17619718172E+03  0.91726340736E+02 0.  0.
        -11    1    3    3    0    0  0.36848879683E+02  0.34585884168E+02  0.23278594516E+02  0.55640958657E+02  0.00000000000E+00 0.  1.
         12    1    3    3    0    0 -0.43731094274E+02  0.33014626610E+02  0.39372853280E+02  0.67472926067E+02  0.00000000000E+00 0. -1.
        -13    1    4    4    0    0 -0.38897439999E+02  0.30118926980E+02  0.66517319398E+02  0.82732789030E+02  0.00000000000E+00 0.  1.
         13    1    4    4    0    0  0.41548691575E+02 -0.12204792367E+02  0.82827181364E+02  0.93464392690E+02  0.00000000000E+00 0. -1.
          3    1    1    2  501    0  0.42309630141E+01 -0.85514645391E+02  0.64262498787E+02  0.10705290456E+03  0.00000000000E+00 0. -1.
<scales pt_clust_5="13000.00000" pt_clust_6="13000.00000" pt_clust_7="13000.00000" pt_clust_8="13000.00000" pt_clust_9="85.61929"></scales>
<clustering>
<clus scale="   81.330">  5  6 -1 -1</clus>
<clus scale="   85.619">  1  9  2 -1</clus>
<clus scale="   89.318">  2  5  1 -1</clus>
<clus scale="   91.726">  7  8 -1 -1</clus>
<clus scale="   85.619">  1  5  2 -1</clus>
</clustering>
</event>
<event>
 9    2  0.9254368E-005  0.2221512E+03  0.7546771E-02  0.1157012E+00
         -1   -1    0    0    0  501 -0.00000000000E+00  0.00000000000E+00  0.63791389976E+03  0.63791389976E+03  0.00000000000E+00 0.  1.
         21   -1    0    0  501  502  0.00000000000E+00 -0.00000000000E+00 -0.24026787763E+03  0.24026787763E+03  0.00000000000E+00 0. -1.
         23    2    1    2    0    0 -0.82952999227E+02 -0.23292098640E+02 -0.82269220487E+02  0.14794842807E+03  0.87731355792E+02 0.  0.
         24    2    1    2    0    0 -0.17517831718E+03 -0.72954273786E+02  0.37893201180E+02  0.20938920196E+03  0.79988588744E+02 0.  0.
        -11    1    4    4    0    0 -0.10111516643E+03 -0.64040376304E+01  0.42131508187E+02  0.10972854032E+03  0.00000000000E+00 0.  1.
         12    1    4    4    0    0 -0.74063150749E+02 -0.66550236156E+02 -0.42383070079E+01  0.99660661635E+02  0.00000000000E+00 0. -1.
        -13    1    3    3    0    0  0.10202910942E+02 -0.20446086367E+02  0.11354241074E+01  0.22878615065E+02  0.00000000000E+00 0.  1.
         13    1    3    3    0    0 -0.93155910168E+02 -0.28460122732E+01 -0.83404644595E+02  0.12506981301E+03  0.00000000000E+00 0. -1.
         -2    1    1    2    0  502  0.25813131640E+03  0.96246372426E+02  0.44202204144E+03  0.52084414735E+03  0.00000000000E+00 0.  1.
<scales pt_clust_5="13000.00000" pt_clust_6="13000.00000" pt_clust_7="13000.00000" pt_clust_8="13000.00000" pt_clust_9="207.25110"></scales>
<clustering>
<clus scale="   79.989">  5  6 -1 -1</clus>
<clus scale="   87.731">  7  8 -1 -1</clus>
<clus scale="  122.966">  1  7  2 -1</clus>
<clus scale="  207.251">  2  9  1 -1</clus>
<clus scale="  207.251">  2  5  1 -1</clus>
</clustering>
</event>
<event>
 9    2  0.9254368E-005  0.2191930E+03  0.7546771E-02  0.1135375E+00
         21   -1    0    0  501  502  0.00000000000E+00  0.00000000000E+00  0.54308629595E+03  0.54308629595E+03  0.00000000000E+00 0.  1.
         -3   -1    0    0    0  501 -0.00000000000E+00 -0.00000000000E+00 -0.24191639227E+03  0.24191639227E+03  0.00000000000E+00 0.  1.
         23    2    1    2    0    0  0.10477333006E+02  0.19477402035E+03  0.83035497522E+02  0.23001362915E+03  0.89245068411E+02 0.  0.
         24    2    1    2    0    0  0.19342556418E+03 -0.10879813871E+03 -0.11327221817E+02  0.23620875476E+03  0.80098601771E+02 0.  0.
        -11    1    4    4    0    0  0.17822808589E+03 -0.92143466112E+02 -0.34831272438E+02  0.20363910844E+03  0.00000000000E+00 0.  1.
         12    1    4    4    0    0  0.15197478291E+02 -0.16654672595E+02  0.23504050621E+02  0.32569646317E+02  0.00000000000E+00 0. -1.
        -11    1    3    3    0    0  0.26809951950E+02  0.41759953856E+02 -0.93920531148E+01  0.50506216759E+02  0.00000000000E+00 0. -1.
         11    1    3    3    0    0 -0.16332618944E+02  0.15301406649E+03  0.92427550636E+02  0.17950741239E+03  0.00000000000E+00 0.  1.
         -4    1    1    2    0  502 -0.20390289718E+03 -0.85975881640E+02  0.22946162798E+03  0.31878030432E+03  0.00000000000E+00 0.  1.
<scales pt_clust_5="13000.00000" pt_clust_6="13000.00000" pt_clust_7="13000.00000" pt_clust_8="13000.00000" pt_clust_9="204.03374"></scales>
<clustering>
<clus scale="   80.099">  5  6 -1 -1</clus>
<clus scale="   89.245">  7  8 -1 -1</clus>
<clus scale="  214.503">  2  7  1 -1</clus>
<clus scale="  204.034">  1  9  2 -1</clus>
<clus scale="  204.034">  1  5  2 -1</clus>
</clustering>
</event>
<event>
 9    2  0.9254368E-005  0.9288567E+02  0.7546771E-02  0.1303023E+00
         21   -1    0    0  501  502  0.00000000000E+00  0.00000000000E+00  0.51061218713E+03  0.51061218713E+03  0.00000000000E+00 0. -1.
          4   -1    0    0  502    0 -0.00000000000E+00 -0.00000000000E+00 -0.42361706503E+02  0.42361706503E+02  0.00000000000E+00 0. -1.
         23    2    1    2    0    0 -0.16955666813E+02  0.66567083026E+01  0.54691456067E+02  0.10800750090E+03  0.91338154573E+02 0.  0.
         24    2    1    2    0    0 -0.24494186157E+02 -0.46244175286E+02  0.33077612677E+03  0.34427743594E+03  0.79847466808E+02 0.  0.
        -13    1    4    4    0    0 -0.32037582777E+02  0.11361366819E+02  0.81191171065E+02  0.88019847904E+02  0.00000000000E+00 0.  1.
         14    1    4    4    0    0  0.75433966195E+01 -0.57605542104E+02  0.24958495570E+03  0.25625758804E+03  0.00000000000E+00 0. -1.
        -11    1    3    3    0    0  0.98345817210E+00 -0.36336200269E+02  0.24378785649E+00  0.36350324242E+02  0.00000000000E+00 0. -1.
         11    1    3    3    0    0 -0.17939124985E+02  0.42992908571E+02  0.54447668211E+02  0.71657176656E+02  0.00000000000E+00 0.  1.
          3    1    1    2  501    0  0.41449852970E+02  0.39587466983E+02  0.82782897790E+02  0.10068895679E+03  0.00000000000E+00 0. -1.
<scales pt_clust_5="13000.00000" pt_clust_6="13000.00000" pt_clust_7="13000.00000" pt_clust_8="13000.00000" pt_clust_9="57.31720"></scales>
<clustering>
<clus scale="   57.317">  1  9  2 -1</clus>
<clus scale="   79.847">  5  6 -1 -1</clus>
<clus scale="   81.613">  1  5  2 -1</clus>
<clus scale="   91.338">  7  8 -1 -1</clus>
<clus scale="   57.317">  1  5  2 -1</clus>
</clustering>
</event>
<event>
 9    2  0.9254368E-005  0.1212076E+03  0.7546771E-02  0.1245240E+00
         21   -1    0    0  501  502  0.00000000000E+00  0.00000000000E+00  0.23395275249E+02  0.23395275249E+02  0.00000000000E+00 0. -1.
          2   -1    0    0  502    0 -0.00000000000E+00 -0.00000000000E+00 -0.11444421151E+04  0.11444421151E+04  0.00000000000E+00 0. -1.
         24    2    1    2    0    0 -0.52786974128E+02 -0.50369181047E+02 -0.74233705317E+03  0.75026616820E+03  0.80693888224E+02 0.  0.
         23    2    1    2    0    0  0.52167212783E+02  0.72112320743E+02 -0.37349464497E+03  0.39520280843E+03  0.93623742051E+02 0.  0.
        -11    1    3    3    0    0 -0.54234617507E+02 -0.35125694026E+02 -0.26790871959E+03  0.27559080200E+03  0.00000000000E+00 0.  1.
         12    1    3    3    0    0  0.14476433785E+01 -0.15243487021E+02 -0.47442833358E+03  0.47467536620E+03  0.00000000000E+00 0. -1.
        -11    1    4    4    0    0  0.68731985708E+02  0.27368377460E+02 -0.28742724653E+03  0.29679544470E+03  0.00000000000E+00 0.  1.
         11    1    4    4    0    0 -0.16564772925E+02  0.44743943283E+02 -0.86067398444E+02  0.98407363736E+02  0.00000000000E+00 0. -1.
          1    1    1    2  501    0  0.61976134522E+00 -0.21743139696E+02 -0.52151416686E+01  0.22368413680E+02  0.00000000000E+00 0. -1.
<scales pt_clust_5="13000.00000" pt_clust_6="13000.00000" pt_clust_7="13000.00000" pt_clust_8="13000.00000" pt_clust_9="21.75197"></scales>
<clustering>
<clus scale="   21.752">  1  9  2 -1</clus>
<clus scale="   80.694">  5  6 -1 -1</clus>
<clus scale="   93.624">  7  8 -1 -1</clus>
<clus scale="  111.523">  2  5  1 -1</clus>
<clus scale="   21.752">  1  5  2 -1</clus>
</clustering>
</event>
<event>
 9    2  0.9254368E-005  0.1510502E+03  0.7546771E-02  0.1201094E+00
          2   -1    0    0  502    0 -0.00000000000E+00  0.00000000000E+00  0.22718861962E+03  0.22718861962E+03  0.00000000000E+00 0. -1.
         21   -1    0    0  501  502  0.00000000000E+00 -0.00000000000E+00 -0.25176418557E+03  0.25176418557E+03  0.00000000000E+00 0.  1.
         23    2    1    2    0    0  0.51883745674E+02 -0.10536018804E+03  0.15795471232E+03  0.21687764900E+03  0.91068826727E+02 0.  0.
         24    2    1    2    0    0 -0.50140706937E+02  0.13087452338E+03 -0.14836633609E+03  0.21939970144E+03  0.80507316119E+02 0.  0.
        -11    1    4    4    0    0 -0.52569717431E+02  0.10046685261E+03 -0.15094121461E+03  0.18878668897E+03  0.00000000000E+00 0.  1.
         12    1    4    4    0    0  0.24290104939E+01  0.30407670765E+02  0.25748785228E+01  0.30613012474E+02  0.00000000000E+00 0. -1.
        -11    1    3    3    0    0  0.27995747434E+02  0.69786413090E+01  0.12238036210E+02  0.31340594110E+02  0.00000000000E+00 0.  1.
         11    1    3    3    0    0  0.23887998239E+02 -0.11233882935E+03  0.14571667611E+03  0.18553705489E+03  0.00000000000E+00 0. -1.
          1    1    1    2  501    0 -0.17430387364E+01 -0.25514335340E+02 -0.34163942193E+02  0.42675454749E+02  0.00000000000E+00 0. -1.
<scales pt_clust_5="13000.00000" pt_clust_6="13000.00000" pt_clust_7="13000.00000" pt_clust_8="13000.00000" pt_clust_9="25.57380"></scales>
<clustering>
<clus scale="   25.574">  2  9  1 -1</clus>
<clus scale="   80.507">  5  6 -1 -1</clus>
<clus scale="   91.069">  7  8 -1 -1</clus>
<clus scale="  144.928">  2  5  1 -1</clus>
<clus scale="   25.574">  2  5  1 -1</clus>
</clustering>
</event>
<event>
 9    2  0.9254368E-005  0.9923713E+02  0.7546771E-02  0.1287458E+00
         21   -1    0    0  501  502  0.00000000000E+00  0.00000000000E+00  0.68258860710E+02  0.68258860710E+02  0.00000000000E+00 0. -1.
          4   -1    0    0  502    0 -0.00000000000E+00 -0.00000000000E+00 -0.30947053470E+03  0.30947053470E+03  0.00000000000E+00 0. -1.
         24    2    1    2    0    0 -0.21664801545E+02  0.38379485191E+02 -0.19182341095E+03  0.21251631797E+03  0.80153701752E+02 0.  0.
         23    2    1    2    0    0 -0.19688612689E+02 -0.37613868937E+02 -0.66486586315E+02  0.12045770128E+03  0.91033768630E+02 0.  0.
        -13    1    3    3    0    0 -0.11018244098E+02  0.61503496438E+02 -0.10649894130E+03  0.12347512411E+03  0.00000000000E+00 0.  1.
         14    1    3    3    0    0 -0.10646557448E+02 -0.23124011247E+02 -0.85324469652E+02  0.89041193855E+02  0.00000000000E+00 0. -1.
        -11    1    4    4    0    0  0.24297133821E+02 -0.83226121131E+01 -0.62370485029E+02  0.67451419459E+02  0.00000000000E+00 0.  1.
         11    1    4    4    0    0 -0.43985746510E+02 -0.29291256823E+02 -0.41161012861E+01  0.53006281817E+02  0.00000000000E+00 0. -1.
          3    1    1    2  501    0  0.41353414234E+02 -0.76561625424E+00  0.17098323274E+02  0.44755376167E+02  0.00000000000E+00 0. -1.
<scales pt_clust_5="13000.00000" pt_clust_6="13000.00000" pt_clust_7="13000.00000" pt_clust_8="13000.00000" pt_clust_9="41.36050"></scales>
<clustering>
<clus scale="   41.361">  1  9  2 -1</clus>
<clus scale="   80.154">  5  6 -1 -1</clus>
<clus scale="   89.361">  2  5  1 -1</clus>
<clus scale="   91.034">  7  8 -1 -1</clus>
<clus scale="   41.361">  1  5  2 -1</clus>
</clustering>
</event>
<event>
 9    2  0.9254368E-005  0.1384061E+03  0.7546771E-02  0.1229853E+00
         21   -1    0    0  501  502  0.00000000000E+00  0.00000000000E+00  0.22374440324E+03  0.22374440324E+03  0.00000000000E+00 0. -1.
          2   -1    0    0  502    0 -0.00000000000E+00 -0.00000000000E+00 -0.15414429168E+03  0.15414429168E+03  0.00000000000E+00 0. -1.
         24    2    1    2    0    0  0.46274922161E+02  0.44857090209E+02  0.17402277850E+02  0.10397577885E+03  0.79715722098E+02 0.  0.
         23    2    1    2    0    0  0.36366753571E+02 -0.10879164289E+03 -0.17876515729E+02  0.14810477625E+03  0.91963539545E+02 0.  0.
        -11    1    3    3    0    0  0.28070073678E+02  0.13309116261E+02  0.47479075076E+02  0.56739088660E+02  0.00000000000E+00 0.  1.
         12    1    3    3    0    0  0.18204848484E+02  0.31547973948E+02 -0.30076797226E+02  0.47236690188E+02  0.00000000000E+00 0. -1.
        -11    1    4    4    0    0  0.48987937763E+02 -0.65990325511E+02 -0.47136484773E+02  0.94743808790E+02  0.00000000000E+00 0.  1.
         11    1    4    4    0    0 -0.12621184192E+02 -0.42801317382E+02  0.29259969044E+02  0.53360967462E+02  0.00000000000E+00 0. -1.
          1    1    1    2  501    0 -0.82641675732E+02  0.63934552684E+02  0.70074349436E+02  0.12580813981E+03  0.00000000000E+00 0. -1.
<scales pt_clust_5="13000.00000" pt_clust_6="13000.00000" pt_clust_7="13000.00000" pt_clust_8="13000.00000" pt_clust_9="103.43570"></scales>
<clustering>
<clus scale="   79.716">  5  6 -1 -1</clus>
<clus scale="   91.964">  7  8 -1 -1</clus>
<clus scale="  102.509">  2  5  1 -1</clus>
<clus scale="  103.436">  1  9  2 -1</clus>
<clus scale="  103.436">  1  5  2 -1</clus>
</clustering>
</event>
<event>
 9    2  0.9254368E-005  0.1628740E+03  0.7546771E-02  0.1214602E+00
          2   -1    0    0  502    0 -0.00000000000E+00  0.00000000000E+00  0.20063814351E+04  0.20063814351E+04  0.00000000000E+00 0. -1.
         21   -1    0    0  501  502  0.00000000000E+00 -0.00000000000E+00 -0.20522011533E+02  0.20522011533E+02  0.00000000000E+00 0. -1.
         24    2    1    2    0    0 -0.10282069289E+02  0.28994115844E+02  0.74157599508E+03  0.74660863891E+03  0.80889576097E+02 0.  0.
         23    2    1    2    0    0  0.13434810220E+03 -0.61008399988E+02  0.74389163578E+03  0.76375899955E+03  0.90452231445E+02 0.  0.
        -13    1    3    3    0    0  0.61913431352E+01  0.30750451257E+02  0.99680717293E+02  0.10449960948E+03  0.00000000000E+00 0.  1.
         14    1    3    3    0    0 -0.16473412424E+02 -0.17563354131E+01  0.64189527778E+03  0.64210902943E+03  0.00000000000E+00 0. -1.
        -13    1    4    4    0    0  0.56083514051E+02 -0.74547190651E+02  0.42602599567E+03  0.43612015909E+03  0.00000000000E+00 0.  1.
         13    1    4    4    0    0  0.78264588153E+02  0.13538790664E+02  0.31786564011E+03  0.32763884045E+03  0.00000000000E+00 0. -1.
          1    1    1    2  501    0 -0.12406603292E+03  0.32014284143E+02  0.50039179268E+03  0.51653580814E+03  0.00000000000E+00 0. -1.
<scales pt_clust_5="13000.00000" pt_clust_6="13000.00000" pt_clust_7="13000.00000" pt_clust_8="13000.00000" pt_clust_9="135.44868"></scales>
<clustering>
<clus scale="   80.890">  5  6 -1 -1</clus>
<clus scale="   86.542">  1  5  2 -1</clus>
<clus scale="   90.452">  7  8 -1 -1</clus>
<clus scale="  135.449">  2  9  1 -1</clus>
<clus scale="  135.449">  2  5  1 -1</clus>
</clustering>
</event>
<event>
 9    2  0.9254368E-005  0.9832883E+02  0.7546771E-02  0.1289287E+00
          2   -1    0    0  502    0 -0.00000000000E+00  0.00000000000E+00  0.28988796724E+03  0.28988796724E+03  0.00000000000E+00 0. -1.
         21   -1    0    0  501  502  0.00000000000E+00 -0.00000000000E+00 -0.28242969414E+03  0.28242969414E+03  0.00000000000E+00 0. -1.
         24    2    1    2    0    0  0.45707987455E+02  0.10950416772E+02  0.22534970878E+03  0.24375975935E+03  0.80169802822E+02 0.  0.
         23    2    1    2    0    0 -0.65596070928E+00  0.15634524746E+00  0.14301289580E+02  0.91774230833E+02  0.90650580986E+02 0.  0.
        -13    1    3    3    0    0  0.73464997513E+01 -0.27456955468E+02  0.31385683770E+02  0.42342846006E+02  0.00000000000E+00 0.  1.
         14    1    3    3    0    0  0.38361487704E+02  0.38407372240E+02  0.19396402501E+03  0.20141691334E+03  0.00000000000E+00 0. -1.
        -11    1    4    4    0    0  0.38383681686E+02 -0.22719182640E+02  0.13188933236E+02  0.46512538519E+02  0.00000000000E+00 0.  1.
         11    1    4    4    0    0 -0.39039642396E+02  0.22875527887E+02  0.11123563446E+01  0.45261692314E+02  0.00000000000E+00 0. -1.
          1    1    1    2  501    0 -0.45052026746E+02 -0.11106762019E+02 -0.23219272527E+03  0.23678367119E+03  0.00000000000E+00 0. -1.
<scales pt_clust_5="13000.00000" pt_clust_6="13000.00000" pt_clust_7="13000.00000" pt_clust_8="13000.00000" pt_clust_9="46.40092"></scales>
<clustering>
<clus scale="   46.401">  2  9  1 -1</clus>
<clus scale="   80.170">  5  6 -1 -1</clus>
<clus scale="   88.759">  1  5  2 -1</clus>
<clus scale="   90.651">  7  8 -1 -1</clus>
<clus scale="   46.401">  2  5  1 -1</clus>
</clustering>
</event>
<event>
 9    2  0.9366647E-005  0.2346269E+03  0.7546771E-02  0.1123681E+00
          2   -1    0    0  502    0 -0.00000000000E+00  0.00000000000E+00  0.99762802093E+03  0.99762802093E+03  0.00000000000E+00 0. -1.
         21   -1    0    0  501  502  0.00000000000E+00 -0.00000000000E+00 -0.11914920829E+03  0.11914920829E+03  0.00000000000E+00 0.  1.
         23    2    1    2    0    0 -0.14183220840E+03  0.14293898286E+03  0.44944524765E+03  0.50036507274E+03  0.88409542589E+02 0.  0.
         24    2    1    2    0    0  0.18848411240E+03 -0.19797824896E+03  0.13997983907E+03  0.31848972123E+03  0.84378311754E+02 0.  0.
        -13    1    4    4    0    0  0.17096716016E+03 -0.20273262589E+03  0.11878732576E+03  0.29058684797E+03  0.00000000000E+00 0.  1.
         14    1    4    4    0    0  0.17516952236E+02  0.47543769254E+01  0.21192513312E+02  0.27902873259E+02  0.00000000000E+00 0. -1.
        -11    1    3    3    0    0 -0.90805469599E+02  0.14083919786E+03  0.36588842685E+03  0.40243714275E+03  0.00000000000E+00 0. -1.
         11    1    3    3    0    0 -0.51026738799E+02  0.20997850020E+01  0.83556820804E+02  0.97927929991E+02  0.00000000000E+00 0.  1.
          1    1    1    2  501    0 -0.46651904003E+02  0.55039266106E+02  0.28905372592E+03  0.29792243525E+03  0.00000000000E+00 0. -1.
<scales pt_clust_5="13000.00000" pt_clust_6="13000.00000" pt_clust_7="13000.00000" pt_clust_8="13000.00000" pt_clust_9="72.15072"></scales>
<clustering>
<clus scale="   72.151">  2  9  1 -1</clus>
<clus scale="   84.378">  5  6 -1 -1</clus>
<clus scale="   88.410">  7  8 -1 -1</clus>
<clus scale="  233.138">  2  5  1 -1</clus>
<clus scale="   72.151">  2  5  1 -1</clus>
</clustering>
</event>
<event>
 9    2  0.9254368E-005  0.1838229E+03  0.7546771E-02  0.1192156E+00
         21   -1    0    0  501  502  0.00000000000E+00  0.00000000000E+00  0.59114235050E+02  0.59114235050E+02  0.00000000000E+00 0. -1.
          2   -1    0    0  502    0 -0.00000000000E+00 -0.00000000000E+00 -0.12840156544E+04  0.12840156544E+04  0.00000000000E+00 0. -1.
         24    2    1    2    0    0 -0.53749204290E+02 -0.13593523196E+02 -0.47392287360E+02  0.10863163433E+03  0.80504920609E+02 0.  0.
         23    2    1    2    0    0 -0.13494688890E+03 -0.34906626459E+02 -0.41204650399E+03  0.44463021869E+03  0.92111750212E+02 0.  0.
        -11    1    3    3    0    0 -0.31364993463E+02 -0.42366195983E+02 -0.49235957450E+02  0.72130693072E+02  0.00000000000E+00 0.  1.
         12    1    3    3    0    0 -0.22384210826E+02  0.28772672787E+02  0.18436700903E+01  0.36500941262E+02  0.00000000000E+00 0. -1.
        -11    1    4    4    0    0 -0.45505100397E+02  0.30021736495E+02 -0.10521737382E+03  0.11850196023E+03  0.00000000000E+00 0.  1.
         11    1    4    4    0    0 -0.89441788506E+02 -0.64928362954E+02 -0.30682913016E+03  0.32612825846E+03  0.00000000000E+00 0. -1.
          1    1    1    2  501    0  0.18869609319E+03  0.48500149655E+02 -0.76546262802E+03  0.78986803645E+03  0.00000000000E+00 0. -1.
<scales pt_clust_5="13000.00000" pt_clust_6="13000.00000" pt_clust_7="13000.00000" pt_clust_8="13000.00000" pt_clust_9="159.07951"></scales>
<clustering>
<clus scale="   80.505">  5  6 -1 -1</clus>
<clus scale="   92.112">  7  8 -1 -1</clus>
<clus scale="   97.749">  2  5  1 -1</clus>
<clus scale="  159.080">  1  9  2 -1</clus>
<clus scale="  159.080">  1  5  2 -1</clus>
</clustering>
</event>
<event>
 9    2  0.9254368E-005  0.4239950E+03  0.7546771E-02  0.1035774E+00
          2   -1    0    0  502    0 -0.00000000000E+00  0.00000000000E+00  0.91401354327E+03  0.91401354327E+03  0.00000000000E+00 0. -1.
         21   -1    0    0  501  502  0.00000000000E+00 -0.00000000000E+00 -0.22520572230E+03  0.22520572230E+03  0.00000000000E+00 0.  1.
         24    2    1    2    0    0  0.10052808629E+03  0.27174805040E+03  0.45214524261E+02  0.30430478096E+03  0.81265906013E+02 0.  0.
         23    2    1    2    0    0  0.56961771981E+02  0.57139676263E+02  0.37651834741E+02  0.12771207544E+03  0.91559420512E+02 0.  0.
        -11    1    3    3    0    0  0.68579172815E+02  0.87484610508E+02 -0.29126310068E+01  0.11119866653E+03  0.00000000000E+00 0.  1.
         12    1    3    3    0    0  0.31948913472E+02  0.18426343989E+03  0.48127155267E+02  0.19310611442E+03  0.00000000000E+00 0. -1.
        -11    1    4    4    0    0  0.81877996085E+01  0.68280941952E+02  0.72072976289E+01  0.69146744214E+02  0.00000000000E+00 0.  1.
         11    1    4    4    0    0  0.48773972372E+02 -0.11141265690E+02  0.30444537113E+02  0.58565331230E+02  0.00000000000E+00 0. -1.
          1    1    1    2  501    0 -0.15748985827E+03 -0.32888772666E+03  0.60594146196E+03  0.70720240917E+03  0.00000000000E+00 0. -1.
<scales pt_clust_5="13000.00000" pt_clust_6="13000.00000" pt_clust_7="13000.00000" pt_clust_8="13000.00000" pt_clust_9="364.65096"></scales>
<clustering>
<clus scale="   81.266">  5  6 -1 -1</clus>
<clus scale="   91.559">  7  8 -1 -1</clus>
<clus scale="   97.809">  5  7 -1 -1</clus>
<clus scale="  364.651">  2  9  1 -1</clus>
<clus scale="  364.651">  2  5  1 -1</clus>
</clustering>
</event>
<event>
 9    2  0.9254368E-005  0.1213013E+03  0.7546771E-02  0.1244346E+00
         21   -1    0    0  501  502  0.00000000000E+00  0.00000000000E+00  0.12839516965E+03  0.12839516965E+03  0.00000000000E+00 0.  1.
          2   -1    0    0  502    0 -0.00000000000E+00 -0.00000000000E+00 -0.67744914517E+03  0.67744914517E+03  0.00000000000E+00 0. -1.
         23    2    1    2    0    0  0.44588962844E+02 -0.62881091112E+02 -0.58337639273E+03  0.59554987556E+03  0.91702952294E+02 0.  0.
         24    2    1    2    0    0 -0.99850478048E+02  0.71821232624E+02  0.43739634316E+02  0.15352785427E+03  0.80803706630E+02 0.  0.
        -13    1    4    4    0    0 -0.54256209727E+02  0.27105132195E+02  0.62376973446E+02  0.87001789071E+02  0.00000000000E+00 0.  1.
         14    1    4    4    0    0 -0.45594268321E+02  0.44716100429E+02 -0.18637339130E+02  0.66526065201E+02  0.00000000000E+00 0. -1.
        -11    1    3    3    0    0 -0.21034059305E+02 -0.47149741655E+02 -0.22173821181E+03  0.22766941904E+03  0.00000000000E+00 0.  1.
         11    1    3    3    0    0  0.65623022149E+02 -0.15731349457E+02 -0.36163818092E+03  0.36788045652E+03  0.00000000000E+00 0. -1.
          1    1    1    2  501    0  0.55261515204E+02 -0.89401415119E+01 -0.94172171123E+01  0.56766584987E+02  0.00000000000E+00 0. -1.
<scales pt_clust_5="13000.00000" pt_clust_6="13000.00000" pt_clust_7="13000.00000" pt_clust_8="13000.00000" pt_clust_9="55.98001"></scales>
<clustering>
<clus scale="   55.980">  1  9  2 -1</clus>
<clus scale="   80.804">  5  6 -1 -1</clus>
<clus scale="   91.703">  7  8 -1 -1</clus>
<clus scale="  113.286">  1  5  2 -1</clus>
<clus scale="   55.980">  1  5  2 -1</clus>
</clustering>
</event>
<event>
 9    2  0.9254368E-005  0.1264893E+03  0.7546771E-02  0.1235608E+00
          2   -1    0    0  502    0 -0.00000000000E+00  0.00000000000E+00  0.47964241954E+03  0.47964241954E+03  0.00000000000E+00 0. -1.
         21   -1    0    0  501  502  0.00000000000E+00 -0.00000000000E+00 -0.22001751709E+03  0.22001751709E+03  0.00000000000E+00 0. -1.
         23    2    1    2    0    0 -0.31685161423E+02 -0.83733500405E+02  0.43554632254E+03  0.45375114382E+03  0.90411575004E+02 0.  0.
         24    2    1    2    0    0  0.82005998156E+01  0.79395297492E+02 -0.60858056117E+02  0.12839316675E+03  0.80063969252E+02 0.  0.
        -11    1    4    4    0    0  0.36265048460E+02  0.64628303329E+02 -0.62055055695E+02  0.96658167106E+02  0.00000000000E+00 0.  1.
         12    1    4    4    0    0 -0.28064448645E+02  0.14766994162E+02  0.11969995778E+01  0.31734999643E+02  0.00000000000E+00 0. -1.
        -11    1    3    3    0    0 -0.59998635750E+02 -0.77628990154E+02  0.34555811095E+03  0.35921651472E+03  0.00000000000E+00 0. -1.
         11    1    3    3    0    0  0.28313474326E+02 -0.61045102514E+01  0.89988211595E+02  0.94534629105E+02  0.00000000000E+00 0.  1.
          1    1    1    2  501    0  0.23484561608E+02  0.43382029133E+01 -0.11506336397E+03  0.11751562606E+03  0.00000000000E+00 0. -1.
<scales pt_clust_5="13000.00000" pt_clust_6="13000.00000" pt_clust_7="13000.00000" pt_clust_8="13000.00000" pt_clust_9="23.88189"></scales>
<clustering>
<clus scale="   23.882">  2  9  1 -1</clus>
<clus scale="   80.064">  5  6 -1 -1</clus>
<clus scale="   90.412">  7  8 -1 -1</clus>
<clus scale="  119.313">  2  5  1 -1</clus>
<clus scale="   23.882">  2  5  1 -1</clus>
</clustering>
</event>
<event>
 9    2  0.1231652E-004  0.1292207E+03  0.7546771E-02  0.1233467E+00
         -3   -1    0    0    0  501 -0.00000000000E+00  0.00000000000E+00  0.50486685383E+03  0.50486685383E+03  0.00000000000E+00 0.  1.
         21   -1    0    0  501  502  0.00000000000E+00 -0.00000000000E+00 -0.24209755561E+03  0.24209755561E+03  0.00000000000E+00 0.  1.
         23    2    1    2    0    0  0.18492026705E+02  0.84829864002E+02  0.44663739965E+03  0.46568906393E+03  0.99213288495E+02 0.  0.
         24    2    1    2    0    0 -0.70850602425E+02 -0.31584144212E+02 -0.41759749688E+02  0.12074089201E+03  0.82565854207E+02 0.  0.
        -11    1    4    4    0    0 -0.81133966570E+02 -0.27201722300E+01 -0.38745672001E+02  0.89951914750E+02  0.00000000000E+00 0.  1.
         12    1    4    4    0    0  0.10283364145E+02 -0.28863971982E+02 -0.30140776865E+01  0.30788977265E+02  0.00000000000E+00 0. -1.
        -13    1    3    3    0    0  0.45871267380E+02  0.90166645525E+02  0.38435179288E+03  0.39744244593E+03  0.00000000000E+00 0.  1.
         13    1    3    3    0    0 -0.27379240675E+02 -0.53367815234E+01  0.62285606775E+02  0.68246617999E+02  0.00000000000E+00 0. -1.
         -4    1    1    2    0  502  0.52358575720E+02 -0.53245719790E+02 -0.14210835174E+03  0.16053445351E+03  0.00000000000E+00 0.  1.
<scales pt_clust_5="13000.00000" pt_clust_6="13000.00000" pt_clust_7="13000.00000" pt_clust_8="13000.00000" pt_clust_9="74.67615"></scales>
<clustering>
<clus scale="   74.676">  2  9  1 -1</clus>
<clus scale="   82.566">  5  6 -1 -1</clus>
<clus scale="   99.213">  7  8 -1 -1</clus>
<clus scale="  116.927">  2  5  1 -1</clus>
<clus scale="   74.676">  2  5  1 -1</clus>
</clustering>
</event>
<event>
 9    2  0.9254368E-005  0.1553305E+03  0.7546771E-02  0.1217437E+00
         -1   -1    0    0    0  501 -0.00000000000E+00  0.00000000000E+00  0.18858438676E+03  0.18858438676E+03  0.00000000000E+00 0.  1.
         21   -1    0    0  501  502  0.00000000000E+00 -0.00000000000E+00 -0.20052969205E+03  0.20052969205E+03  0.00000000000E+00 0. -1.
         24    2    1    2    0    0  0.18553705941E+02  0.42745991816E+02 -0.42431086778E+02  0.10310636206E+03  0.81603094014E+02 0.  0.
         23    2    1    2    0    0  0.11480718633E+03 -0.15024325594E+02  0.21842990847E+02  0.14952212705E+03  0.92050691663E+02 0.  0.
        -13    1    3    3    0    0 -0.72894555433E+01 -0.22168249737E+02 -0.50900417889E+01  0.23884639079E+02  0.00000000000E+00 0.  1.
         14    1    3    3    0    0  0.25843161484E+02  0.64914241553E+02 -0.37341044989E+02  0.79221722986E+02  0.00000000000E+00 0. -1.
        -13    1    4    4    0    0  0.36092009456E+02 -0.45857386402E+02 -0.99573967320E+01  0.59200361349E+02  0.00000000000E+00 0.  1.
         13    1    4    4    0    0  0.78715176872E+02  0.30833060808E+02  0.31800387579E+02  0.90321765699E+02  0.00000000000E+00 0. -1.
         -2    1    1    2    0  502 -0.13336089227E+03 -0.27721666223E+02  0.86427906454E+01  0.13648558970E+03  0.00000000000E+00 0.  1.
<scales pt_clust_5="13000.00000" pt_clust_6="13000.00000" pt_clust_7="13000.00000" pt_clust_8="13000.00000" pt_clust_9="125.11693"></scales>
<clustering>
<clus scale="   81.603">  5  6 -1 -1</clus>
<clus scale="   92.051">  7  8 -1 -1</clus>
<clus scale="   93.971">  1  5  2 -1</clus>
<clus scale="  125.117">  2  9  1 -1</clus>
<clus scale="  125.117">  2  5  1 -1</clus>
</clustering>
</event>
<event>
 9    2  0.9254368E-005  0.1059995E+03  0.7546771E-02  0.1271289E+00
         21   -1    0    0  501  502  0.00000000000E+00  0.00000000000E+00  0.12562003072E+03  0.12562003072E+03  0.00000000000E+00 0.  1.
          2   -1    0    0  502    0 -0.00000000000E+00 -0.00000000000E+00 -0.31758661071E+03  0.31758661071E+03  0.00000000000E+00 0. -1.
         23    2    1    2    0    0 -0.62708252560E+01  0.55165222178E+02 -0.26241960006E+03  0.28331337468E+03  0.91213468267E+02 0.  0.
         24    2    1    2    0    0 -0.11233326682E+02 -0.39374555912E+02  0.89692409947E+02  0.12946475053E+03  0.83903813652E+02 0.  0.
        -11    1    4    4    0    0 -0.46187823693E+02 -0.20277303648E+02  0.66177725234E+02  0.83210428540E+02  0.00000000000E+00 0.  1.
         12    1    4    4    0    0  0.34954497011E+02 -0.19097252264E+02  0.23514684713E+02  0.46254321987E+02  0.00000000000E+00 0. -1.
        -13    1    3    3    0    0 -0.48686845410E+02  0.33819597039E+02 -0.14316077215E+03  0.15494896173E+03  0.00000000000E+00 0.  1.
         13    1    3    3    0    0  0.42416020154E+02  0.21345625139E+02 -0.11925882791E+03  0.12836441295E+03  0.00000000000E+00 0. -1.
          1    1    1    2  501    0  0.17504151938E+02 -0.15790666266E+02 -0.19239389883E+02  0.30428516218E+02  0.00000000000E+00 0. -1.
<scales pt_clust_5="13000.00000" pt_clust_6="13000.00000" pt_clust_7="13000.00000" pt_clust_8="13000.00000" pt_clust_9="23.57416"></scales>
<clustering>
<clus scale="   23.574">  1  9  2 -1</clus>
<clus scale="   83.904">  5  6 -1 -1</clus>
<clus scale="   91.213">  7  8 -1 -1</clus>
<clus scale="   99.779">  1  5  2 -1</clus>
<clus scale="   23.574">  1  5  2 -1</clus>
</clustering>
</event>
<event>
 9    2  0.9254368E-005  0.1148156E+03  0.7546771E-02  0.1255382E+00
         21   -1    0    0  501  502  0.00000000000E+00  0.00000000000E+00  0.52183207168E+02  0.52183207168E+02  0.00000000000E+00 0. -1.
          2   -1    0    0  502    0 -0.00000000000E+00 -0.00000000000E+00 -0.59848374519E+03  0.59848374519E+03  0.00000000000E+00 0. -1.
         24    2    1    2    0    0  0.66911326290E+02  0.76370048428E+00 -0.20203682694E+03  0.22761351274E+03  0.80692768681E+02 0.  0.
         23    2    1    2    0    0 -0.62397431215E+02  0.88814598975E+02 -0.13551979260E+03  0.19585601339E+03  0.90622797244E+02 0.  0.
        -11    1    3    3    0    0  0.67985762374E+02  0.29652984224E+02 -0.16257649446E+03  0.17869661416E+03  0.00000000000E+00 0.  1.
         12    1    3    3    0    0 -0.10744360846E+01 -0.28889283739E+02 -0.39460332481E+02  0.48916898588E+02  0.00000000000E+00 0. -1.
        -11    1    4    4    0    0 -0.55459078988E+02  0.36062056667E+01 -0.60027285929E+02  0.81804579441E+02  0.00000000000E+00 0.  1.
         11    1    4    4    0    0 -0.69383522278E+01  0.85208393308E+02 -0.75492506673E+02  0.11405143395E+03  0.00000000000E+00 0. -1.
          1    1    1    2  501    0 -0.45138950742E+01 -0.89578299460E+02 -0.20874391848E+03  0.22719742623E+03  0.00000000000E+00 0. -1.
<scales pt_clust_5="13000.00000" pt_clust_6="13000.00000" pt_clust_7="13000.00000" pt_clust_8="13000.00000" pt_clust_9="89.69200"></scales>
<clustering>
<clus scale="   80.693">  5  6 -1 -1</clus>
<clus scale="   89.692">  1  9  2 -1</clus>
<clus scale="   90.623">  7  8 -1 -1</clus>
<clus scale="  107.152">  2  5  1 -1</clus>
<clus scale="   89.692">  1  5  2 -1</clus>
</clustering>
</event>
<event>
 9    2  0.9254368E-005  0.9869910E+02  0.7546771E-02  0.1288728E+00
         21   -1    0    0  501  502  0.00000000000E+00  0.00000000000E+00  0.33240723009E+02  0.33240723009E+02  0.00000000000E+00 0.  1.
         -3   -1    0    0    0  501 -0.00000000000E+00 -0.00000000000E+00 -0.45738803251E+03  0.45738803251E+03  0.00000000000E+00 0.  1.
         23    2    1    2    0    0 -0.20487898236E+02 -0.16832285528E+02 -0.20705646456E+03  0.22771322721E+03  0.90982715510E+02 0.  0.
         24    2    1    2    0    0  0.40064576491E+02  0.46699639945E+02 -0.10663669357E+03  0.14683183115E+03  0.80013596106E+02 0.  0.
        -13    1    4    4    0    0  0.48157419141E+02  0.57092521808E+02 -0.11025449430E+03  0.13317186857E+03  0.00000000000E+00 0.  1.
         14    1    4    4    0    0 -0.80928426498E+01 -0.10392881863E+02  0.36178007271E+01  0.13659962580E+02  0.00000000000E+00 0. -1.
        -13    1    3    3    0    0 -0.55921780016E+02 -0.27826144005E+01 -0.13608327687E+03  0.14715178105E+03  0.00000000000E+00 0.  1.
         13    1    3    3    0    0  0.35433881779E+02 -0.14049671128E+02 -0.70973187687E+02  0.80561446159E+02  0.00000000000E+00 0. -1.
         -4    1    1    2    0  502 -0.19576678255E+02 -0.29867354416E+02 -0.11045415137E+03  0.11608369716E+03  0.00000000000E+00 0.  1.
<scales pt_clust_5="13000.00000" pt_clust_6="13000.00000" pt_clust_7="13000.00000" pt_clust_8="13000.00000" pt_clust_9="35.71143"></scales>
<clustering>
<clus scale="   35.711">  1  9  2 -1</clus>
<clus scale="   80.014">  5  6 -1 -1</clus>
<clus scale="   88.690">  1  5  2 -1</clus>
<clus scale="   90.983">  7  8 -1 -1</clus>
<clus scale="   35.711">  1  5  2 -1</clus>
</clustering>
</event>
<event>
 9    2  0.9254368E-005  0.1019054E+03  0.7546771E-02  0.1281586E+00
         21   -1    0    0  501  502  0.00000000000E+00  0.00000000000E+00  0.29704577877E+02  0.29704577877E+02  0.00000000000E+00 0. -1.
          2   -1    0    0  502    0 -0.00000000000E+00 -0.00000000000E+00 -0.56723585941E+03  0.56723585941E+03  0.00000000000E+00 0. -1.
         23    2    1    2    0    0 -0.48945253042E+02 -0.35658867974E+02 -0.28374538320E+03  0.30375542981E+03  0.89937344811E+02 0.  0.
         24    2    1    2    0    0  0.32529307358E+02 -0.29483590957E+01 -0.89492177317E+02  0.12361959821E+03  0.78778846156E+02 0.  0.
        -13    1    4    4    0    0  0.25553096238E+01  0.36016729874E+02 -0.36782898876E+02  0.51543341838E+02  0.00000000000E+00 0.  1.
         14    1    4    4    0    0  0.29973997734E+02 -0.38965088970E+02 -0.52709278441E+02  0.72076256370E+02  0.00000000000E+00 0. -1.
        -11    1    3    3    0    0 -0.67308392071E+02 -0.38594454266E+01 -0.13990774062E+03  0.15530451007E+03  0.00000000000E+00 0. -1.
         11    1    3    3    0    0  0.18363139029E+02 -0.31799422547E+02 -0.14383764258E+03  0.14845091975E+03  0.00000000000E+00 0.  1.
          1    1    1    2  501    0  0.16415945684E+02  0.38607227069E+02 -0.16429372101E+03  0.16956540926E+03  0.00000000000E+00 0. -1.
<scales pt_clust_5="13000.00000" pt_clust_6="13000.00000" pt_clust_7="13000.00000" pt_clust_8="13000.00000" pt_clust_9="41.95239"></scales>
<clustering>
<clus scale="   41.952">  1  9  2 -1</clus>
<clus scale="   78.779">  5  6 -1 -1</clus>
<clus scale="   89.937">  7  8 -1 -1</clus>
<clus scale="   92.207">  1  5  2 -1</clus>
<clus scale="   41.952">  1  5  2 -1</clus>
</clustering>
</event>
<event>
 9    2  0.9254368E-005  0.1185248E+03  0.7546771E-02  0.1247980E+00
          2   -1    0    0  502    0 -0.00000000000E+00  0.00000000000E+00  0.50349096551E+03  0.50349096551E+03  0.00000000000E+00 0. -1.
         21   -1    0    0  501  502  0.00000000000E+00 -0.00000000000E+00 -0.52336458285E+02  0.52336458285E+02  0.00000000000E+00 0. -1.
         23    2    1    2    0    0  0.60439880486E+02  0.46909906401E+02  0.28900869472E+03  0.31157920545E+03  0.87761364925E+02 0.  0.
         24    2    1    2    0    0 -0.52603897518E+02 -0.68225965728E+02  0.18025795037E+03  0.21519952555E+03  0.79974712838E+02 0.  0.
        -13    1    4    4    0    0 -0.28817176230E+01 -0.61731107039E+02  0.65965564090E+02  0.90390760139E+02  0.00000000000E+00 0.  1.
         14    1    4    4    0    0 -0.49722179895E+02 -0.64948586884E+01  0.11429238628E+03  0.12480876542E+03  0.00000000000E+00 0. -1.
        -13    1    3    3    0    0  0.32851614324E+02  0.60436236668E+00  0.22859681877E+02  0.40026976817E+02  0.00000000000E+00 0. -1.
         13    1    3    3    0    0  0.27588266161E+02  0.46305544034E+02  0.26614901285E+03  0.27155222864E+03  0.00000000000E+00 0.  1.
          1    1    1    2  501    0 -0.78359829676E+01  0.21316059327E+02 -0.18112137871E+02  0.29048692785E+02  0.00000000000E+00 0. -1.
<scales pt_clust_5="13000.00000" pt_clust_6="13000.00000" pt_clust_7="13000.00000" pt_clust_8="13000.00000" pt_clust_9="22.71072"></scales>
<clustering>
<clus scale="   22.711">  2  9  1 -1</clus>
<clus scale="   79.975">  5  6 -1 -1</clus>
<clus scale="   87.761">  7  8 -1 -1</clus>
<clus scale="  112.881">  2  5  1 -1</clus>
<clus scale="   22.711">  2  5  1 -1</clus>
</clustering>
</event>
<event>
 9    2  0.9254368E-005  0.1190265E+03  0.7546771E-02  0.1247375E+00
         21   -1    0    0  501  502  0.00000000000E+00  0.00000000000E+00  0.13491601009E+03  0.13491601009E+03  0.00000000000E+00 0. -1.
          2   -1    0    0  502    0 -0.00000000000E+00 -0.00000000000E+00 -0.26715787257E+03  0.26715787257E+03  0.00000000000E+00 0. -1.
         23    2    1    2    0    0  0.11235099825E+02 -0.73662705866E+02 -0.15835503684E+03  0.19636587411E+03  0.89055135269E+02 0.  0.
         24    2    1    2    0    0  0.35699983180E+02  0.93367885686E+02 -0.28008742671E+02  0.13140876206E+03  0.80571224410E+02 0.  0.
        -11    1    4    4    0    0 -0.21776183308E+02  0.48091752827E+02  0.73692806564E+00  0.52797366529E+02  0.00000000000E+00 0.  1.
         12    1    4    4    0    0  0.57476166488E+02  0.45276132860E+02 -0.28745670737E+02  0.78611395529E+02  0.00000000000E+00 0. -1.
        -11    1    3    3    0    0 -0.29613145739E+01 -0.49269766095E+02 -0.16974663843E+02  0.52195961986E+02  0.00000000000E+00 0.  1.
         11    1    3    3    0    0  0.14196414399E+02 -0.24392939771E+02 -0.14138037299E+03  0.14416991212E+03  0.00000000000E+00 0. -1.
          1    1    1    2  501    0 -0.46935083005E+02 -0.19705179820E+02  0.54121917026E+02  0.74299246504E+02  0.00000000000E+00 0. -1.
<scales pt_clust_5="13000.00000" pt_clust_6="13000.00000" pt_clust_7="13000.00000" pt_clust_8="13000.00000" pt_clust_9="50.90379"></scales>
<clustering>
<clus scale="   50.904">  1  9  2 -1</clus>
<clus scale="   80.571">  5  6 -1 -1</clus>
<clus scale="   89.055">  7  8 -1 -1</clus>
<clus scale="  112.819">  1  5  2 -1</clus>
<clus scale="   50.904">  1  5  2 -1</clus>
</clustering>
</event>
<event>
 9    2  0.9254368E-005  0.1526647E+03  0.7546771E-02  0.1212196E+00
          2   -1    0    0  502    0 -0.00000000000E+00  0.00000000000E+00  0.18505009637E+04  0.18505009637E+04  0.00000000000E+00 0. -1.
         21   -1    0    0  501  502  0.00000000000E+00 -0.00000000000E+00 -0.25613307321E+02  0.25613307321E+02  0.00000000000E+00 0. -1.
         23    2    1    2    0    0  0.62672335138E+02  0.14342347385E+02  0.29215334806E+03  0.31238705993E+03  0.89992065813E+02 0.  0.
         24    2    1    2    0    0  0.10250780598E+02  0.10707490162E+03  0.11052356057E+04  0.11133772695E+04  0.80579693679E+02 0.  0.
        -13    1    4    4    0    0 -0.18225664878E+02  0.51160943803E+02  0.24942189280E+03  0.25526632688E+03  0.00000000000E+00 0.  1.
         14    1    4    4    0    0  0.28476445476E+02  0.55913957815E+02  0.85581371288E+03  0.85811094259E+03  0.00000000000E+00 0. -1.
        -13    1    3    3    0    0 -0.87070816786E+01  0.23293254105E+02  0.23306846869E+02  0.34082225120E+02  0.00000000000E+00 0. -1.
         13    1    3    3    0    0  0.71379416817E+02 -0.89509067199E+01  0.26884650119E+03  0.27830483481E+03  0.00000000000E+00 0.  1.
          1    1    1    2  501    0 -0.72923115736E+02 -0.12141724900E+03  0.42749870260E+03  0.45034994159E+03  0.00000000000E+00 0. -1.
<scales pt_clust_5="13000.00000" pt_clust_6="13000.00000" pt_clust_7="13000.00000" pt_clust_8="13000.00000" pt_clust_9="129.66660"></scales>
<clustering>
<clus scale="   80.580">  5  6 -1 -1</clus>
<clus scale="   89.992">  7  8 -1 -1</clus>
<clus scale="  110.599">  1  7  2 -1</clus>
<clus scale="  129.667">  2  9  1 -1</clus>
<clus scale="  129.667">  2  5  1 -1</clus>
</clustering>
</event>
<event>
 9    2  0.9254368E-005  0.3668568E+03  0.7546771E-02  0.1086765E+00
         21   -1    0    0  501  502  0.00000000000E+00  0.00000000000E+00  0.38188024373E+03  0.38188024373E+03  0.00000000000E+00 0. -1.
          2   -1    0    0  502    0 -0.00000000000E+00 -0.00000000000E+00 -0.10273056351E+04  0.10273056351E+04  0.00000000000E+00 0. -1.
         23    2    1    2    0    0  0.11717404989E+03 -0.50307934881E+02  0.12889175661E+03  0.20353923920E+03  0.92490489746E+02 0.  0.
         24    2    1    2    0    0  0.69343706929E+02 -0.27743333963E+03 -0.77349023066E+03  0.82854731533E+03  0.80160521408E+02 0.  0.
        -11    1    4    4    0    0  0.42911933184E+02 -0.10726622540E+03 -0.21452794581E+03  0.24365901718E+03  0.00000000000E+00 0.  1.
         12    1    4    4    0    0  0.26431773745E+02 -0.17016711423E+03 -0.55896228485E+03  0.58488829815E+03  0.00000000000E+00 0. -1.
        -11    1    3    3    0    0  0.40269686796E+02 -0.59511982927E+02  0.29853376014E+02  0.77810975100E+02  0.00000000000E+00 0. -1.
         11    1    3    3    0    0  0.76904363096E+02  0.92040480461E+01  0.99038380592E+02  0.12572826410E+03  0.00000000000E+00 0.  1.
          1    1    1    2  501    0 -0.18651775682E+03  0.32774127451E+03 -0.82691736348E+00  0.37709932435E+03  0.00000000000E+00 0. -1.
<scales pt_clust_5="13000.00000" pt_clust_6="13000.00000" pt_clust_7="13000.00000" pt_clust_8="13000.00000" pt_clust_9="357.99186"></scales>
<clustering>
<clus scale="   80.161">  5  6 -1 -1</clus>
<clus scale="   92.490">  7  8 -1 -1</clus>
<clus scale="  157.528">  2  7  1 -1</clus>
<clus scale="  357.992">  1  9  2 -1</clus>
<clus scale="  357.992">  1  5  2 -1</clus>
</clustering>
</event>
<event>
 9    2  0.9254368E-005  0.8988090E+02  0.7546771E-02  0.1307370E+00
         21   -1    0    0  501  502  0.00000000000E+00  0.00000000000E+00  0.87868712636E+02  0.87868712636E+02  0.00000000000E+00 0. -1.
          2   -1    0    0  502    0 -0.00000000000E+00 -0.00000000000E+00 -0.37520917247E+03  0.37520917247E+03  0.00000000000E+00 0. -1.
         23    2    1    2    0    0 -0.18372603527E+01  0.19757803393E+02 -0.25952910713E+03  0.27439154617E+03  0.86842482926E+02 0.  0.
         24    2    1    2    0    0  0.41044309345E+02 -0.19603537593E+02 -0.81052896802E+02  0.12256615665E+03  0.79899666204E+02 0.  0.
        -11    1    4    4    0    0  0.22363219751E+02  0.22588355014E+02 -0.30430267315E+01  0.31931291730E+02  0.00000000000E+00 0.  1.
         12    1    4    4    0    0  0.18681089594E+02 -0.42191892606E+02 -0.78009870070E+02  0.90634864917E+02  0.00000000000E+00 0. -1.
        -11    1    3    3    0    0  0.41502663439E+02  0.56342174205E+00 -0.12974879192E+03  0.13622605302E+03  0.00000000000E+00 0.  1.
         11    1    3    3    0    0 -0.43339923792E+02  0.19194381650E+02 -0.12978031521E+03  0.13816549315E+03  0.00000000000E+00 0. -1.
          1    1    1    2  501    0 -0.39207048992E+02 -0.15426579968E+00  0.53241544096E+02  0.66120182292E+02  0.00000000000E+00 0. -1.
<scales pt_clust_5="13000.00000" pt_clust_6="13000.00000" pt_clust_7="13000.00000" pt_clust_8="13000.00000" pt_clust_9="39.20735"></scales>
<clustering>
<clus scale="   39.207">  1  9  2 -1</clus>
<clus scale="   79.900">  5  6 -1 -1</clus>
<clus scale="   83.192">  1  5  2 -1</clus>
<clus scale="   86.842">  7  8 -1 -1</clus>
<clus scale="   39.207">  1  5  2 -1</clus>
</clustering>
</event>
<event>
 9    2  0.9254368E-005  0.9295085E+02  0.7546771E-02  0.1302524E+00
          2   -1    0    0  502    0 -0.00000000000E+00  0.00000000000E+00  0.26593857087E+03  0.26593857087E+03  0.00000000000E+00 0. -1.
         21   -1    0    0  501  502  0.00000000000E+00 -0.00000000000E+00 -0.47503158541E+02  0.47503158541E+02  0.00000000000E+00 0. -1.
         24    2    1    2    0    0  0.17505971538E+02  0.10126882521E+02  0.62490632509E+02  0.10295790543E+03  0.79285801690E+02 0.  0.
         23    2    1    2    0    0  0.56773075234E+01 -0.32943959628E+02  0.71536041725E+02  0.12002433856E+03  0.90393032282E+02 0.  0.
        -11    1    3    3    0    0  0.21226411541E+02  0.73523579809E+01  0.80906031441E+02  0.83966681716E+02  0.00000000000E+00 0.  1.
         12    1    3    3    0    0 -0.37204400030E+01  0.27745245396E+01 -0.18415398933E+02  0.18991223712E+02  0.00000000000E+00 0. -1.
        -11    1    4    4    0    0  0.20096087760E+02 -0.63733082092E+01  0.84529891091E+02  0.87119310653E+02  0.00000000000E+00 0. -1.
         11    1    4    4    0    0 -0.14418780237E+02 -0.26570651419E+02 -0.12993849367E+02  0.32905027909E+02  0.00000000000E+00 0.  1.
          1    1    1    2  501    0 -0.23183279061E+02  0.22817077108E+02  0.84408738099E+02  0.90459485425E+02  0.00000000000E+00 0. -1.
<scales pt_clust_5="13000.00000" pt_clust_6="13000.00000" pt_clust_7="13000.00000" pt_clust_8="13000.00000" pt_clust_9="32.52821"></scales>
<clustering>
<clus scale="   32.528">  2  9  1 -1</clus>
<clus scale="   79.286">  5  6 -1 -1</clus>
<clus scale="   82.190">  1  5  2 -1</clus>
<clus scale="   90.393">  7  8 -1 -1</clus>
<clus scale="   32.528">  2  5  1 -1</clus>
</clustering>
</event>
<event>
 9    2  0.9254368E-005  0.1272073E+03  0.7546771E-02  0.1233321E+00
         21   -1    0    0  501  502  0.00000000000E+00  0.00000000000E+00  0.75972661866E+02  0.75972661866E+02  0.00000000000E+00 0.  1.
          2   -1    0    0  502    0 -0.00000000000E+00 -0.00000000000E+00 -0.58248413932E+03  0.58248413932E+03  0.00000000000E+00 0. -1.
         24    2    1    2    0    0 -0.24840340238E+01 -0.75665181892E+02 -0.24952029454E+03  0.27558292375E+03  0.89186211371E+02 0.  0.
         23    2    1    2    0    0  0.47405436125E+02  0.14768098951E+03 -0.94817178180E+02  0.19983121376E+03  0.82977507056E+02 0.  0.
        -13    1    3    3    0    0 -0.43736239033E+02 -0.56492764215E+02 -0.14845369710E+03  0.16475069407E+03  0.00000000000E+00 0.  1.
         14    1    3    3    0    0  0.41252205010E+02 -0.19172417677E+02 -0.10106659744E+03  0.11083222968E+03  0.00000000000E+00 0. -1.
        -11    1    4    4    0    0 -0.12607711723E+02  0.82417277224E+02 -0.66838632744E+02  0.10685955646E+03  0.00000000000E+00 0. -1.
         11    1    4    4    0    0  0.60013147848E+02  0.65263712291E+02 -0.27978545436E+02  0.92971657301E+02  0.00000000000E+00 0.  1.
          1    1    1    2  501    0 -0.44921402101E+02 -0.72015807623E+02 -0.16217400473E+03  0.18304266367E+03  0.00000000000E+00 0. -1.
<scales pt_clust_5="13000.00000" pt_clust_6="13000.00000" pt_clust_7="13000.00000" pt_clust_8="13000.00000" pt_clust_9="84.87765"></scales>
<clustering>
<clus scale="   82.978">  7  8 -1 -1</clus>
<clus scale="   84.878">  1  9  2 -1</clus>
<clus scale="   89.186">  5  6 -1 -1</clus>
<clus scale="  122.934">  1  7  2 -1</clus>
<clus scale="   84.878">  1  5  2 -1</clus>
</clustering>
</event>
<event>
 9    2  0.1214482E-004  0.3074823E+03  0.7546771E-02  0.1129718E+00
         21   -1    0    0  501  502  0.00000000000E+00  0.00000000000E+00  0.10520077975E+03  0.10520077975E+03  0.00000000000E+00 0.  1.
         -1   -1    0    0    0  501 -0.00000000000E+00 -0.00000000000E+00 -0.12039263921E+04  0.12039263921E+04  0.00000000000E+00 0.  1.
         24    2    1    2    0    0  0.17050056612E+02  0.24058637919E+02 -0.12154264504E+03  0.15078045298E+03  0.84217622539E+02 0.  0.
         23    2    1    2    0    0  0.28541640270E+03 -0.35787590024E+02 -0.35349914857E+03  0.46508988834E+03  0.92756033055E+02 0.  0.
        -11    1    3    3    0    0  0.28237987509E+02  0.48072078627E+02 -0.51511886923E+02  0.75906410642E+02  0.00000000000E+00 0.  1.
         12    1    3    3    0    0 -0.11187930898E+02 -0.24013440708E+02 -0.70030758121E+02  0.74874042334E+02  0.00000000000E+00 0. -1.
        -11    1    4    4    0    0  0.25501725775E+03 -0.25329666353E+02 -0.34845894590E+03  0.43254945466E+03  0.00000000000E+00 0.  1.
         11    1    4    4    0    0  0.30399144948E+02 -0.10457923671E+02 -0.50402026665E+01  0.32540433679E+02  0.00000000000E+00 0. -1.
         -2    1    1    2    0  502 -0.30246645931E+03  0.11728952105E+02 -0.62368381872E+03  0.69325683051E+03  0.00000000000E+00 0.  1.
<scales pt_clust_5="13000.00000" pt_clust_6="13000.00000" pt_clust_7="13000.00000" pt_clust_8="13000.00000" pt_clust_9="293.15830"></scales>
<clustering>
<clus scale="   84.218">  5  6 -1 -1</clus>
<clus scale="   89.231">  2  5  1 -1</clus>
<clus scale="   92.756">  7  8 -1 -1</clus>
<clus scale="  293.158">  1  9  2 -1</clus>
<clus scale="  293.158">  1  5  2 -1</clus>
</clustering>
</event>
<event>
 9    2  0.9254368E-005  0.3072009E+03  0.7546771E-02  0.1082086E+00
         21   -1    0    0  501  502  0.00000000000E+00  0.00000000000E+00  0.19119825322E+03  0.19119825322E+03  0.00000000000E+00 0. -1.
          2   -1    0    0  502    0 -0.00000000000E+00 -0.00000000000E+00 -0.10337287523E+04  0.10337287523E+04  0.00000000000E+00 0. -1.
         23    2    1    2    0    0  0.32877516577E+03 -0.10662734741E+03 -0.76992007150E+03  0.84888219575E+03  0.91441592953E+02 0.  0.
         24    2    1    2    0    0 -0.16450462259E+03  0.48418543644E+02 -0.55465660006E+01  0.18930799569E+03  0.80003916259E+02 0.  0.
        -13    1    4    4    0    0 -0.92690269399E+02  0.56889402221E+02 -0.30263338802E+02  0.11288826246E+03  0.00000000000E+00 0.  1.
         14    1    4    4    0    0 -0.71814353193E+02 -0.84708585768E+01  0.24716772802E+02  0.76419733232E+02  0.00000000000E+00 0. -1.
        -11    1    3    3    0    0  0.79613893522E+02  0.56638536759E+01 -0.23511530446E+03  0.24829349099E+03  0.00000000000E+00 0.  1.
         11    1    3    3    0    0  0.24916127224E+03 -0.11229120109E+03 -0.53480476704E+03  0.60058870475E+03  0.00000000000E+00 0. -1.
          1    1    1    2  501    0 -0.16427054317E+03  0.58208803767E+02 -0.67063861543E+02  0.18673681403E+03  0.00000000000E+00 0. -1.
<scales pt_clust_5="13000.00000" pt_clust_6="13000.00000" pt_clust_7="13000.00000" pt_clust_8="13000.00000" pt_clust_9="174.27873"></scales>
<clustering>
<clus scale="   80.004">  5  6 -1 -1</clus>
<clus scale="   91.442">  7  8 -1 -1</clus>
<clus scale="  174.279">  1  9  2 -1</clus>
<clus scale="  303.993">  1  5  2 -1</clus>
<clus scale="  174.279">  1  5  2 -1</clus>
</clustering>
</event>
<event>
 9    2  0.9254368E-005  0.2075164E+03  0.7546771E-02  0.1160765E+00
          2   -1    0    0  502    0 -0.00000000000E+00  0.00000000000E+00  0.17160169538E+04  0.17160169538E+04  0.00000000000E+00 0. -1.
         21   -1    0    0  501  502  0.00000000000E+00 -0.00000000000E+00 -0.80101018836E+02  0.80101018836E+02  0.00000000000E+00 0. -1.
         23    2    1    2    0    0 -0.34068416295E+02 -0.10208647861E+03  0.80743469784E+02  0.16007052080E+03  0.86722301695E+02 0.  0.
         24    2    1    2    0    0  0.21859291738E+03  0.85020614365E+02  0.12829275842E+04  0.13067181175E+04  0.81226128556E+02 0.  0.
        -11    1    4    4    0    0  0.22831510653E+02 -0.66319501182E+01  0.55121857345E+02  0.60030657153E+02  0.00000000000E+00 0.  1.
         12    1    4    4    0    0  0.19576140673E+03  0.91652564484E+02  0.12278057268E+04  0.12466874604E+04  0.00000000000E+00 0. -1.
        -11    1    3    3    0    0  0.27813816966E+02 -0.49903140078E+02  0.36910803269E+02  0.68017197839E+02  0.00000000000E+00 0. -1.
         11    1    3    3    0    0 -0.61882233261E+02 -0.52183338531E+02  0.43832666515E+02  0.92053322957E+02  0.00000000000E+00 0.  1.
          1    1    1    2  501    0 -0.18452450108E+03  0.17065864244E+02  0.27224488097E+03  0.32932933431E+03  0.00000000000E+00 0. -1.
<scales pt_clust_5="13000.00000" pt_clust_6="13000.00000" pt_clust_7="13000.00000" pt_clust_8="13000.00000" pt_clust_9="190.95914"></scales>
<clustering>
<clus scale="   81.226">  5  6 -1 -1</clus>
<clus scale="   86.722">  7  8 -1 -1</clus>
<clus scale="  138.214">  1  7  2 -1</clus>
<clus scale="  190.959">  2  9  1 -1</clus>
<clus scale="  190.959">  2  5  1 -1</clus>
</clustering>
</event>
<event>
 9    2  0.9254368E-005  0.1013171E+03  0.7546771E-02  0.1283896E+00
         21   -1    0    0  501  502  0.00000000000E+00  0.00000000000E+00  0.21264618740E+03  0.21264618740E+03  0.00000000000E+00 0.  1.
          4   -1    0    0  502    0 -0.00000000000E+00 -0.00000000000E+00 -0.78040550443E+02  0.78040550443E+02  0.00000000000E+00 0. -1.
         23    2    1    2    0    0 -0.37182512011E+02  0.42606335785E+02  0.35495203069E+02  0.11359713078E+03  0.91905166512E+02 0.  0.
         24    2    1    2    0    0  0.70614310581E+00 -0.24479805968E+02  0.10734663725E+03  0.13553324032E+03  0.79032899250E+02 0.  0.
        -13    1    4    4    0    0 -0.67080631135E+01  0.27210337041E+02  0.22654307255E+02  0.36036345401E+02  0.00000000000E+00 0.  1.
         14    1    4    4    0    0  0.74142062193E+01 -0.51690143009E+02  0.84692329993E+02  0.99496894916E+02  0.00000000000E+00 0. -1.
        -11    1    3    3    0    0 -0.41865922770E+02 -0.90533693934E+01  0.43572334092E+02  0.61100468778E+02  0.00000000000E+00 0.  1.
         11    1    3    3    0    0  0.46834107589E+01  0.51659705179E+02 -0.80771310234E+01  0.52496661999E+02  0.00000000000E+00 0. -1.
          3    1    1    2  501    0  0.36476368905E+02 -0.18126529817E+02 -0.82362033586E+01  0.41556366750E+02  0.00000000000E+00 0. -1.
<scales pt_clust_5="13000.00000" pt_clust_6="13000.00000" pt_clust_7="13000.00000" pt_clust_8="13000.00000" pt_clust_9="40.73203"></scales>
<clustering>
<clus scale="   40.732">  1  9  2 -1</clus>
<clus scale="   79.033">  5  6 -1 -1</clus>
<clus scale="   89.804">  1  5  2 -1</clus>
<clus scale="   91.905">  7  8 -1 -1</clus>
<clus scale="   40.732">  1  5  2 -1</clus>
</clustering>
</event>
<event>
 9    2  0.9254368E-005  0.1363575E+03  0.7546771E-02  0.1235085E+00
         21   -1    0    0  501  502  0.00000000000E+00  0.00000000000E+00  0.25400201083E+03  0.25400201083E+03  0.00000000000E+00 0. -1.
          2   -1    0    0  502    0 -0.00000000000E+00 -0.00000000000E+00 -0.13568565887E+03  0.13568565887E+03  0.00000000000E+00 0. -1.
         23    2    1    2    0    0 -0.49808048226E+01 -0.32676808494E+02  0.73912004129E+02  0.12136660720E+03  0.90411762287E+02 0.  0.
         24    2    1    2    0    0  0.83565901843E+02 -0.56006158258E+02  0.66479912264E+02  0.14779049953E+03  0.85454685668E+02 0.  0.
        -11    1    4    4    0    0  0.58701166088E+02 -0.36927598283E+02 -0.52134988224E+01  0.69546063764E+02  0.00000000000E+00 0.  1.
         12    1    4    4    0    0  0.24864735755E+02 -0.19078559975E+02  0.71693411087E+02  0.78244435765E+02  0.00000000000E+00 0. -1.
        -11    1    3    3    0    0  0.39556568923E+02 -0.29488487835E+02  0.51811179965E+02  0.71545030778E+02  0.00000000000E+00 0.  1.
         11    1    3    3    0    0 -0.44537373746E+02 -0.31883206594E+01  0.22100824164E+02  0.49821576426E+02  0.00000000000E+00 0. -1.
          1    1    1    2  501    0 -0.78585097021E+02  0.88682966752E+02 -0.22075564434E+02  0.12053056297E+03  0.00000000000E+00 0. -1.
<scales pt_clust_5="13000.00000" pt_clust_6="13000.00000" pt_clust_7="13000.00000" pt_clust_8="13000.00000" pt_clust_9="106.25851"></scales>
<clustering>
<clus scale="   85.455">  5  6 -1 -1</clus>
<clus scale="   90.412">  7  8 -1 -1</clus>
<clus scale="   96.265">  2  7  1 -1</clus>
<clus scale="  106.259">  1  9  2 -1</clus>
<clus scale="  106.259">  1  5  2 -1</clus>
</clustering>
</event>
<event>
 9    2  0.9254368E-005  0.1098727E+03  0.7546771E-02  0.1264740E+00
         21   -1    0    0  501  502  0.00000000000E+00  0.00000000000E+00  0.14210022115E+03  0.14210022115E+03  0.00000000000E+00 0.  1.
          2   -1    0    0  502    0 -0.00000000000E+00 -0.00000000000E+00 -0.27815533139E+03  0.27815533139E+03  0.00000000000E+00 0. -1.
         23    2    1    2    0    0 -0.49333506631E+02  0.19995152561E+02 -0.16695993865E+03  0.20004089866E+03  0.96473514598E+02 0.  0.
         24    2    1    2    0    0  0.33184542687E+02 -0.43008539986E+02  0.10142263280E+03  0.14429913654E+03  0.87090424136E+02 0.  0.
        -11    1    4    4    0    0  0.53383719135E+02 -0.55407824341E+02  0.88624278816E+02  0.11736315973E+03  0.00000000000E+00 0.  1.
         12    1    4    4    0    0 -0.20199176448E+02  0.12399284355E+02  0.12798353985E+02  0.26935976804E+02  0.00000000000E+00 0. -1.
        -11    1    3    3    0    0 -0.74741546101E+02 -0.44781456393E+01 -0.11571515239E+03  0.13782724330E+03  0.00000000000E+00 0.  1.
         11    1    3    3    0    0  0.25408039470E+02  0.24473298200E+02 -0.51244786260E+02  0.62213655360E+02  0.00000000000E+00 0. -1.
          1    1    1    2  501    0  0.16148963944E+02  0.23013387425E+02 -0.70517804389E+02  0.75915517340E+02  0.00000000000E+00 0. -1.
<scales pt_clust_5="13000.00000" pt_clust_6="13000.00000" pt_clust_7="13000.00000" pt_clust_8="13000.00000" pt_clust_9="28.11416"></scales>
<clustering>
<clus scale="   28.114">  1  9  2 -1</clus>
<clus scale="   87.090">  5  6 -1 -1</clus>
<clus scale="   96.474">  7  8 -1 -1</clus>
<clus scale="  101.733">  1  5  2 -1</clus>
<clus scale="   28.114">  1  5  2 -1</clus>
</clustering>
</event>
<event>
 9    2  0.9254368E-005  0.1372669E+03  0.7546771E-02  0.1219544E+00
         -3   -1    0    0    0  501 -0.00000000000E+00  0.00000000000E+00  0.36582879461E+03  0.36582879461E+03  0.00000000000E+00 0.  1.
         21   -1    0    0  501  502  0.00000000000E+00 -0.00000000000E+00 -0.11598329162E+03  0.11598329162E+03  0.00000000000E+00 0.  1.
         23    2    1    2    0    0 -0.58604101369E+02 -0.89340908912E+02  0.28604377512E+03  0.31787588681E+03  0.88361753195E+02 0.  0.
         24    2    1    2    0    0  0.71108007996E+02  0.66045375438E+02 -0.50597752722E+02  0.13383014352E+03  0.77019700826E+02 0.  0.
        -13    1    4    4    0    0  0.74711697079E+02  0.41546966502E+02 -0.62944888695E+02  0.10616047814E+03  0.00000000000E+00 0.  1.
         14    1    4    4    0    0 -0.36036890828E+01  0.24498408935E+02  0.12347135973E+02  0.27669665377E+02  0.00000000000E+00 0. -1.
        -13    1    3    3    0    0  0.19958012370E+02 -0.42766207519E+02  0.10397276730E+03  0.11418234147E+03  0.00000000000E+00 0. -1.
         13    1    3    3    0    0 -0.78562113739E+02 -0.46574701394E+02  0.18207100782E+03  0.20369354534E+03  0.00000000000E+00 0.  1.
         -4    1    1    2    0  502 -0.12503906628E+02  0.23295533474E+02  0.14399480595E+02  0.30106055906E+02  0.00000000000E+00 0.  1.
<scales pt_clust_5="13000.00000" pt_clust_6="13000.00000" pt_clust_7="13000.00000" pt_clust_8="13000.00000" pt_clust_9="26.43917"></scales>
<clustering>
<clus scale="   26.439">  2  9  1 -1</clus>
<clus scale="   77.020">  5  6 -1 -1</clus>
<clus scale="   88.362">  7  8 -1 -1</clus>
<clus scale="  130.255">  2  5  1 -1</clus>
<clus scale="   26.439">  2  5  1 -1</clus>
</clustering>
</event>
<event>
 9    2  0.9254368E-005  0.1748240E+03  0.7546771E-02  0.1174312E+00
          2   -1    0    0  502    0 -0.00000000000E+00  0.00000000000E+00  0.96030738470E+03  0.96030738470E+03  0.00000000000E+00 0. -1.
         21   -1    0    0  501  502  0.00000000000E+00 -0.00000000000E+00 -0.30397668874E+03  0.30397668874E+03  0.00000000000E+00 0.  1.
         24    2    1    2    0    0  0.13846212322E+03 -0.55281218740E+02  0.91707251442E+03  0.93263050723E+03  0.80931412896E+02 0.  0.
         23    2    1    2    0    0 -0.13524851831E+03  0.28774283883E+02 -0.25510571596E+03  0.30436418177E+03  0.91861350464E+02 0.  0.
        -13    1    3    3    0    0  0.82738824345E+02  0.64493658266E+01  0.36399436979E+03  0.37333524962E+03  0.00000000000E+00 0.  1.
         14    1    3    3    0    0  0.55723298871E+02 -0.61730584567E+02  0.55307814463E+03  0.55929525760E+03  0.00000000000E+00 0. -1.
        -13    1    4    4    0    0 -0.95900330724E+02 -0.18606497781E+02 -0.19603149238E+03  0.21902379139E+03  0.00000000000E+00 0.  1.
         13    1    4    4    0    0 -0.39348187588E+02  0.47380781663E+02 -0.59074223587E+02  0.85340390378E+02  0.00000000000E+00 0. -1.
          1    1    1    2  501    0 -0.32136049044E+01  0.26506934857E+02 -0.56361024932E+01  0.27289384444E+02  0.00000000000E+00 0. -1.
<scales pt_clust_5="13000.00000" pt_clust_6="13000.00000" pt_clust_7="13000.00000" pt_clust_8="13000.00000" pt_clust_9="26.70103"></scales>
<clustering>
<clus scale="   26.701">  2  9  1 -1</clus>
<clus scale="   80.931">  5  6 -1 -1</clus>
<clus scale="   91.861">  7  8 -1 -1</clus>
<clus scale="  169.336">  1  5  2 -1</clus>
<clus scale="   26.701">  2  5  1 -1</clus>
</clustering>
</event>
<event>
 9    2  0.9254368E-005  0.1213095E+03  0.7546771E-02  0.1244153E+00
         21   -1    0    0  501  502  0.00000000000E+00  0.00000000000E+00  0.21127599042E+03  0.21127599042E+03  0.00000000000E+00 0. -1.
          2   -1    0    0  502    0 -0.00000000000E+00 -0.00000000000E+00 -0.18119038973E+03  0.18119038973E+03  0.00000000000E+00 0. -1.
         23    2    1    2    0    0 -0.49523547178E+02  0.69257464077E+02 -0.11881610293E+03  0.17271318932E+03  0.91996746650E+02 0.  0.
         24    2    1    2    0    0  0.20181975233E+02 -0.37483337122E+02  0.15051274459E+03  0.17647365246E+03  0.81710164873E+02 0.  0.
        -11    1    4    4    0    0  0.31095808125E+02 -0.58079485744E+02  0.89286866261E+02  0.11096089597E+03  0.00000000000E+00 0.  1.
         12    1    4    4    0    0 -0.10913832892E+02  0.20596148622E+02  0.61225878331E+02  0.65512756497E+02  0.00000000000E+00 0. -1.
        -13    1    3    3    0    0 -0.26236394773E+02  0.60047640568E+02 -0.12977276600E+03  0.14537894739E+03  0.00000000000E+00 0. -1.
         13    1    3    3    0    0 -0.23287152405E+02  0.92098235095E+01  0.10956663072E+02  0.27334241930E+02  0.00000000000E+00 0.  1.
          1    1    1    2  501    0  0.29341571945E+02 -0.31774126955E+02 -0.16110409635E+01  0.43279538363E+02  0.00000000000E+00 0. -1.
<scales pt_clust_5="13000.00000" pt_clust_6="13000.00000" pt_clust_7="13000.00000" pt_clust_8="13000.00000" pt_clust_9="43.24956"></scales>
<clustering>
<clus scale="   43.250">  1  9  2 -1</clus>
<clus scale="   81.710">  5  6 -1 -1</clus>
<clus scale="   91.997">  7  8 -1 -1</clus>
<clus scale="  113.706">  1  5  2 -1</clus>
<clus scale="   43.250">  1  5  2 -1</clus>
</clustering>
</event>
<event>
 9    2  0.9254368E-005  0.1327357E+03  0.7546771E-02  0.1226403E+00
         21   -1    0    0  501  502  0.00000000000E+00  0.00000000000E+00  0.33897223741E+02  0.33897223741E+02  0.00000000000E+00 0. -1.
          2   -1    0    0  502    0 -0.00000000000E+00 -0.00000000000E+00 -0.12893792597E+04  0.12893792597E+04  0.00000000000E+00 0. -1.
         24    2    1    2    0    0 -0.11590974543E+03 -0.40120519703E+02 -0.93447310720E+03  0.94569572915E+03  0.77818370990E+02 0.  0.
         23    2    1    2    0    0  0.55147119458E+02 -0.16869293709E+01 -0.26415218026E+03  0.28445369396E+03  0.89963765786E+02 0.  0.
        -13    1    3    3    0    0 -0.14104531783E+02  0.18054175230E+02 -0.80029318546E+02  0.83244116231E+02  0.00000000000E+00 0.  1.
         14    1    3    3    0    0 -0.10180521365E+03 -0.58174694933E+02 -0.85444378866E+03  0.86245161292E+03  0.00000000000E+00 0. -1.
        -11    1    4    4    0    0  0.25980671061E+02 -0.31404245246E+02 -0.42350597961E+02  0.58777504506E+02  0.00000000000E+00 0. -1.
         11    1    4    4    0    0  0.29166448397E+02  0.29717315875E+02 -0.22180158230E+03  0.22567618946E+03  0.00000000000E+00 0.  1.
          1    1    1    2  501    0  0.60762625974E+02  0.41807449073E+02 -0.56856748452E+02  0.93127060288E+02  0.00000000000E+00 0. -1.
<scales pt_clust_5="13000.00000" pt_clust_6="13000.00000" pt_clust_7="13000.00000" pt_clust_8="13000.00000" pt_clust_9="73.75608"></scales>
<clustering>
<clus scale="   73.756">  1  9  2 -1</clus>
<clus scale="   77.818">  5  6 -1 -1</clus>
<clus scale="   89.964">  7  8 -1 -1</clus>
<clus scale="  124.824">  2  5  1 -1</clus>
<clus scale="   73.756">  1  5  2 -1</clus>
</clustering>
</event>
<event>
 9    2  0.9254368E-005  0.2206903E+03  0.7546771E-02  0.1176494E+00
         -1   -1    0    0    0  501 -0.00000000000E+00  0.00000000000E+00  0.63037553967E+03  0.63037553967E+03  0.00000000000E+00 0.  1.
         21   -1    0    0  501  502  0.00000000000E+00 -0.00000000000E+00 -0.10401599085E+03  0.10401599085E+03  0.00000000000E+00 0.  1.
         24    2    1    2    0    0 -0.59287310818E+01  0.11346183174E+02  0.12804529188E+03  0.15104405774E+03  0.79087450857E+02 0.  0.
         23    2    1    2    0    0 -0.13898268443E+03 -0.14787320135E+03  0.25111550926E+03  0.33574614734E+03  0.92107579580E+02 0.  0.
        -13    1    3    3    0    0 -0.42444517392E+02  0.89506121141E+01  0.73952614742E+02  0.85735871962E+02  0.00000000000E+00 0.  1.
         14    1    3    3    0    0  0.36515786310E+02  0.23955710598E+01  0.54092677136E+02  0.65308185783E+02  0.00000000000E+00 0. -1.
        -11    1    4    4    0    0 -0.56894598354E+02 -0.12529946587E+03  0.16029844429E+03  0.21126415387E+03  0.00000000000E+00 0.  1.
         11    1    4    4    0    0 -0.82088086074E+02 -0.22573735481E+02  0.90817064969E+02  0.12448199347E+03  0.00000000000E+00 0. -1.
         -2    1    1    2    0  502  0.14491141551E+03  0.13652701818E+03  0.14719874768E+03  0.24760132543E+03  0.00000000000E+00 0.  1.
<scales pt_clust_5="13000.00000" pt_clust_6="13000.00000" pt_clust_7="13000.00000" pt_clust_8="13000.00000" pt_clust_9="200.55022"></scales>
<clustering>
<clus scale="   79.087">  5  6 -1 -1</clus>
<clus scale="   80.117">  1  5  2 -1</clus>
<clus scale="   92.108">  7  8 -1 -1</clus>
<clus scale="  200.550">  2  9  1 -1</clus>
<clus scale="  200.550">  2  5  1 -1</clus>
</clustering>
</event>
<event>
 9    2  0.9254368E-005  0.1089501E+03  0.7546771E-02  0.1268084E+00
         21   -1    0    0  501  502  0.00000000000E+00  0.00000000000E+00  0.45317880254E+02  0.45317880254E+02  0.00000000000E+00 0. -1.
         -1   -1    0    0    0  501 -0.00000000000E+00 -0.00000000000E+00 -0.44519953263E+03  0.44519953263E+03  0.00000000000E+00 0.  1.
         23    2    1    2    0    0  0.39116698591E+02 -0.32112410018E+02 -0.17841835925E+03  0.20741758597E+03  0.92884988387E+02 0.  0.
         24    2    1    2    0    0 -0.79778642897E+02 -0.11250277725E+02 -0.11614146157E+03  0.16216015350E+03  0.79472483766E+02 0.  0.
        -11    1    4    4    0    0 -0.27282279367E+02  0.20881766181E+02 -0.44648356289E+01  0.34645428031E+02  0.00000000000E+00 0.  1.
         12    1    4    4    0    0 -0.52496363530E+02 -0.32132043906E+02 -0.11167662594E+03  0.12751472547E+03  0.00000000000E+00 0. -1.
        -13    1    3    3    0    0 -0.28455864686E+02 -0.15989508283E+02 -0.84605587271E+02  0.90683548715E+02  0.00000000000E+00 0.  1.
         13    1    3    3    0    0  0.67572563276E+02 -0.16122901734E+02 -0.93812771980E+02  0.11673403726E+03  0.00000000000E+00 0. -1.
         -2    1    1    2    0  502  0.40661944306E+02  0.43362687742E+02 -0.10532183156E+03  0.12093967341E+03  0.00000000000E+00 0.  1.
<scales pt_clust_5="13000.00000" pt_clust_6="13000.00000" pt_clust_7="13000.00000" pt_clust_8="13000.00000" pt_clust_9="59.44510"></scales>
<clustering>
<clus scale="   59.445">  1  9  2 -1</clus>
<clus scale="   79.472">  5  6 -1 -1</clus>
<clus scale="   92.885">  7  8 -1 -1</clus>
<clus scale="   97.767">  1  5  2 -1</clus>
<clus scale="   59.445">  1  5  2 -1</clus>
</clustering>
</event>
<event>
 9    2  0.9254368E-005  0.9009376E+02  0.7546771E-02  0.1308184E+00
          2   -1    0    0  502    0 -0.00000000000E+00  0.00000000000E+00  0.23423386098E+03  0.23423386098E+03  0.00000000000E+00 0. -1.
         21   -1    0    0  501  502  0.00000000000E+00 -0.00000000000E+00 -0.61898754312E+02  0.61898754312E+02  0.00000000000E+00 0. -1.
         24    2    1    2    0    0 -0.52455817156E+01 -0.18390258279E+02  0.11480106096E+03  0.14196301739E+03  0.81292662526E+02 0.  0.
         23    2    1    2    0    0 -0.81711939179E+01 -0.24050869485E+02  0.57256521078E+02  0.10965739492E+03  0.90006790419E+02 0.  0.
        -13    1    3    3    0    0  0.32421984969E+02  0.27596403243E+01  0.21095248753E+02  0.38778992302E+02  0.00000000000E+00 0.  1.
         14    1    3    3    0    0 -0.37667566685E+02 -0.21149898603E+02  0.93705812212E+02  0.10318402509E+03  0.00000000000E+00 0. -1.
        -13    1    4    4    0    0  0.30645279761E+02 -0.35060914575E+02  0.50596975989E+02  0.68763761399E+02  0.00000000000E+00 0.  1.
         13    1    4    4    0    0 -0.38816473679E+02  0.11010045090E+02  0.66595450889E+01  0.40893633521E+02  0.00000000000E+00 0. -1.
          1    1    1    2  501    0  0.13416775633E+02  0.42441127764E+02  0.27752462411E+00  0.44512202981E+02  0.00000000000E+00 0. -1.
<scales pt_clust_5="13000.00000" pt_clust_6="13000.00000" pt_clust_7="13000.00000" pt_clust_8="13000.00000" pt_clust_9="44.51134"></scales>
<clustering>
<clus scale="   44.511">  2  9  1 -1</clus>
<clus scale="   81.293">  5  6 -1 -1</clus>
<clus scale="   81.389">  1  5  2 -1</clus>
<clus scale="   90.007">  7  8 -1 -1</clus>
<clus scale="   44.511">  2  5  1 -1</clus>
</clustering>
</event>
<event>
 9    2  0.9254368E-005  0.2086806E+03  0.7546771E-02  0.1143556E+00
          2   -1    0    0  502    0 -0.00000000000E+00  0.00000000000E+00  0.12008490011E+04  0.12008490011E+04  0.00000000000E+00 0. -1.
         21   -1    0    0  501  502  0.00000000000E+00 -0.00000000000E+00 -0.71390650398E+02  0.71390650398E+02  0.00000000000E+00 0. -1.
         24    2    1    2    0    0  0.11592220571E+03  0.95944641967E+02  0.41042271256E+03  0.44440311850E+03  0.80024975150E+02 0.  0.
         23    2    1    2    0    0 -0.23932575508E+03 -0.11243424967E+03  0.55895563927E+03  0.62504119478E+03  0.91251361430E+02 0.  0.
        -13    1    3    3    0    0  0.80160857171E+02  0.19747286080E+02  0.24937760017E+03  0.26268784859E+03  0.00000000000E+00 0.  1.
         14    1    3    3    0    0  0.35761348535E+02  0.76197355887E+02  0.16104511239E+03  0.18171526991E+03  0.00000000000E+00 0. -1.
        -11    1    4    4    0    0 -0.15470221486E+03 -0.68174852189E+02  0.25105165090E+03  0.30266733748E+03  0.00000000000E+00 0.  1.
         11    1    4    4    0    0 -0.84623540224E+02 -0.44259397477E+02  0.30790398836E+03  0.32237385731E+03  0.00000000000E+00 0. -1.
          1    1    1    2  501    0  0.12340354937E+03  0.16489607699E+02  0.16007999883E+03  0.20279533817E+03  0.00000000000E+00 0. -1.
<scales pt_clust_5="13000.00000" pt_clust_6="13000.00000" pt_clust_7="13000.00000" pt_clust_8="13000.00000" pt_clust_9="124.50037"></scales>
<clustering>
<clus scale="   80.025">  5  6 -1 -1</clus>
<clus scale="   91.251">  7  8 -1 -1</clus>
<clus scale="  124.500">  2  9  1 -1</clus>
<clus scale="  204.021">  1  5  2 -1</clus>
<clus scale="  124.500">  2  5  1 -1</clus>
</clustering>
</event>
<event>
 9    2  0.9254368E-005  0.9724764E+02  0.7546771E-02  0.1294054E+00
          2   -1    0    0  502    0 -0.00000000000E+00  0.00000000000E+00  0.33230939643E+03  0.33230939643E+03  0.00000000000E+00 0. -1.
         21   -1    0    0  501  502  0.00000000000E+00 -0.00000000000E+00 -0.72546319184E+02  0.72546319184E+02  0.00000000000E+00 0.  1.
         24    2    1    2    0    0 -0.12635212261E+02 -0.65640101477E+01  0.14167897043E+03  0.16405187870E+03  0.81469954123E+02 0.  0.
         23    2    1    2    0    0 -0.90597337733E+01  0.71107553272E+02  0.19059455985E+02  0.12062721225E+03  0.95127801223E+02 0.  0.
        -13    1    3    3    0    0  0.23687201595E+02  0.15689842762E+02  0.10183548612E+03  0.10572474128E+03  0.00000000000E+00 0.  1.
         14    1    3    3    0    0 -0.36322413856E+02 -0.22253852910E+02  0.39843484306E+02  0.58327137418E+02  0.00000000000E+00 0. -1.
        -13    1    4    4    0    0  0.39631983268E+02  0.37438517996E+02 -0.87586939337E+01  0.55218216622E+02  0.00000000000E+00 0.  1.
         13    1    4    4    0    0 -0.48691717041E+02  0.33669035276E+02  0.27818149919E+02  0.65408995633E+02  0.00000000000E+00 0. -1.
          1    1    1    2  501    0  0.21694946034E+02 -0.64543543124E+02  0.99024650838E+02  0.12017662467E+03  0.00000000000E+00 0. -1.
<scales pt_clust_5="13000.00000" pt_clust_6="13000.00000" pt_clust_7="13000.00000" pt_clust_8="13000.00000" pt_clust_9="68.09217"></scales>
<clustering>
<clus scale="   68.092">  2  9  1 -1</clus>
<clus scale="   81.470">  5  6 -1 -1</clus>
<clus scale="   83.935">  1  5  2 -1</clus>
<clus scale="   95.128">  7  8 -1 -1</clus>
<clus scale="   68.092">  2  5  1 -1</clus>
</clustering>
</event>
<event>
 9    2  0.9254368E-005  0.1325081E+03  0.7546771E-02  0.1226559E+00
         21   -1    0    0  501  502  0.00000000000E+00  0.00000000000E+00  0.33265439143E+03  0.33265439143E+03  0.00000000000E+00 0.  1.
         -3   -1    0    0    0  501 -0.00000000000E+00 -0.00000000000E+00 -0.40797510467E+03  0.40797510467E+03  0.00000000000E+00 0.  1.
         24    2    1    2    0    0  0.72333978879E+02  0.64039385868E+02 -0.36902168377E+03  0.38985079285E+03  0.80457380942E+02 0.  0.
         23    2    1    2    0    0 -0.31510527113E+02 -0.86810518687E+02  0.14448150525E+03  0.19440886114E+03  0.91601967546E+02 0.  0.
        -11    1    3    3    0    0  0.64596605660E+02  0.15556617463E+02 -0.28402634579E+03  0.29169452328E+03  0.00000000000E+00 0.  1.
         12    1    3    3    0    0  0.77373732189E+01  0.48482768405E+02 -0.84995337978E+02  0.98156269563E+02  0.00000000000E+00 0. -1.
        -13    1    4    4    0    0 -0.37830049558E+02 -0.33336759710E+02  0.12881212670E+03  0.13832937570E+03  0.00000000000E+00 0. -1.
         13    1    4    4    0    0  0.63195224451E+01 -0.53473758977E+02  0.15669378549E+02  0.56079485439E+02  0.00000000000E+00 0.  1.
         -4    1    1    2    0  502 -0.40823451766E+02  0.22771132819E+02  0.14921946528E+03  0.15636984211E+03  0.00000000000E+00 0.  1.
<scales pt_clust_5="13000.00000" pt_clust_6="13000.00000" pt_clust_7="13000.00000" pt_clust_8="13000.00000" pt_clust_9="46.74483"></scales>
<clustering>
<clus scale="   46.745">  1  9  2 -1</clus>
<clus scale="   80.457">  5  6 -1 -1</clus>
<clus scale="   91.602">  7  8 -1 -1</clus>
<clus scale="  125.063">  2  5  1 -1</clus>
<clus scale="   46.745">  1  5  2 -1</clus>
</clustering>
</event>
<event>
 9    2  0.9254368E-005  0.1760356E+03  0.7546771E-02  0.1200145E+00
          2   -1    0    0  502    0 -0.00000000000E+00  0.00000000000E+00  0.19588225658E+04  0.19588225658E+04  0.00000000000E+00 0. -1.
         21   -1    0    0  501  502  0.00000000000E+00 -0.00000000000E+00 -0.24988666541E+02  0.24988666541E+02  0.00000000000E+00 0. -1.
         23    2    1    2    0    0  0.25907179668E+01 -0.10988435848E+02  0.36480360399E+03  0.37658683314E+03  0.92782088088E+02 0.  0.
         24    2    1    2    0    0  0.81477690788E+02 -0.12517297917E+03  0.10640966206E+04  0.10775401120E+04  0.80524444699E+02 0.  0.
        -13    1    4    4    0    0  0.69743685326E+02 -0.43526484025E+02  0.40161283009E+03  0.40994097349E+03  0.00000000000E+00 0.  1.
         14    1    4    4    0    0  0.11734005462E+02 -0.81646495144E+02  0.66248379047E+03  0.66759913848E+03  0.00000000000E+00 0. -1.
        -11    1    3    3    0    0  0.30768130444E+02  0.30207804391E+02  0.15106468479E+03  0.15709783031E+03  0.00000000000E+00 0.  1.
         11    1    3    3    0    0 -0.28177412477E+02 -0.41196240240E+02  0.21373891920E+03  0.21948900284E+03  0.00000000000E+00 0. -1.
          1    1    1    2  501    0 -0.84068408754E+02  0.13616141502E+03  0.50493367473E+03  0.52968428725E+03  0.00000000000E+00 0. -1.
<scales pt_clust_5="13000.00000" pt_clust_6="13000.00000" pt_clust_7="13000.00000" pt_clust_8="13000.00000" pt_clust_9="156.53860"></scales>
<clustering>
<clus scale="   80.524">  5  6 -1 -1</clus>
<clus scale="   92.782">  7  8 -1 -1</clus>
<clus scale="   93.466">  1  7  2 -1</clus>
<clus scale="  156.539">  2  9  1 -1</clus>
<clus scale="  156.539">  2  5  1 -1</clus>
</clustering>
</event>
<event>
 9    2  0.9254368E-005  0.1444226E+03  0.7546771E-02  0.1208030E+00
          2   -1    0    0  502    0 -0.00000000000E+00  0.00000000000E+00  0.98026111038E+03  0.98026111038E+03  0.00000000000E+00 0. -1.
         21   -1    0    0  501  502  0.00000000000E+00 -0.00000000000E+00 -0.40448709520E+02  0.40448709520E+02  0.00000000000E+00 0. -1.
         23    2    1    2    0    0 -0.11159828489E+03  0.31844738497E+02  0.53012522602E+03  0.55067237134E+03  0.93482836574E+02 0.  0.
         24    2    1    2    0    0  0.74773018321E+02 -0.70739750713E+02  0.14397348745E+03  0.19897899380E+03  0.90934912353E+02 0.  0.
        -13    1    4    4    0    0 -0.60884159883E+01 -0.54147687298E+02  0.63877802262E+02  0.83960791271E+02  0.00000000000E+00 0.  1.
         14    1    4    4    0    0  0.80861434309E+02 -0.16592063414E+02  0.80095685192E+02  0.11501820253E+03  0.00000000000E+00 0. -1.
        -13    1    3    3    0    0 -0.76995768562E+02 -0.19344381079E+02  0.38226386081E+03  0.39042055880E+03  0.00000000000E+00 0.  1.
         13    1    3    3    0    0 -0.34602516324E+02  0.51189119576E+02  0.14786136521E+03  0.16025181254E+03  0.00000000000E+00 0. -1.
          1    1    1    2  501    0  0.36825266565E+02  0.38895012216E+02  0.26571368738E+03  0.27105845476E+03  0.00000000000E+00 0. -1.
<scales pt_clust_5="13000.00000" pt_clust_6="13000.00000" pt_clust_7="13000.00000" pt_clust_8="13000.00000" pt_clust_9="53.56235"></scales>
<clustering>
<clus scale="   53.562">  2  9  1 -1</clus>
<clus scale="   90.935">  5  6 -1 -1</clus>
<clus scale="   93.483">  7  8 -1 -1</clus>
<clus scale="  142.787">  2  5  1 -1</clus>
<clus scale="   53.562">  2  5  1 -1</clus>
</clustering>
</event>
<event>
 9    2  0.9254368E-005  0.9044391E+02  0.7546771E-02  0.1305581E+00
         -1   -1    0    0    0  501 -0.00000000000E+00  0.00000000000E+00  0.63692589143E+02  0.63692589143E+02  0.00000000000E+00 0.  1.
         21   -1    0    0  501  502  0.00000000000E+00 -0.00000000000E+00 -0.17398330056E+03  0.17398330056E+03  0.00000000000E+00 0. -1.
         24    2    1    2    0    0  0.22803953445E+02  0.17641365129E+02 -0.32119819636E+02  0.90822598193E+02  0.79911347584E+02 0.  0.
         23    2    1    2    0    0 -0.29158623275E+01 -0.29920745844E+02 -0.82450269278E+02  0.12309129600E+03  0.86311453246E+02 0.  0.
        -11    1    3    3    0    0 -0.20581111477E+02  0.33026162872E+02 -0.15297032331E+02  0.41812782517E+02  0.00000000000E+00 0.  1.
         12    1    3    3    0    0  0.43385064922E+02 -0.15384797743E+02 -0.16822787305E+02  0.49009815676E+02  0.00000000000E+00 0. -1.
        -11    1    4    4    0    0  0.26013263706E+02 -0.49012957836E+02 -0.60357858864E+02  0.81987993335E+02  0.00000000000E+00 0. -1.
         11    1    4    4    0    0 -0.28929126034E+02  0.19092211992E+02 -0.22092410414E+02  0.41103302662E+02  0.00000000000E+00 0.  1.
         -2    1    1    2    0  502 -0.19888091118E+02  0.12279380715E+02  0.42793774960E+01  0.23761995514E+02  0.00000000000E+00 0.  1.
<scales pt_clust_5="13000.00000" pt_clust_6="13000.00000" pt_clust_7="13000.00000" pt_clust_8="13000.00000" pt_clust_9="23.37349"></scales>
<clustering>
<clus scale="   23.373">  2  9  1 -1</clus>
<clus scale="   79.911">  5  6 -1 -1</clus>
<clus scale="   84.358">  1  5  2 -1</clus>
<clus scale="   86.311">  7  8 -1 -1</clus>
<clus scale="   23.373">  2  5  1 -1</clus>
</clustering>
</event>
<event>
 9    2  0.9254368E-005  0.1422543E+03  0.7546771E-02  0.1212376E+00
         21   -1    0    0  501  502  0.00000000000E+00  0.00000000000E+00  0.29858919772E+02  0.29858919772E+02  0.00000000000E+00 0. -1.
         -1   -1    0    0    0  501 -0.00000000000E+00 -0.00000000000E+00 -0.15719022896E+04  0.15719022896E+04  0.00000000000E+00 0.  1.
         24    2    1    2    0    0  0.10205689771E+03 -0.49141289521E+02 -0.78951368577E+03  0.80186158129E+03  0.82581225587E+02 0.  0.
         23    2    1    2    0    0 -0.11254232950E+03 -0.38740232767E+02 -0.26851652618E+03  0.30786117101E+03  0.92253965880E+02 0.  0.
        -13    1    3    3    0    0  0.71772320302E+02  0.10709492098E+02 -0.37517786052E+03  0.38213137297E+03  0.00000000000E+00 0.  1.
         14    1    3    3    0    0  0.30284577410E+02 -0.59850781619E+02 -0.41433582525E+03  0.41973020832E+03  0.00000000000E+00 0. -1.
        -11    1    4    4    0    0 -0.17337374697E+02  0.27070116903E+02 -0.36904107002E+02  0.48941688816E+02  0.00000000000E+00 0.  1.
         11    1    4    4    0    0 -0.95204954803E+02 -0.65810349671E+02 -0.23161241917E+03  0.25891948219E+03  0.00000000000E+00 0. -1.
         -2    1    1    2    0  502  0.10485431787E+02  0.87881522288E+02 -0.48401315784E+03  0.49203845704E+03  0.00000000000E+00 0.  1.
<scales pt_clust_5="13000.00000" pt_clust_6="13000.00000" pt_clust_7="13000.00000" pt_clust_8="13000.00000" pt_clust_9="88.50488"></scales>
<clustering>
<clus scale="   82.581">  5  6 -1 -1</clus>
<clus scale="   88.505">  1  9  2 -1</clus>
<clus scale="   92.254">  7  8 -1 -1</clus>
<clus scale="  136.181">  2  5  1 -1</clus>
<clus scale="   88.505">  1  5  2 -1</clus>
</clustering>
</event>
<event>
 9    2  0.9254368E-005  0.8899201E+02  0.7546771E-02  0.1306401E+00
         21   -1    0    0  501  502  0.00000000000E+00  0.00000000000E+00  0.78876328544E+02  0.78876328544E+02  0.00000000000E+00 0. -1.
          2   -1    0    0  502    0 -0.00000000000E+00 -0.00000000000E+00 -0.41210988999E+03  0.41210988999E+03  0.00000000000E+00 0. -1.
         24    2    1    2    0    0  0.36454946940E+02 -0.15024573570E+02 -0.29919690176E+03  0.31254355870E+03  0.81301839428E+02 0.  0.
         23    2    1    2    0    0 -0.14829053096E+02 -0.10772501182E+02 -0.83062940044E+02  0.11897212497E+03  0.83180327690E+02 0.  0.
        -11    1    3    3    0    0  0.17587329937E+02  0.17092702335E+02 -0.22284880125E+02  0.33137449051E+02  0.00000000000E+00 0.  1.
         12    1    3    3    0    0  0.18867617003E+02 -0.32117275905E+02 -0.27691202163E+03  0.27940610965E+03  0.00000000000E+00 0. -1.
        -13    1    4    4    0    0  0.85110423765E+01 -0.37851116128E+02 -0.71590814048E+02  0.81427203627E+02  0.00000000000E+00 0. -1.
         13    1    4    4    0    0 -0.23340095473E+02  0.27078614946E+02 -0.11472125995E+02  0.37544921346E+02  0.00000000000E+00 0.  1.
          1    1    1    2  501    0 -0.21625893844E+02  0.25797074752E+02  0.49026280360E+02  0.59470534858E+02  0.00000000000E+00 0. -1.
<scales pt_clust_5="13000.00000" pt_clust_6="13000.00000" pt_clust_7="13000.00000" pt_clust_8="13000.00000" pt_clust_9="33.66257"></scales>
<clustering>
<clus scale="   33.663">  1  9  2 -1</clus>
<clus scale="   81.302">  5  6 -1 -1</clus>
<clus scale="   83.180">  7  8 -1 -1</clus>
<clus scale="   87.239">  2  5  1 -1</clus>
<clus scale="   33.663">  1  5  2 -1</clus>
</clustering>
</event>
<event>
 9    2  0.9254368E-005  0.9100700E+02  0.7546771E-02  0.1306790E+00
         21   -1    0    0  501  502  0.00000000000E+00  0.00000000000E+00  0.35030769467E+03  0.35030769467E+03  0.00000000000E+00 0. -1.
         -1   -1    0    0    0  501 -0.00000000000E+00 -0.00000000000E+00 -0.64240847703E+02  0.64240847703E+02  0.00000000000E+00 0.  1.
         23    2    1    2    0    0 -0.12266687677E+02  0.61338320204E+01  0.38000930481E+02  0.99510341637E+02  0.90940320284E+02 0.  0.
         24    2    1    2    0    0 -0.42700889196E+02  0.62612570884E+01  0.24147877339E+03  0.25830669983E+03  0.80918377996E+02 0.  0.
        -13    1    4    4    0    0 -0.53226801633E+02  0.34315103809E+01  0.78161077216E+02  0.94625692426E+02  0.00000000000E+00 0.  1.
         14    1    4    4    0    0  0.10525912437E+02  0.28297467075E+01  0.16331769618E+03  0.16368100740E+03  0.00000000000E+00 0. -1.
        -13    1    3    3    0    0 -0.11722140396E+02 -0.25762736306E+02 -0.19069650549E+02  0.34128854793E+02  0.00000000000E+00 0. -1.
         13    1    3    3    0    0 -0.54454728097E+00  0.31896568326E+02  0.57070581030E+02  0.65381486843E+02  0.00000000000E+00 0.  1.
         -2    1    1    2    0  502  0.54967576873E+02 -0.12395089109E+02  0.65871430939E+01  0.56731500910E+02  0.00000000000E+00 0.  1.
<scales pt_clust_5="13000.00000" pt_clust_6="13000.00000" pt_clust_7="13000.00000" pt_clust_8="13000.00000" pt_clust_9="56.34781"></scales>
<clustering>
<clus scale="   56.348">  1  9  2 -1</clus>
<clus scale="   80.918">  5  6 -1 -1</clus>
<clus scale="   80.993">  1  5  2 -1</clus>
<clus scale="   90.940">  7  8 -1 -1</clus>
<clus scale="   56.348">  1  5  2 -1</clus>
</clustering>
</event>
<event>
 9    2  0.9254368E-005  0.2124472E+03  0.7546771E-02  0.1165637E+00
         21   -1    0    0  501  502  0.00000000000E+00  0.00000000000E+00  0.24506645967E+03  0.24506645967E+03  0.00000000000E+00 0. -1.
          2   -1    0    0  502    0 -0.00000000000E+00 -0.00000000000E+00 -0.59707912205E+03  0.59707912205E+03  0.00000000000E+00 0. -1.
         24    2    1    2    0    0 -0.80511400482E+02 -0.11242042045E+02 -0.33971997341E+03  0.35868046282E+03  0.81446577338E+02 0.  0.
         23    2    1    2    0    0 -0.12479687164E+03 -0.33515753814E+02 -0.16161509083E+03  0.22568240694E+03  0.90086326889E+02 0.  0.
        -11    1    3    3    0    0 -0.23739519153E+02  0.12160954068E+02 -0.20588360964E+02  0.33694720368E+02  0.00000000000E+00 0.  1.
         12    1    3    3    0    0 -0.56771881329E+02 -0.23402996113E+02 -0.31913161245E+03  0.32498574245E+03  0.00000000000E+00 0. -1.
        -13    1    4    4    0    0 -0.43145323218E+02 -0.40812229374E+02 -0.21145534900E+02  0.63041975130E+02  0.00000000000E+00 0. -1.
         13    1    4    4    0    0 -0.81651548419E+02  0.72964755602E+01 -0.14046955593E+03  0.16264043181E+03  0.00000000000E+00 0.  1.
          1    1    1    2  501    0  0.20530827212E+03  0.44757795859E+02  0.14932240186E+03  0.25778271196E+03  0.00000000000E+00 0. -1.
<scales pt_clust_5="13000.00000" pt_clust_6="13000.00000" pt_clust_7="13000.00000" pt_clust_8="13000.00000" pt_clust_9="192.40134"></scales>
<clustering>
<clus scale="   81.447">  5  6 -1 -1</clus>
<clus scale="   90.086">  7  8 -1 -1</clus>
<clus scale="  115.074">  2  5  1 -1</clus>
<clus scale="  192.401">  1  9  2 -1</clus>
<clus scale="  192.401">  1  5  2 -1</clus>
</clustering>
</event>
<event>
 9    2  0.9254368E-005  0.2195097E+03  0.7546771E-02  0.1146283E+00
         21   -1    0    0  501  502  0.00000000000E+00  0.00000000000E+00  0.13957852360E+03  0.13957852360E+03  0.00000000000E+00 0.  1.
          2   -1    0    0  502    0 -0.00000000000E+00 -0.00000000000E+00 -0.11073824706E+04  0.11073824706E+04  0.00000000000E+00 0. -1.
         23    2    1    2    0    0 -0.12060032635E+03  0.15808888334E+02 -0.10330271331E+01  0.16423077650E+03  0.11034636894E+03 0.  0.
         24    2    1    2    0    0 -0.91036764145E+02 -0.16471198489E+03 -0.26639260016E+03  0.33607622758E+03  0.81021496717E+02 0.  0.
        -13    1    4    4    0    0 -0.97182561826E+02 -0.11302151092E+03 -0.22340188999E+03  0.26856417613E+03  0.00000000000E+00 0.  1.
         14    1    4    4    0    0  0.61457976808E+01 -0.51690473977E+02 -0.42990710172E+02  0.67512051444E+02  0.00000000000E+00 0. -1.
        -11    1    3    3    0    0 -0.93201223201E+02  0.59592074179E+02 -0.12486476360E+02  0.11132652605E+03  0.00000000000E+00 0.  1.
         11    1    3    3    0    0 -0.27399103147E+02 -0.43783185845E+02  0.11453449227E+02  0.52904250445E+02  0.00000000000E+00 0. -1.
          1    1    1    2  501    0  0.21163709049E+03  0.14890309656E+03 -0.70037831968E+03  0.74665399009E+03  0.00000000000E+00 0. -1.
<scales pt_clust_5="13000.00000" pt_clust_6="13000.00000" pt_clust_7="13000.00000" pt_clust_8="13000.00000" pt_clust_9="204.00999"></scales>
<clustering>
<clus scale="   81.021">  5  6 -1 -1</clus>
<clus scale="  110.346">  7  8 -1 -1</clus>
<clus scale="  164.228">  2  7  1 -1</clus>
<clus scale="  204.010">  1  9  2 -1</clus>
<clus scale="  204.010">  1  5  2 -1</clus>
</clustering>
</event>
<event>
 9    2  0.9254368E-005  0.1633257E+03  0.7546771E-02  0.1187175E+00
          4   -1    0    0  502    0 -0.00000000000E+00  0.00000000000E+00  0.22472333109E+03  0.22472333109E+03  0.00000000000E+00 0. -1.
         21   -1    0    0  501  502  0.00000000000E+00 -0.00000000000E+00 -0.14909156516E+03  0.14909156516E+03  0.00000000000E+00 0. -1.
         24    2    1    2    0    0  0.81227123903E+02  0.97590513281E+02  0.67719827358E+02  0.16439310099E+03  0.79481838779E+02 0.  0.
         23    2    1    2    0    0 -0.69465254214E+02 -0.12909640710E+03  0.16295861588E+02  0.17476269705E+03  0.93729084626E+02 0.  0.
        -13    1    3    3    0    0  0.56026367686E+02  0.32847226225E+02  0.69199473001E+02  0.94902377264E+02  0.00000000000E+00 0.  1.
         14    1    3    3    0    0  0.25200756217E+02  0.64743287056E+02 -0.14796456430E+01  0.69490723726E+02  0.00000000000E+00 0. -1.
        -11    1    4    4    0    0 -0.53748267742E+02 -0.11265863051E+02  0.91562653962E+01  0.55674349134E+02  0.00000000000E+00 0.  1.
         11    1    4    4    0    0 -0.15716986472E+02 -0.11783054405E+03  0.71395961923E+01  0.11908834791E+03  0.00000000000E+00 0. -1.
          3    1    1    2  501    0 -0.11761869689E+02  0.31505893819E+02 -0.83839230117E+01  0.34659098213E+02  0.00000000000E+00 0. -1.
<scales pt_clust_5="13000.00000" pt_clust_6="13000.00000" pt_clust_7="13000.00000" pt_clust_8="13000.00000" pt_clust_9="33.62979"></scales>
<clustering>
<clus scale="   33.630">  2  9  1 -1</clus>
<clus scale="   79.482">  5  6 -1 -1</clus>
<clus scale="   93.729">  7  8 -1 -1</clus>
<clus scale="  155.588">  1  5  2 -1</clus>
<clus scale="   33.630">  2  5  1 -1</clus>
</clustering>
</event>
<event>
 9    2  0.9254368E-005  0.1638148E+03  0.7546771E-02  0.1212483E+00
         21   -1    0    0  501  502  0.00000000000E+00  0.00000000000E+00  0.18329934125E+03  0.18329934125E+03  0.00000000000E+00 0.  1.
         -1   -1    0    0    0  501 -0.00000000000E+00 -0.00000000000E+00 -0.26842151317E+03  0.26842151317E+03  0.00000000000E+00 0.  1.
         24    2    1    2    0    0  0.37141019342E+02  0.31290817196E+01  0.24273559667E+02  0.92224549547E+02  0.80789327081E+02 0.  0.
         23    2    1    2    0    0  0.62757097888E+02 -0.10540206372E+03  0.26710285540E+02  0.16210267638E+03  0.10254652586E+03 0.  0.
        -13    1    3    3    0    0  0.28272230261E+02  0.41095368971E+02  0.11418575178E+02  0.51171595772E+02  0.00000000000E+00 0.  1.
         14    1    3    3    0    0  0.88687890807E+01 -0.37966287251E+02  0.12854984489E+02  0.41052953775E+02  0.00000000000E+00 0. -1.
        -13    1    4    4    0    0  0.86460250546E+02 -0.50766424568E+02  0.19047701793E+02  0.10205596372E+03  0.00000000000E+00 0.  1.
         13    1    4    4    0    0 -0.23703152658E+02 -0.54635639151E+02  0.76625837473E+01  0.60046712658E+02  0.00000000000E+00 0. -1.
         -2    1    1    2    0  502 -0.99898117229E+02  0.10227298200E+03 -0.13610601712E+03  0.19739362850E+03  0.00000000000E+00 0.  1.
<scales pt_clust_5="13000.00000" pt_clust_6="13000.00000" pt_clust_7="13000.00000" pt_clust_8="13000.00000" pt_clust_9="127.74780"></scales>
<clustering>
<clus scale="   80.789">  5  6 -1 -1</clus>
<clus scale="   88.973">  2  5  1 -1</clus>
<clus scale="  102.547">  7  8 -1 -1</clus>
<clus scale="  127.748">  1  9  2 -1</clus>
<clus scale="  127.748">  1  5  2 -1</clus>
</clustering>
</event>
<event>
 9    2  0.9254368E-005  0.9226734E+02  0.7546771E-02  0.1303613E+00
         21   -1    0    0  501  502  0.00000000000E+00  0.00000000000E+00  0.25748396948E+02  0.25748396948E+02  0.00000000000E+00 0. -1.
          2   -1    0    0  502    0 -0.00000000000E+00 -0.00000000000E+00 -0.92104506944E+03  0.92104506944E+03  0.00000000000E+00 0. -1.
         24    2    1    2    0    0  0.21131135137E+02  0.49923075528E+01 -0.27933966376E+03  0.29145431280E+03  0.80271543468E+02 0.  0.
         23    2    1    2    0    0  0.17183415106E+02  0.67709607718E+02 -0.19141565343E+03  0.22291698071E+03  0.90400039691E+02 0.  0.
        -11    1    3    3    0    0 -0.28263027303E+02  0.15341278806E+02 -0.12515968540E+03  0.12922499912E+03  0.00000000000E+00 0.  1.
         12    1    3    3    0    0  0.49394162440E+02 -0.10348971253E+02 -0.15417997836E+03  0.16222931368E+03  0.00000000000E+00 0. -1.
        -13    1    4    4    0    0  0.35571241073E+02  0.51577361727E+02 -0.18806505019E+03  0.19822714380E+03  0.00000000000E+00 0. -1.
         13    1    4    4    0    0 -0.18387825967E+02  0.16132245991E+02 -0.33506032397E+01  0.24689836909E+02  0.00000000000E+00 0.  1.
          1    1    1    2  501    0 -0.38314550243E+02 -0.72701915271E+02 -0.42454135530E+03  0.43242217288E+03  0.00000000000E+00 0. -1.
<scales pt_clust_5="13000.00000" pt_clust_6="13000.00000" pt_clust_7="13000.00000" pt_clust_8="13000.00000" pt_clust_9="82.18017"></scales>
<clustering>
<clus scale="   80.272">  5  6 -1 -1</clus>
<clus scale="   82.180">  1  9  2 -1</clus>
<clus scale="   82.369">  2  5  1 -1</clus>
<clus scale="   90.400">  7  8 -1 -1</clus>
<clus scale="   82.180">  1  5  2 -1</clus>
</clustering>
</event>
<event>
 9    2  0.9254368E-005  0.1012285E+03  0.7546771E-02  0.1286068E+00
          2   -1    0    0  502    0 -0.00000000000E+00  0.00000000000E+00  0.11231834990E+04  0.11231834990E+04  0.00000000000E+00 0. -1.
         21   -1    0    0  501  502  0.00000000000E+00 -0.00000000000E+00 -0.23484055363E+02  0.23484055363E+02  0.00000000000E+00 0. -1.
         24    2    1    2    0    0 -0.47123534384E+01  0.27563777217E+02  0.74393330215E+03  0.74887338425E+03  0.81194947537E+02 0.  0.
         23    2    1    2    0    0 -0.21650247508E+02 -0.35724722550E+02  0.35485050673E+03  0.37018210495E+03  0.96803510690E+02 0.  0.
        -13    1    3    3    0    0  0.32484270917E+02 -0.21466330710E+01  0.17888354633E+03  0.18182177822E+03  0.00000000000E+00 0.  1.
         14    1    3    3    0    0 -0.37196624356E+02  0.29710410288E+02  0.56504975582E+03  0.56705160603E+03  0.00000000000E+00 0. -1.
        -13    1    4    4    0    0 -0.51355323947E+02  0.48933387140E+01  0.22692925656E+03  0.23271914735E+03  0.00000000000E+00 0. -1.
         13    1    4    4    0    0  0.29705076439E+02 -0.40618061263E+02  0.12792125017E+03  0.13746295760E+03  0.00000000000E+00 0.  1.
          1    1    1    2  501    0  0.26362600947E+02  0.81609453328E+01  0.91563479697E+00  0.27612065198E+02  0.00000000000E+00 0. -1.
<scales pt_clust_5="13000.00000" pt_clust_6="13000.00000" pt_clust_7="13000.00000" pt_clust_8="13000.00000" pt_clust_9="27.59688"></scales>
<clustering>
<clus scale="   27.597">  2  9  1 -1</clus>
<clus scale="   81.195">  5  6 -1 -1</clus>
<clus scale="   86.423">  1  5  2 -1</clus>
<clus scale="   96.804">  7  8 -1 -1</clus>
<clus scale="   27.597">  2  5  1 -1</clus>
</clustering>
</event>
<event>
 9    2  0.9254368E-005  0.1155614E+03  0.7546771E-02  0.1254602E+00
          2   -1    0    0  502    0 -0.00000000000E+00  0.00000000000E+00  0.26512070823E+03  0.26512070823E+03  0.00000000000E+00 0. -1.
         21   -1    0    0  501  502  0.00000000000E+00 -0.00000000000E+00 -0.11645709273E+03  0.11645709273E+03  0.00000000000E+00 0. -1.
         24    2    1    2    0    0  0.58736495109E+02 -0.28310875624E+02  0.14513076278E+02  0.10444843089E+03  0.80295478050E+02 0.  0.
         23    2    1    2    0    0 -0.83885499799E+02 -0.54249203608E+01 -0.12053113454E+02  0.12499099745E+03  0.91712949265E+02 0.  0.
        -11    1    3    3    0    0 -0.19955987452E+02 -0.10409022616E+02  0.33883478921E+00  0.22510086539E+02  0.00000000000E+00 0.  1.
         12    1    3    3    0    0  0.78692482560E+02 -0.17901853009E+02  0.14174241489E+02  0.81938344347E+02  0.00000000000E+00 0. -1.
        -11    1    4    4    0    0 -0.89655088212E+02  0.23627138229E+02  0.75928747630E+00  0.92719216027E+02  0.00000000000E+00 0. -1.
         11    1    4    4    0    0  0.57695884130E+01 -0.29052058590E+02 -0.12812400930E+02  0.32271781426E+02  0.00000000000E+00 0.  1.
          1    1    1    2  501    0  0.25149004690E+02  0.33735795985E+02  0.14620365268E+03  0.15213837262E+03  0.00000000000E+00 0. -1.
<scales pt_clust_5="13000.00000" pt_clust_6="13000.00000" pt_clust_7="13000.00000" pt_clust_8="13000.00000" pt_clust_9="42.07824"></scales>
<clustering>
<clus scale="   42.078">  2  9  1 -1</clus>
<clus scale="   80.295">  5  6 -1 -1</clus>
<clus scale="   91.713">  7  8 -1 -1</clus>
<clus scale="  106.726">  1  5  2 -1</clus>
<clus scale="   42.078">  2  5  1 -1</clus>
</clustering>
</event>
<event>
 9    2  0.9254368E-005  0.1644522E+03  0.7546771E-02  0.1196486E+00
          2   -1    0    0  502    0 -0.00000000000E+00  0.00000000000E+00  0.48917368481E+03  0.48917368481E+03  0.00000000000E+00 0. -1.
         21   -1    0    0  501  502  0.00000000000E+00 -0.00000000000E+00 -0.10321407137E+03  0.10321407137E+03  0.00000000000E+00 0.  1.
         23    2    1    2    0    0  0.30686421477E+02 -0.78224388324E+02  0.72126179786E+02  0.14358206671E+03  0.91394270495E+02 0.  0.
         24    2    1    2    0    0  0.12704012946E+03  0.40817227412E+02  0.18817949792E+03  0.24370602559E+03  0.78586658683E+02 0.  0.
        -11    1    4    4    0    0  0.74225480235E+02  0.39355560094E+02  0.54964742254E+02  0.10039623956E+03  0.00000000000E+00 0.  1.
         12    1    4    4    0    0  0.52814649224E+02  0.14616673180E+01  0.13321475567E+03  0.14330978603E+03  0.00000000000E+00 0. -1.
        -13    1    3    3    0    0  0.18942215671E+02  0.12200653090E+02  0.41801808000E+02  0.47487415411E+02  0.00000000000E+00 0.  1.
         13    1    3    3    0    0  0.11744205806E+02 -0.90425041413E+02  0.30324371786E+02  0.96094651302E+02  0.00000000000E+00 0. -1.
          1    1    1    2  501    0 -0.15772655094E+03  0.37407160912E+02  0.12565393574E+03  0.20509966388E+03  0.00000000000E+00 0. -1.
<scales pt_clust_5="13000.00000" pt_clust_6="13000.00000" pt_clust_7="13000.00000" pt_clust_8="13000.00000" pt_clust_9="144.45993"></scales>
<clustering>
<clus scale="   78.587">  5  6 -1 -1</clus>
<clus scale="   91.394">  7  8 -1 -1</clus>
<clus scale="  124.152">  1  7  2 -1</clus>
<clus scale="  144.460">  2  9  1 -1</clus>
<clus scale="  144.460">  2  5  1 -1</clus>
</clustering>
</event>
<event>
 9    2  0.9254368E-005  0.1254691E+03  0.7546771E-02  0.1243589E+00
          2   -1    0    0  502    0 -0.00000000000E+00  0.00000000000E+00  0.69400311418E+03  0.69400311418E+03  0.00000000000E+00 0. -1.
         21   -1    0    0  501  502  0.00000000000E+00 -0.00000000000E+00 -0.39631826569E+02  0.39631826569E+02  0.00000000000E+00 0. -1.
         24    2    1    2    0    0 -0.58900112040E+02 -0.67067617793E+02  0.49799519923E+03  0.51072143430E+03  0.69784500034E+02 0.  0.
         23    2    1    2    0    0  0.21575370349E+02  0.29325329669E+02  0.11001964506E+03  0.15243984830E+03  0.99035920176E+02 0.  0.
        -13    1    3    3    0    0 -0.17158283694E+02 -0.39617436157E+02  0.91572327161E+02  0.10123951328E+03  0.00000000000E+00 0.  1.
         14    1    3    3    0    0 -0.41741828346E+02 -0.27450181637E+02  0.40642287207E+03  0.40948192103E+03  0.00000000000E+00 0. -1.
        -13    1    4    4    0    0 -0.32189776766E+02  0.45191285336E+01  0.64504105810E+01  0.33139282545E+02  0.00000000000E+00 0. -1.
         13    1    4    4    0    0  0.53765147115E+02  0.24806201136E+02  0.10356923448E+03  0.11930056576E+03  0.00000000000E+00 0.  1.
          1    1    1    2  501    0  0.37324741691E+02  0.37742288124E+02  0.46356443321E+02  0.70473658146E+02  0.00000000000E+00 0. -1.
<scales pt_clust_5="13000.00000" pt_clust_6="13000.00000" pt_clust_7="13000.00000" pt_clust_8="13000.00000" pt_clust_9="53.08123"></scales>
<clustering>
<clus scale="   53.081">  2  9  1 -1</clus>
<clus scale="   69.785">  5  6 -1 -1</clus>
<clus scale="   99.036">  7  8 -1 -1</clus>
<clus scale="  103.943">  1  5  2 -1</clus>
<clus scale="   53.081">  2  5  1 -1</clus>
</clustering>
</event>
<event>
 9    2  0.9254368E-005  0.1252482E+03  0.7546771E-02  0.1241018E+00
         21   -1    0    0  501  502  0.00000000000E+00  0.00000000000E+00  0.34278894741E+02  0.34278894741E+02  0.00000000000E+00 0. -1.
          2   -1    0    0  502    0 -0.00000000000E+00 -0.00000000000E+00 -0.90594998141E+03  0.90594998141E+03  0.00000000000E+00 0. -1.
         24    2    1    2    0    0  0.70756727653E+01 -0.58779507171E+02 -0.55825370702E+03  0.56813329752E+03  0.87310633583E+02 0.  0.
         23    2    1    2    0    0  0.72914081366E+01  0.10566622549E+03 -0.21305388944E+03  0.26039236680E+03  0.10580032627E+03 0.  0.
        -13    1    3    3    0    0 -0.33952639979E+02 -0.31038152036E+02 -0.15024380944E+03  0.15712845356E+03  0.00000000000E+00 0.  1.
         14    1    3    3    0    0  0.41028312744E+02 -0.27741355135E+02 -0.40800989759E+03  0.41100484396E+03  0.00000000000E+00 0. -1.
        -11    1    4    4    0    0  0.35419037759E+02  0.55557138345E+02 -0.18512637392E+03  0.19650159841E+03  0.00000000000E+00 0.  1.
         11    1    4    4    0    0 -0.28127629622E+02  0.50109087141E+02 -0.27927515528E+02  0.63890768393E+02  0.00000000000E+00 0. -1.
          1    1    1    2  501    0 -0.14367080902E+02 -0.46886718315E+02 -0.10036349020E+03  0.11170321183E+03  0.00000000000E+00 0. -1.
<scales pt_clust_5="13000.00000" pt_clust_6="13000.00000" pt_clust_7="13000.00000" pt_clust_8="13000.00000" pt_clust_9="49.03853"></scales>
<clustering>
<clus scale="   49.039">  1  9  2 -1</clus>
<clus scale="   87.311">  5  6 -1 -1</clus>
<clus scale="  105.800">  7  8 -1 -1</clus>
<clus scale="  110.075">  2  5  1 -1</clus>
<clus scale="   49.039">  1  5  2 -1</clus>
</clustering>
</event>
<event>
 9    2  0.9254368E-005  0.1975092E+03  0.7546771E-02  0.1152805E+00
          2   -1    0    0  502    0 -0.00000000000E+00  0.00000000000E+00  0.77259324068E+03  0.77259324068E+03  0.00000000000E+00 0. -1.
         21   -1    0    0  501  502  0.00000000000E+00 -0.00000000000E+00 -0.97092695489E+02  0.97092695489E+02  0.00000000000E+00 0. -1.
         24    2    1    2    0    0  0.20713030467E+03  0.86744971500E+02  0.42945448947E+03  0.49150849197E+03  0.81986498639E+02 0.  0.
         23    2    1    2    0    0 -0.84097754846E+02 -0.55205416867E+02  0.51005135407E+02  0.14542712214E+03  0.91801163361E+02 0.  0.
        -13    1    3    3    0    0  0.37943880074E+02  0.10932389650E+02  0.25401340339E+02  0.46951925089E+02  0.00000000000E+00 0.  1.
         14    1    3    3    0    0  0.16918642459E+03  0.75812581850E+02  0.40405314913E+03  0.44455656688E+03  0.00000000000E+00 0. -1.
        -13    1    4    4    0    0 -0.25532654897E+02  0.23007428704E+02  0.29695199922E+02  0.45420954856E+02  0.00000000000E+00 0.  1.
         13    1    4    4    0    0 -0.58565099949E+02 -0.78212845571E+02  0.21309935485E+02  0.10000616728E+03  0.00000000000E+00 0. -1.
          1    1    1    2  501    0 -0.12303254982E+03 -0.31539554633E+02  0.19504092031E+03  0.23275032206E+03  0.00000000000E+00 0. -1.
<scales pt_clust_5="13000.00000" pt_clust_6="13000.00000" pt_clust_7="13000.00000" pt_clust_8="13000.00000" pt_clust_9="127.01090"></scales>
<clustering>
<clus scale="   81.986">  5  6 -1 -1</clus>
<clus scale="   91.801">  7  8 -1 -1</clus>
<clus scale="  127.011">  2  9  1 -1</clus>
<clus scale="  193.143">  1  5  2 -1</clus>
<clus scale="  127.011">  2  5  1 -1</clus>
</clustering>
</event>
<event>
 9    2  0.9254368E-005  0.1369519E+03  0.7546771E-02  0.1218327E+00
         21   -1    0    0  501  502  0.00000000000E+00  0.00000000000E+00  0.12082594172E+03  0.12082594172E+03  0.00000000000E+00 0.  1.
          2   -1    0    0  502    0 -0.00000000000E+00 -0.00000000000E+00 -0.24534883819E+03  0.24534883819E+03  0.00000000000E+00 0. -1.
         24    2    1    2    0    0  0.36476007693E+02  0.94914502463E+02 -0.11977318182E+03  0.17901955694E+03  0.85808652052E+02 0.  0.
         23    2    1    2    0    0 -0.69916803462E+02 -0.88492010200E+02  0.19570105016E+02  0.14531040421E+03  0.89514966828E+02 0.  0.
        -11    1    3    3    0    0  0.49640782090E+02  0.10183598335E+03 -0.86383914112E+02  0.14246738353E+03  0.00000000000E+00 0.  1.
         12    1    3    3    0    0 -0.13164774397E+02 -0.69214808902E+01 -0.33389267713E+02  0.36552173411E+02  0.00000000000E+00 0. -1.
        -11    1    4    4    0    0 -0.15477323850E+02 -0.47338049336E+02  0.50015061840E+02  0.70582893674E+02  0.00000000000E+00 0.  1.
         11    1    4    4    0    0 -0.54439479612E+02 -0.41153960864E+02 -0.30444956824E+02  0.74727510538E+02  0.00000000000E+00 0. -1.
          1    1    1    2  501    0  0.33440795769E+02 -0.64224922627E+01 -0.24319819657E+02  0.41844818755E+02  0.00000000000E+00 0. -1.
<scales pt_clust_5="13000.00000" pt_clust_6="13000.00000" pt_clust_7="13000.00000" pt_clust_8="13000.00000" pt_clust_9="34.05197"></scales>
<clustering>
<clus scale="   34.052">  1  9  2 -1</clus>
<clus scale="   85.809">  5  6 -1 -1</clus>
<clus scale="   89.515">  7  8 -1 -1</clus>
<clus scale="  134.559">  2  5  1 -1</clus>
<clus scale="   34.052">  1  5  2 -1</clus>
</clustering>
</event>
<event>
 9    2  0.9254368E-005  0.1027051E+03  0.7546771E-02  0.1280873E+00
         21   -1    0    0  501  502  0.00000000000E+00  0.00000000000E+00  0.10086616528E+03  0.10086616528E+03  0.00000000000E+00 0.  1.
         -3   -1    0    0    0  501 -0.00000000000E+00 -0.00000000000E+00 -0.17578004030E+03  0.17578004030E+03  0.00000000000E+00 0.  1.
         24    2    1    2    0    0 -0.11533772065E+02  0.41141436712E+02 -0.98392883506E+02  0.13310272411E+03  0.78800570615E+02 0.  0.
         23    2    1    2    0    0  0.40878210162E+02 -0.47318902055E+02  0.13158464449E+02  0.11182959247E+03  0.91774756922E+02 0.  0.
        -13    1    3    3    0    0 -0.33396316232E+02  0.99673266452E+01 -0.90849027989E+01  0.36016621124E+02  0.00000000000E+00 0.  1.
         14    1    3    3    0    0  0.21862544166E+02  0.31174110067E+02 -0.89307980707E+02  0.97086102991E+02  0.00000000000E+00 0. -1.
        -13    1    4    4    0    0  0.63472535247E+02 -0.52968467205E+02 -0.42081051129E+01  0.82777589946E+02  0.00000000000E+00 0.  1.
         13    1    4    4    0    0 -0.22594325084E+02  0.56495651504E+01  0.17366569562E+02  0.29052002526E+02  0.00000000000E+00 0. -1.
         -4    1    1    2    0  502 -0.29344438097E+02  0.61774653427E+01  0.10320544038E+02  0.31713888985E+02  0.00000000000E+00 0.  1.
<scales pt_clust_5="13000.00000" pt_clust_6="13000.00000" pt_clust_7="13000.00000" pt_clust_8="13000.00000" pt_clust_9="29.98762"></scales>
<clustering>
<clus scale="   29.988">  1  9  2 -1</clus>
<clus scale="   78.801">  5  6 -1 -1</clus>
<clus scale="   91.298">  2  5  1 -1</clus>
<clus scale="   91.775">  7  8 -1 -1</clus>
<clus scale="   29.988">  1  5  2 -1</clus>
</clustering>
</event>
<event>
 9    2  0.9254368E-005  0.9239823E+02  0.7546771E-02  0.1303491E+00
         21   -1    0    0  501  502  0.00000000000E+00  0.00000000000E+00  0.23443567319E+02  0.23443567319E+02  0.00000000000E+00 0.  1.
          2   -1    0    0  502    0 -0.00000000000E+00 -0.00000000000E+00 -0.49331262080E+03  0.49331262080E+03  0.00000000000E+00 0. -1.
         24    2    1    2    0    0 -0.19602254125E+02 -0.14479187111E+02 -0.30560215290E+03  0.31684532942E+03  0.80027443373E+02 0.  0.
         23    2    1    2    0    0  0.18250878343E+01  0.29988094602E+01 -0.11553845166E+03  0.14678564391E+03  0.90468600306E+02 0.  0.
        -13    1    3    3    0    0 -0.17957931570E+02 -0.44566909253E+02 -0.23844339373E+03  0.24323640500E+03  0.00000000000E+00 0.  1.
         14    1    3    3    0    0 -0.16443225553E+01  0.30087722143E+02 -0.67158759175E+02  0.73608924420E+02  0.00000000000E+00 0. -1.
        -11    1    4    4    0    0  0.36717131510E+02  0.49574881535E+01 -0.14349615552E+02  0.39732051314E+02  0.00000000000E+00 0.  1.
         11    1    4    4    0    0 -0.34892043676E+02 -0.19586786933E+01 -0.10118883611E+03  0.10705359260E+03  0.00000000000E+00 0. -1.
          1    1    1    2  501    0  0.17777166291E+02  0.11480377651E+02 -0.48728448920E+02  0.53125214790E+02  0.00000000000E+00 0. -1.
<scales pt_clust_5="13000.00000" pt_clust_6="13000.00000" pt_clust_7="13000.00000" pt_clust_8="13000.00000" pt_clust_9="21.16193"></scales>
<clustering>
<clus scale="   21.162">  1  9  2 -1</clus>
<clus scale="   80.027">  5  6 -1 -1</clus>
<clus scale="   82.203">  2  5  1 -1</clus>
<clus scale="   90.469">  7  8 -1 -1</clus>
<clus scale="   21.162">  1  5  2 -1</clus>
</clustering>
</event>
<event>
 9    2  0.9254368E-005  0.9179361E+02  0.7546771E-02  0.1305012E+00
         21   -1    0    0  501  502  0.00000000000E+00  0.00000000000E+00  0.82968516445E+02  0.82968516445E+02  0.00000000000E+00 0. -1.
          2   -1    0    0  502    0 -0.00000000000E+00 -0.00000000000E+00 -0.32873661525E+03  0.32873661525E+03  0.00000000000E+00 0. -1.
         23    2    1    2    0    0 -0.18415020869E+02  0.69975646724E+00 -0.22901540550E+03  0.24710921677E+03  0.90968711111E+02 0.  0.
         24    2    1    2    0    0 -0.20690010103E+02 -0.32975994129E+02 -0.51364688647E+02  0.10320414686E+03  0.80605657254E+02 0.  0.
        -11    1    4    4    0    0  0.31228997280E+02 -0.11707026829E+02 -0.17389553058E+02  0.37612515255E+02  0.00000000000E+00 0.  1.
         12    1    4    4    0    0 -0.51919007382E+02 -0.21268967301E+02 -0.33975135589E+02  0.65591631600E+02  0.00000000000E+00 0. -1.
        -13    1    3    3    0    0 -0.19726554674E+02  0.44058941711E+02 -0.10099077578E+03  0.11193508877E+03  0.00000000000E+00 0.  1.
         13    1    3    3    0    0  0.13115338049E+01 -0.43359185243E+02 -0.12802462972E+03  0.13517412800E+03  0.00000000000E+00 0. -1.
          1    1    1    2  501    0  0.39105030972E+02  0.32276237662E+02  0.34611995347E+02  0.61391768070E+02  0.00000000000E+00 0. -1.
<scales pt_clust_5="13000.00000" pt_clust_6="13000.00000" pt_clust_7="13000.00000" pt_clust_8="13000.00000" pt_clust_9="50.70462"></scales>
<clustering>
<clus scale="   50.705">  1  9  2 -1</clus>
<clus scale="   80.606">  5  6 -1 -1</clus>
<clus scale="   81.535">  1  5  2 -1</clus>
<clus scale="   90.969">  7  8 -1 -1</clus>
<clus scale="   50.705">  1  5  2 -1</clus>
</clustering>
</event>
<event>
 9    2  0.9254368E-005  0.1102915E+03  0.7546771E-02  0.1267970E+00
          2   -1    0    0  502    0 -0.00000000000E+00  0.00000000000E+00  0.91002450131E+03  0.91002450131E+03  0.00000000000E+00 0. -1.
         21   -1    0    0  501  502  0.00000000000E+00 -0.00000000000E+00 -0.51777273080E+02  0.51777273080E+02  0.00000000000E+00 0. -1.
         24    2    1    2    0    0  0.22624407220E+02 -0.16406705782E+02  0.81900703460E+03  0.82646715867E+03  0.10721192952E+03 0.  0.
         23    2    1    2    0    0 -0.20378464290E+02 -0.14083477478E+02  0.44786102408E+02  0.10426288196E+03  0.90836817653E+02 0.  0.
        -11    1    3    3    0    0  0.40939102282E+02  0.34993652787E+02  0.32189346526E+03  0.32636784279E+03  0.00000000000E+00 0.  1.
         12    1    3    3    0    0 -0.18314695062E+02 -0.51400358569E+02  0.49711356935E+03  0.50009931588E+03  0.00000000000E+00 0. -1.
        -13    1    4    4    0    0 -0.51332770445E+02 -0.89114074555E+01  0.32475455756E+01  0.52201657604E+02  0.00000000000E+00 0.  1.
         13    1    4    4    0    0  0.30954306155E+02 -0.51720700221E+01  0.41538556832E+02  0.52061224357E+02  0.00000000000E+00 0. -1.
          1    1    1    2  501    0 -0.22459429296E+01  0.30490183260E+02 -0.55459087776E+01  0.31071733763E+02  0.00000000000E+00 0. -1.
<scales pt_clust_5="13000.00000" pt_clust_6="13000.00000" pt_clust_7="13000.00000" pt_clust_8="13000.00000" pt_clust_9="30.57279"></scales>
<clustering>
<clus scale="   30.573">  2  9  1 -1</clus>
<clus scale="   90.837">  7  8 -1 -1</clus>
<clus scale="   94.452">  2  7  1 -1</clus>
<clus scale="  107.212">  5  6 -1 -1</clus>
<clus scale="   30.573">  2  5  1 -1</clus>
</clustering>
</event>
<event>
 9    2  0.9254368E-005  0.2130106E+03  0.7546771E-02  0.1139417E+00
          2   -1    0    0  502    0 -0.00000000000E+00  0.00000000000E+00  0.77780903434E+03  0.77780903434E+03  0.00000000000E+00 0. -1.
         21   -1    0    0  501  502  0.00000000000E+00 -0.00000000000E+00 -0.15151905446E+03  0.15151905446E+03  0.00000000000E+00 0. -1.
         23    2    1    2    0    0  0.10542934234E+02 -0.19144022812E+03  0.31003154432E+03  0.37553757375E+03  0.90268468550E+02 0.  0.
         24    2    1    2    0    0 -0.20168798145E+03  0.82465848788E+02  0.19104170089E+03  0.30062836333E+03  0.80011394701E+02 0.  0.
        -11    1    4    4    0    0 -0.28951175162E+02  0.45540693706E+02  0.30797821980E+02  0.62133977542E+02  0.00000000000E+00 0.  1.
         12    1    4    4    0    0 -0.17273680628E+03  0.36925155082E+02  0.16024387891E+03  0.23849438578E+03  0.00000000000E+00 0. -1.
        -13    1    3    3    0    0  0.43281432678E+02 -0.68136500658E+02  0.15503160205E+03  0.17478747887E+03  0.00000000000E+00 0.  1.
         13    1    3    3    0    0 -0.32738498444E+02 -0.12330372747E+03  0.15499994227E+03  0.20075009487E+03  0.00000000000E+00 0. -1.
          1    1    1    2  501    0  0.19114504721E+03  0.10897437934E+03  0.12521673468E+03  0.25316215173E+03  0.00000000000E+00 0. -1.
<scales pt_clust_5="13000.00000" pt_clust_6="13000.00000" pt_clust_7="13000.00000" pt_clust_8="13000.00000" pt_clust_9="197.41251"></scales>
<clustering>
<clus scale="   80.011">  5  6 -1 -1</clus>
<clus scale="   90.268">  7  8 -1 -1</clus>
<clus scale="  211.917">  1  7  2 -1</clus>
<clus scale="  197.413">  2  9  1 -1</clus>
<clus scale="  197.413">  2  5  1 -1</clus>
</clustering>
</event>
<event>
 9    2  0.9254368E-005  0.1100880E+03  0.7546771E-02  0.1266794E+00
          4   -1    0    0  502    0 -0.00000000000E+00  0.00000000000E+00  0.75445123191E+03  0.75445123191E+03  0.00000000000E+00 0. -1.
         21   -1    0    0  501  502  0.00000000000E+00 -0.00000000000E+00 -0.66545282272E+02  0.66545282272E+02  0.00000000000E+00 0.  1.
         23    2    1    2    0    0 -0.40785354157E+02  0.29838453310E+02  0.57684166848E+03  0.58682284763E+03  0.95189104426E+02 0.  0.
         24    2    1    2    0    0  0.10824462089E+03 -0.11683893281E+02  0.60748204071E+02  0.14808041285E+03  0.79900269459E+02 0.  0.
        -11    1    4    4    0    0  0.10080782072E+03 -0.22304398430E+02  0.19798235916E+02  0.10512693781E+03  0.00000000000E+00 0.  1.
         12    1    4    4    0    0  0.74368001659E+01  0.10620505149E+02  0.40949968155E+02  0.42953475042E+02  0.00000000000E+00 0. -1.
        -13    1    3    3    0    0  0.28840450357E+02  0.24213597961E+02  0.18296215470E+03  0.18679726967E+03  0.00000000000E+00 0.  1.
         13    1    3    3    0    0 -0.69625804513E+02  0.56248553491E+01  0.39387951378E+03  0.40002557797E+03  0.00000000000E+00 0. -1.
          3    1    1    2  501    0 -0.67459266731E+02 -0.18154560029E+02  0.50316077082E+02  0.86093253689E+02  0.00000000000E+00 0. -1.
<scales pt_clust_5="13000.00000" pt_clust_6="13000.00000" pt_clust_7="13000.00000" pt_clust_8="13000.00000" pt_clust_9="69.85944"></scales>
<clustering>
<clus scale="   69.859">  2  9  1 -1</clus>
<clus scale="   79.900">  5  6 -1 -1</clus>
<clus scale="   95.189">  7  8 -1 -1</clus>
<clus scale="   97.172">  2  5  1 -1</clus>
<clus scale="   69.859">  2  5  1 -1</clus>
</clustering>
</event>
<event>
 9    2  0.9254368E-005  0.9532073E+02  0.7546771E-02  0.1294261E+00
         21   -1    0    0  501  502  0.00000000000E+00  0.00000000000E+00  0.36764921937E+03  0.36764921937E+03  0.00000000000E+00 0. -1.
          2   -1    0    0  502    0 -0.00000000000E+00 -0.00000000000E+00 -0.59393900493E+02  0.59393900493E+02  0.00000000000E+00 0. -1.
         23    2    1    2    0    0  0.70123412953E+01  0.37723641925E+02  0.12595282265E+02  0.99667044531E+02  0.91118782585E+02 0.  0.
         24    2    1    2    0    0 -0.13964593906E+02  0.14757468644E+02  0.20157495326E+03  0.21941958552E+03  0.84259717332E+02 0.  0.
        -11    1    4    4    0    0  0.65657272859E+01 -0.32640195861E+02  0.58563879511E+02  0.67366305703E+02  0.00000000000E+00 0.  1.
         12    1    4    4    0    0 -0.20530321192E+02  0.47397664506E+02  0.14301107374E+03  0.15205327981E+03  0.00000000000E+00 0. -1.
        -11    1    3    3    0    0  0.34530916977E+02  0.48826726537E+01  0.36599897707E+02  0.50554695446E+02  0.00000000000E+00 0.  1.
         11    1    3    3    0    0 -0.27518575682E+02  0.32840969271E+02 -0.24004615441E+02  0.49112349085E+02  0.00000000000E+00 0. -1.
          1    1    1    2  501    0  0.69522526109E+01 -0.52481110569E+02  0.94085083352E+02  0.10795648981E+03  0.00000000000E+00 0. -1.
<scales pt_clust_5="13000.00000" pt_clust_6="13000.00000" pt_clust_7="13000.00000" pt_clust_8="13000.00000" pt_clust_9="52.93960"></scales>
<clustering>
<clus scale="   52.940">  1  9  2 -1</clus>
<clus scale="   84.260">  5  6 -1 -1</clus>
<clus scale="   88.787">  1  5  2 -1</clus>
<clus scale="   91.119">  7  8 -1 -1</clus>
<clus scale="   52.940">  1  5  2 -1</clus>
</clustering>
</event>
<event>
 9    2  0.9254368E-005  0.1077087E+03  0.7546771E-02  0.1269411E+00
         21   -1    0    0  501  502  0.00000000000E+00  0.00000000000E+00  0.82828598044E+03  0.82828598044E+03  0.00000000000E+00 0. -1.
         -1   -1    0    0    0  501 -0.00000000000E+00 -0.00000000000E+00 -0.50678530615E+02  0.50678530615E+02  0.00000000000E+00 0.  1.
         23    2    1    2    0    0  0.54729495876E+02 -0.27306535625E+02  0.35037523174E+02  0.11532794684E+03  0.91279475703E+02 0.  0.
         24    2    1    2    0    0 -0.54871763714E+02 -0.43422030759E+02  0.40904135308E+03  0.42269102644E+03  0.80352299873E+02 0.  0.
        -13    1    4    4    0    0 -0.24737158995E+02 -0.64797415769E+02  0.25294187081E+03  0.26227890143E+03  0.00000000000E+00 0.  1.
         14    1    4    4    0    0 -0.30134604718E+02  0.21375385009E+02  0.15609948226E+03  0.16041212501E+03  0.00000000000E+00 0. -1.
        -13    1    3    3    0    0  0.42708672893E+02  0.24531147813E+02 -0.38755157992E+01  0.49404732325E+02  0.00000000000E+00 0.  1.
         13    1    3    3    0    0  0.12020822983E+02 -0.51837683438E+02  0.38913038973E+02  0.65923214512E+02  0.00000000000E+00 0. -1.
         -2    1    1    2    0  502  0.14226783728E+00  0.70728566384E+02  0.33352857357E+03  0.34094553778E+03  0.00000000000E+00 0.  1.
<scales pt_clust_5="13000.00000" pt_clust_6="13000.00000" pt_clust_7="13000.00000" pt_clust_8="13000.00000" pt_clust_9="70.72871"></scales>
<clustering>
<clus scale="   70.729">  1  9  2 -1</clus>
<clus scale="   80.352">  5  6 -1 -1</clus>
<clus scale="   91.279">  7  8 -1 -1</clus>
<clus scale="   98.619">  1  5  2 -1</clus>
<clus scale="   70.729">  1  5  2 -1</clus>
</clustering>
</event>
<event>
 9    2  0.9254368E-005  0.1231782E+03  0.7546771E-02  0.1245532E+00
         -3   -1    0    0    0  501 -0.00000000000E+00  0.00000000000E+00  0.79690838682E+02  0.79690838682E+02  0.00000000000E+00 0.  1.
         21   -1    0    0  501  502  0.00000000000E+00 -0.00000000000E+00 -0.22343882353E+03  0.22343882353E+03  0.00000000000E+00 0. -1.
         24    2    1    2    0    0 -0.46395670218E+02 -0.18855019610E+02 -0.23469133551E+02  0.12362158243E+03  0.11055960127E+03 0.  0.
         23    2    1    2    0    0  0.48076800818E+02  0.40016850517E+02 -0.88344090420E+02  0.14116126454E+03  0.90604068293E+02 0.  0.
        -11    1    3    3    0    0 -0.23781406718E+02 -0.62467498885E+02  0.46742461228E+01  0.67004419998E+02  0.00000000000E+00 0.  1.
         12    1    3    3    0    0 -0.22614263500E+02  0.43612479274E+02 -0.28143379674E+02  0.56617162430E+02  0.00000000000E+00 0. -1.
        -13    1    4    4    0    0  0.59182875066E+02  0.23116267397E+01 -0.20356078289E+02  0.62628477888E+02  0.00000000000E+00 0.  1.
         13    1    4    4    0    0 -0.11106074248E+02  0.37705223777E+02 -0.67988012132E+02  0.78532786649E+02  0.00000000000E+00 0. -1.
         -4    1    1    2    0  502 -0.16811305998E+01 -0.21161830906E+02 -0.31934760876E+02  0.38346815248E+02  0.00000000000E+00 0.  1.
<scales pt_clust_5="13000.00000" pt_clust_6="13000.00000" pt_clust_7="13000.00000" pt_clust_8="13000.00000" pt_clust_9="21.22850"></scales>
<clustering>
<clus scale="   21.229">  2  9  1 -1</clus>
<clus scale="   90.604">  7  8 -1 -1</clus>
<clus scale="  105.634">  2  7  1 -1</clus>
<clus scale="  110.560">  5  6 -1 -1</clus>
<clus scale="   21.229">  2  5  1 -1</clus>
</clustering>
</event>
<event>
 9    2  0.9254368E-005  0.9886870E+02  0.7546771E-02  0.1286227E+00
         21   -1    0    0  501  502  0.00000000000E+00  0.00000000000E+00  0.41983608182E+02  0.41983608182E+02  0.00000000000E+00 0. -1.
          2   -1    0    0  502    0 -0.00000000000E+00 -0.00000000000E+00 -0.74660509866E+03  0.74660509866E+03  0.00000000000E+00 0. -1.
         24    2    1    2    0    0  0.21944193565E+02 -0.38685526034E+02 -0.37406574522E+03  0.38528047795E+03  0.80856337972E+02 0.  0.
         23    2    1    2    0    0  0.49021023824E+02  0.56388146387E+02 -0.30448866584E+03  0.32566199604E+03  0.88089183293E+02 0.  0.
        -13    1    3    3    0    0  0.47726871842E+02 -0.43745275771E+02 -0.23503244828E+03  0.24378629000E+03  0.00000000000E+00 0.  1.
         14    1    3    3    0    0 -0.25782678277E+02  0.50597497370E+01 -0.13903329694E+03  0.14149418795E+03  0.00000000000E+00 0. -1.
        -13    1    4    4    0    0  0.46864258691E+02 -0.10423611893E+02 -0.14461788635E+03  0.15237861884E+03  0.00000000000E+00 0.  1.
         13    1    4    4    0    0  0.21567651326E+01  0.66811758280E+02 -0.15987077949E+03  0.17328337720E+03  0.00000000000E+00 0. -1.
          1    1    1    2  501    0 -0.70965217389E+02 -0.17702620353E+02 -0.26067079431E+02  0.77646232854E+02  0.00000000000E+00 0. -1.
<scales pt_clust_5="13000.00000" pt_clust_6="13000.00000" pt_clust_7="13000.00000" pt_clust_8="13000.00000" pt_clust_9="73.13990"></scales>
<clustering>
<clus scale="   73.140">  1  9  2 -1</clus>
<clus scale="   80.856">  5  6 -1 -1</clus>
<clus scale="   88.089">  7  8 -1 -1</clus>
<clus scale="   92.483">  2  5  1 -1</clus>
<clus scale="   73.140">  1  5  2 -1</clus>
</clustering>
</event>
<event>
 9    2  0.9254368E-005  0.9244512E+02  0.7546771E-02  0.1302735E+00
         -1   -1    0    0    0  501 -0.00000000000E+00  0.00000000000E+00  0.22959473233E+03  0.22959473233E+03  0.00000000000E+00 0.  1.
         21   -1    0    0  501  502  0.00000000000E+00 -0.00000000000E+00 -0.10909552195E+03  0.10909552195E+03  0.00000000000E+00 0.  1.
         24    2    1    2    0    0 -0.11745060116E+02  0.22998924827E+02  0.15553160241E+03  0.17732746633E+03  0.81166828115E+02 0.  0.
         23    2    1    2    0    0 -0.18711575849E+02  0.38857307683E+00  0.19620477974E+02  0.94568192880E+02  0.90597493833E+02 0.  0.
        -13    1    3    3    0    0 -0.42734841353E+02  0.30609325488E+02  0.10746920246E+03  0.11963622758E+03  0.00000000000E+00 0.  1.
         14    1    3    3    0    0  0.30989781237E+02 -0.76104006616E+01  0.48062399942E+02  0.57691238741E+02  0.00000000000E+00 0. -1.
        -13    1    4    4    0    0  0.27860792943E+02 -0.26271990547E+02  0.13279783997E+02  0.40531394421E+02  0.00000000000E+00 0. -1.
         13    1    4    4    0    0 -0.46572368792E+02  0.26660563624E+02  0.63406939763E+01  0.54036798459E+02  0.00000000000E+00 0.  1.
         -2    1    1    2    0  502  0.30456635965E+02 -0.23387497904E+02 -0.54652869994E+02  0.66794595074E+02  0.00000000000E+00 0.  1.
<scales pt_clust_5="13000.00000" pt_clust_6="13000.00000" pt_clust_7="13000.00000" pt_clust_8="13000.00000" pt_clust_9="38.40028"></scales>
<clustering>
<clus scale="   38.400">  2  9  1 -1</clus>
<clus scale="   81.167">  5  6 -1 -1</clus>
<clus scale="   83.224">  1  5  2 -1</clus>
<clus scale="   90.597">  7  8 -1 -1</clus>
<clus scale="   38.400">  2  5  1 -1</clus>
</clustering>
</event>
<event>
 9    2  0.9254368E-005  0.1289338E+03  0.7546771E-02  0.1231168E+00
          4   -1    0    0  502    0 -0.00000000000E+00  0.00000000000E+00  0.39310865463E+03  0.39310865463E+03  0.00000000000E+00 0. -1.
         21   -1    0    0  501  502  0.00000000000E+00 -0.00000000000E+00 -0.28191739500E+03  0.28191739500E+03  0.00000000000E+00 0. -1.
         23    2    1    2    0    0 -0.29942546606E+02 -0.83803129724E+02  0.28468510828E+03  0.31194405127E+03  0.91345276829E+02 0.  0.
         24    2    1    2    0    0  0.58465858193E+02  0.81805565797E+02  0.48444572299E+02  0.13930927380E+03  0.83365400564E+02 0.  0.
        -13    1    4    4    0    0 -0.38585933734E+01  0.55646584716E+02 -0.62568132364E+00  0.55783712771E+02  0.00000000000E+00 0.  1.
         14    1    4    4    0    0  0.62324451566E+02  0.26158981080E+02  0.49070253623E+02  0.83525561026E+02  0.00000000000E+00 0. -1.
        -13    1    3    3    0    0 -0.56052007517E+02 -0.84463012464E+02  0.22312444866E+03  0.24507212736E+03  0.00000000000E+00 0. -1.
         13    1    3    3    0    0  0.26109460911E+02  0.65988273952E+00  0.61560659625E+02  0.66871923912E+02  0.00000000000E+00 0.  1.
          3    1    1    2  501    0 -0.28523311587E+02  0.19975639275E+01 -0.22193842095E+03  0.22377272456E+03  0.00000000000E+00 0. -1.
<scales pt_clust_5="13000.00000" pt_clust_6="13000.00000" pt_clust_7="13000.00000" pt_clust_8="13000.00000" pt_clust_9="28.59317"></scales>
<clustering>
<clus scale="   28.593">  2  9  1 -1</clus>
<clus scale="   83.365">  5  6 -1 -1</clus>
<clus scale="   91.345">  7  8 -1 -1</clus>
<clus scale="  123.409">  2  5  1 -1</clus>
<clus scale="   28.593">  2  5  1 -1</clus>
</clustering>
</event>
<event>
 9    2  0.9254368E-005  0.9695241E+02  0.7546771E-02  0.1293510E+00
         21   -1    0    0  501  502  0.00000000000E+00  0.00000000000E+00  0.18448315656E+03  0.18448315656E+03  0.00000000000E+00 0. -1.
         -3   -1    0    0    0  501 -0.00000000000E+00 -0.00000000000E+00 -0.12679222103E+03  0.12679222103E+03  0.00000000000E+00 0.  1.
         23    2    1    2    0    0 -0.40366689108E+02 -0.71409560307E+01 -0.72965666524E+02  0.12401510488E+03  0.91516637314E+02 0.  0.
         24    2    1    2    0    0 -0.97327066711E+01  0.18495151749E+02  0.89601486850E+02  0.12150018069E+03  0.79354087766E+02 0.  0.
        -11    1    4    4    0    0  0.23137456080E+02 -0.20495137919E+02  0.37458553840E+02  0.48564758910E+02  0.00000000000E+00 0.  1.
         12    1    4    4    0    0 -0.32870162752E+02  0.38990289668E+02  0.52142933010E+02  0.72935421783E+02  0.00000000000E+00 0. -1.
        -11    1    3    3    0    0 -0.35270770123E+02 -0.41858703081E+02 -0.69914282898E+02  0.88792934414E+02  0.00000000000E+00 0.  1.
         11    1    3    3    0    0 -0.50959189847E+01  0.34717747050E+02 -0.30513836259E+01  0.35222170469E+02  0.00000000000E+00 0. -1.
         -4    1    1    2    0  502  0.50099395779E+02 -0.11354195718E+02  0.41055115208E+02  0.65760092020E+02  0.00000000000E+00 0.  1.
<scales pt_clust_5="13000.00000" pt_clust_6="13000.00000" pt_clust_7="13000.00000" pt_clust_8="13000.00000" pt_clust_9="51.36991"></scales>
<clustering>
<clus scale="   51.370">  1  9  2 -1</clus>
<clus scale="   79.354">  5  6 -1 -1</clus>
<clus scale="   85.566">  1  5  2 -1</clus>
<clus scale="   91.517">  7  8 -1 -1</clus>
<clus scale="   51.370">  1  5  2 -1</clus>
</clustering>
</event>
<event>
 9    2  0.9254368E-005  0.1479934E+03  0.7546771E-02  0.1217492E+00
          2   -1    0    0  502    0 -0.00000000000E+00  0.00000000000E+00  0.42849667028E+03  0.42849667028E+03  0.00000000000E+00 0. -1.
         21   -1    0    0  501  502  0.00000000000E+00 -0.00000000000E+00 -0.12668679080E+03  0.12668679080E+03  0.00000000000E+00 0. -1.
         23    2    1    2    0    0 -0.28394472547E+02 -0.48899436973E+02 -0.38791752407E+02  0.11524879712E+03  0.92628743782E+02 0.  0.
         24    2    1    2    0    0  0.14010752338E+03  0.36010570173E+02  0.19903674280E+03  0.25914045377E+03  0.81309719721E+02 0.  0.
        -13    1    4    4    0    0  0.25747719385E+02  0.43142965140E+02  0.75060832728E+02  0.90323801428E+02  0.00000000000E+00 0.  1.
         14    1    4    4    0    0  0.11435980400E+03 -0.71323949671E+01  0.12397591007E+03  0.16881665234E+03  0.00000000000E+00 0. -1.
        -11    1    3    3    0    0  0.49707480798E+01 -0.54695474899E+02  0.10032420822E+02  0.55829676503E+02  0.00000000000E+00 0.  1.
         11    1    3    3    0    0 -0.33365220626E+02  0.57960379256E+01 -0.48824173229E+02  0.59419120615E+02  0.00000000000E+00 0. -1.
          1    1    1    2  501    0 -0.11171305084E+03  0.12888866800E+02  0.14156488910E+03  0.18079421020E+03  0.00000000000E+00 0. -1.
<scales pt_clust_5="13000.00000" pt_clust_6="13000.00000" pt_clust_7="13000.00000" pt_clust_8="13000.00000" pt_clust_9="123.65593"></scales>
<clustering>
<clus scale="   81.310">  5  6 -1 -1</clus>
<clus scale="   92.629">  7  8 -1 -1</clus>
<clus scale="  108.524">  1  7  2 -1</clus>
<clus scale="  123.656">  2  9  1 -1</clus>
<clus scale="  123.656">  2  5  1 -1</clus>
</clustering>
</event>
<event>
 9    2  0.9254368E-005  0.2250349E+03  0.7546771E-02  0.1130206E+00
         21   -1    0    0  501  502  0.00000000000E+00  0.00000000000E+00  0.11527505270E+04  0.11527505270E+04  0.00000000000E+00 0.  1.
          2   -1    0    0  502    0 -0.00000000000E+00 -0.00000000000E+00 -0.12621360358E+03  0.12621360358E+03  0.00000000000E+00 0. -1.
         23    2    1    2    0    0 -0.10365812181E+03  0.18061875660E+03  0.56188242752E+01  0.22664117417E+03  0.89255303424E+02 0.  0.
         24    2    1    2    0    0  0.12031065781E+03 -0.15143526833E+03  0.95305398003E+03  0.97659633226E+03  0.89561221754E+02 0.  0.
        -13    1    4    4    0    0  0.68698251667E+02 -0.13840613748E+03  0.79326458745E+03  0.80817350512E+03  0.00000000000E+00 0.  1.
         14    1    4    4    0    0  0.51612406146E+02 -0.13029130852E+02  0.15978939259E+03  0.16842282714E+03  0.00000000000E+00 0. -1.
        -11    1    3    3    0    0 -0.80264829219E+02  0.18553419152E+03  0.97308517702E+01  0.20238593950E+03  0.00000000000E+00 0. -1.
         11    1    3    3    0    0 -0.23393292587E+02 -0.49154349182E+01 -0.41120274949E+01  0.24255234665E+02  0.00000000000E+00 0.  1.
          1    1    1    2  501    0 -0.16652536007E+02 -0.29183488271E+02  0.67864119135E+02  0.75726624175E+02  0.00000000000E+00 0. -1.
<scales pt_clust_5="13000.00000" pt_clust_6="13000.00000" pt_clust_7="13000.00000" pt_clust_8="13000.00000" pt_clust_9="33.60034"></scales>
<clustering>
<clus scale="   33.600">  1  9  2 -1</clus>
<clus scale="   89.255">  7  8 -1 -1</clus>
<clus scale="   89.561">  5  6 -1 -1</clus>
<clus scale="  224.913">  2  7  1 -1</clus>
<clus scale="   33.600">  1  5  2 -1</clus>
</clustering>
</event>
<event>
 9    2  0.9254368E-005  0.1016146E+03  0.7546771E-02  0.1280623E+00
         21   -1    0    0  501  502  0.00000000000E+00  0.00000000000E+00  0.86056135875E+02  0.86056135875E+02  0.00000000000E+00 0. -1.
          2   -1    0    0  502    0 -0.00000000000E+00 -0.00000000000E+00 -0.59761814059E+03  0.59761814059E+03  0.00000000000E+00 0. -1.
         23    2    1    2    0    0  0.49651585626E+02  0.60499146407E+01 -0.41647694755E+03  0.42934082941E+03  0.91534794093E+02 0.  0.
         24    2    1    2    0    0 -0.14762355587E+02  0.82007423928E+02 -0.10981407841E+03  0.15847784046E+03  0.78185352716E+02 0.  0.
        -11    1    4    4    0    0 -0.46226057805E+02  0.37926291639E+02 -0.63448872759E+02  0.87183779868E+02  0.00000000000E+00 0.  1.
         12    1    4    4    0    0  0.31463702218E+02  0.44081132289E+02 -0.46365205647E+02  0.71294060593E+02  0.00000000000E+00 0. -1.
        -13    1    3    3    0    0 -0.23947491336E+02  0.14646210360E+02 -0.79422240496E+02  0.84237082716E+02  0.00000000000E+00 0.  1.
         13    1    3    3    0    0  0.73599076962E+02 -0.85962957198E+01 -0.33705470706E+03  0.34510374669E+03  0.00000000000E+00 0. -1.
          1    1    1    2  501    0 -0.34889230040E+02 -0.88057338569E+02  0.14729021248E+02  0.95855606594E+02  0.00000000000E+00 0. -1.
<scales pt_clust_5="13000.00000" pt_clust_6="13000.00000" pt_clust_7="13000.00000" pt_clust_8="13000.00000" pt_clust_9="94.71723"></scales>
<clustering>
<clus scale="   78.185">  5  6 -1 -1</clus>
<clus scale="   91.535">  7  8 -1 -1</clus>
<clus scale="   94.717">  1  9  2 -1</clus>
<clus scale="   94.717">  1  5  2 -1</clus>
<clus scale="   94.717">  1  5  2 -1</clus>
</clustering>
</event>
<event>
 9    2  0.9254368E-005  0.1331223E+03  0.7546771E-02  0.1224923E+00
         -3   -1    0    0    0  501 -0.00000000000E+00  0.00000000000E+00  0.71882411985E+02  0.71882411985E+02  0.00000000000E+00 0.  1.
         21   -1    0    0  501  502  0.00000000000E+00 -0.00000000000E+00 -0.46189285120E+03  0.46189285120E+03  0.00000000000E+00 0.  1.
         23    2    1    2    0    0  0.10118804711E+03 -0.24231345879E+02 -0.13310709191E+03  0.19135794258E+03  0.89856470395E+02 0.  0.
         24    2    1    2    0    0 -0.88095913871E+02  0.67474186751E+01 -0.28354773065E+03  0.30796423909E+03  0.81463116222E+02 0.  0.
        -13    1    4    4    0    0 -0.56249306264E+02 -0.65256261892E+00 -0.60806506707E+02  0.82836233322E+02  0.00000000000E+00 0.  1.
         14    1    4    4    0    0 -0.31846607607E+02  0.73999812941E+01 -0.22274122394E+03  0.22512800577E+03  0.00000000000E+00 0. -1.
        -11    1    3    3    0    0  0.83619514119E+02  0.20894267633E+02 -0.65777120736E+02  0.10842242929E+03  0.00000000000E+00 0. -1.
         11    1    3    3    0    0  0.17568532988E+02 -0.45125613513E+02 -0.67329971170E+02  0.82935513286E+02  0.00000000000E+00 0.  1.
         -4    1    1    2    0  502 -0.13092133236E+02  0.17483927204E+02  0.26644383332E+02  0.34453081521E+02  0.00000000000E+00 0.  1.
<scales pt_clust_5="13000.00000" pt_clust_6="13000.00000" pt_clust_7="13000.00000" pt_clust_8="13000.00000" pt_clust_9="21.84244"></scales>
<clustering>
<clus scale="   21.842">  2  9  1 -1</clus>
<clus scale="   81.463">  5  6 -1 -1</clus>
<clus scale="   89.856">  7  8 -1 -1</clus>
<clus scale="  127.607">  2  5  1 -1</clus>
<clus scale="   21.842">  2  5  1 -1</clus>
</clustering>
</event>
<event>
 9    2  0.9254368E-005  0.1438942E+03  0.7546771E-02  0.1236101E+00
         -1   -1    0    0    0  501 -0.00000000000E+00  0.00000000000E+00  0.44043996968E+02  0.44043996968E+02  0.00000000000E+00 0.  1.
         21   -1    0    0  501  502  0.00000000000E+00 -0.00000000000E+00 -0.75716805030E+03  0.75716805030E+03  0.00000000000E+00 0. -1.
         24    2    1    2    0    0 -0.18858556318E+02  0.14980765059E+01 -0.33410451269E+03  0.34360295210E+03  0.77969698704E+02 0.  0.
         23    2    1    2    0    0  0.12156655125E+03 -0.88735634230E+00 -0.25243860366E+03  0.29459977393E+03  0.91019582481E+02 0.  0.
        -13    1    3    3    0    0 -0.36600420425E+02  0.22714623340E+02 -0.11577975057E+03  0.12353337820E+03  0.00000000000E+00 0.  1.
         14    1    3    3    0    0  0.17741864107E+02 -0.21216546834E+02 -0.21832476212E+03  0.22006957390E+03  0.00000000000E+00 0. -1.
        -11    1    4    4    0    0  0.11664043381E+03  0.30070091735E+02 -0.20377603018E+03  0.23671474752E+03  0.00000000000E+00 0.  1.
         11    1    4    4    0    0  0.49261174389E+01 -0.30957448078E+02 -0.48662573483E+02  0.57885026410E+02  0.00000000000E+00 0. -1.
         -2    1    1    2    0  502 -0.10270799493E+03 -0.61072016356E+00 -0.12658093698E+03  0.16300932123E+03  0.00000000000E+00 0.  1.
<scales pt_clust_5="13000.00000" pt_clust_6="13000.00000" pt_clust_7="13000.00000" pt_clust_8="13000.00000" pt_clust_9="111.44953"></scales>
<clustering>
<clus scale="   77.970">  5  6 -1 -1</clus>
<clus scale="   80.232">  1  5  2 -1</clus>
<clus scale="   91.020">  7  8 -1 -1</clus>
<clus scale="  111.450">  2  9  1 -1</clus>
<clus scale="  111.450">  2  5  1 -1</clus>
</clustering>
</event>
<event>
 9    2  0.9254368E-005  0.1421993E+03  0.7546771E-02  0.1212986E+00
          2   -1    0    0  502    0 -0.00000000000E+00  0.00000000000E+00  0.62836168032E+02  0.62836168032E+02  0.00000000000E+00 0. -1.
         21   -1    0    0  501  502  0.00000000000E+00 -0.00000000000E+00 -0.43771023134E+03  0.43771023134E+03  0.00000000000E+00 0. -1.
         23    2    1    2    0    0  0.94058850334E+02 -0.68491882637E+02 -0.83804468029E+02  0.17040786451E+03  0.92073047704E+02 0.  0.
         24    2    1    2    0    0 -0.66038794660E+02  0.63310916910E+02 -0.26513775887E+03  0.29161028464E+03  0.79806843847E+02 0.  0.
        -11    1    4    4    0    0 -0.58222332945E+02  0.71157060383E+01 -0.89257180043E+02  0.10680504443E+03  0.00000000000E+00 0.  1.
         12    1    4    4    0    0 -0.78164617155E+01  0.56195210872E+02 -0.17588057883E+03  0.18480524021E+03  0.00000000000E+00 0. -1.
        -13    1    3    3    0    0  0.77646293532E+02 -0.53007217856E+02 -0.11561035918E+02  0.94722592847E+02  0.00000000000E+00 0. -1.
         13    1    3    3    0    0  0.16412556802E+02 -0.15484664781E+02 -0.72243432112E+02  0.75685271668E+02  0.00000000000E+00 0.  1.
          1    1    1    2  501    0 -0.28020055673E+02  0.51809657273E+01 -0.25931836406E+02  0.38528250222E+02  0.00000000000E+00 0. -1.
<scales pt_clust_5="13000.00000" pt_clust_6="13000.00000" pt_clust_7="13000.00000" pt_clust_8="13000.00000" pt_clust_9="28.49503"></scales>
<clustering>
<clus scale="   28.495">  2  9  1 -1</clus>
<clus scale="   79.807">  5  6 -1 -1</clus>
<clus scale="   92.073">  7  8 -1 -1</clus>
<clus scale="  134.582">  2  5  1 -1</clus>
<clus scale="   28.495">  2  5  1 -1</clus>
</clustering>
</event>
<event>
 9    2  0.9254368E-005  0.1768514E+03  0.7546771E-02  0.1189778E+00
          4   -1    0    0  502    0 -0.00000000000E+00  0.00000000000E+00  0.80605576333E+03  0.80605576333E+03  0.00000000000E+00 0. -1.
         21   -1    0    0  501  502  0.00000000000E+00 -0.00000000000E+00 -0.72236435077E+02  0.72236435077E+02  0.00000000000E+00 0. -1.
         24    2    1    2    0    0 -0.23335245092E+02 -0.49403389715E+02  0.33751975146E+03  0.35679361478E+03  0.10196505451E+03 0.  0.
         23    2    1    2    0    0  0.16243322795E+03  0.68105406380E+02  0.25180580050E+03  0.32006257481E+03  0.89504137936E+02 0.  0.
        -13    1    3    3    0    0 -0.20097646945E+02  0.16297745397E+02  0.20474188514E+02  0.32995822661E+02  0.00000000000E+00 0.  1.
         14    1    3    3    0    0 -0.32375981472E+01 -0.65701135113E+02  0.31704556294E+03  0.32379779212E+03  0.00000000000E+00 0. -1.
        -13    1    4    4    0    0  0.11105847685E+03  0.27792847980E+02  0.90156442489E+02  0.14572100673E+03  0.00000000000E+00 0. -1.
         13    1    4    4    0    0  0.51374751094E+02  0.40312558400E+02  0.16164935801E+03  0.17434156808E+03  0.00000000000E+00 0.  1.
          3    1    1    2  501    0 -0.13909798286E+03 -0.18702016665E+02  0.14449377629E+03  0.20143600882E+03  0.00000000000E+00 0. -1.
<scales pt_clust_5="13000.00000" pt_clust_6="13000.00000" pt_clust_7="13000.00000" pt_clust_8="13000.00000" pt_clust_9="152.53009"></scales>
<clustering>
<clus scale="   89.504">  7  8 -1 -1</clus>
<clus scale="  101.965">  5  6 -1 -1</clus>
<clus scale="  115.681">  1  5  2 -1</clus>
<clus scale="  152.530">  2  9  1 -1</clus>
<clus scale="  152.530">  2  5  1 -1</clus>
</clustering>
</event>
<event>
 9    2  0.9254368E-005  0.9248160E+02  0.7546771E-02  0.1302748E+00
         -1   -1    0    0    0  501 -0.00000000000E+00  0.00000000000E+00  0.89135818725E+02  0.89135818725E+02  0.00000000000E+00 0.  1.
         21   -1    0    0  501  502  0.00000000000E+00 -0.00000000000E+00 -0.51141406146E+03  0.51141406146E+03  0.00000000000E+00 0. -1.
         24    2    1    2    0    0 -0.10705935570E+02  0.19494365724E+02  0.58169367254E+02  0.10193819459E+03  0.80703611302E+02 0.  0.
         23    2    1    2    0    0  0.14708786512E+01  0.10660611307E+02 -0.25039199792E+03  0.26640446443E+03  0.90329252909E+02 0.  0.
        -13    1    3    3    0    0 -0.32384031077E+02  0.27900620732E+02  0.64918435909E+02  0.77727558993E+02  0.00000000000E+00 0.  1.
         14    1    3    3    0    0  0.21678095507E+02 -0.84062550080E+01 -0.67490686552E+01  0.24210635593E+02  0.00000000000E+00 0. -1.
        -11    1    4    4    0    0 -0.32248854681E+02 -0.23049838742E+01 -0.33622544387E+02  0.46645225586E+02  0.00000000000E+00 0.  1.
         11    1    4    4    0    0  0.33719733333E+02  0.12965595181E+02 -0.21676945353E+03  0.21975923885E+03  0.00000000000E+00 0. -1.
         -2    1    1    2    0  502  0.92350569187E+01 -0.30154977031E+02 -0.23005561207E+03  0.23220722116E+03  0.00000000000E+00 0.  1.
<scales pt_clust_5="13000.00000" pt_clust_6="13000.00000" pt_clust_7="13000.00000" pt_clust_8="13000.00000" pt_clust_9="31.53742"></scales>
<clustering>
<clus scale="   31.537">  2  9  1 -1</clus>
<clus scale="   80.704">  5  6 -1 -1</clus>
<clus scale="   83.106">  1  5  2 -1</clus>
<clus scale="   90.329">  7  8 -1 -1</clus>
<clus scale="   31.537">  2  5  1 -1</clus>
</clustering>
</event>
<event>
 9    2  0.9254368E-005  0.9413964E+02  0.7546771E-02  0.1293549E+00
         -1   -1    0    0    0  501 -0.00000000000E+00  0.00000000000E+00  0.28042856642E+03  0.28042856642E+03  0.00000000000E+00 0.  1.
         21   -1    0    0  501  502  0.00000000000E+00 -0.00000000000E+00 -0.57133114360E+02  0.57133114360E+02  0.00000000000E+00 0.  1.
         23    2    1    2    0    0 -0.46061328923E+01  0.70151126561E+02  0.11122190080E+03  0.15460502247E+03  0.81178844156E+02 0.  0.
         24    2    1    2    0    0 -0.17249252019E+02 -0.18343243634E+02  0.50466382884E+02  0.99547079849E+02  0.82028982822E+02 0.  0.
        -13    1    4    4    0    0 -0.20167988698E+02 -0.30951238509E+02  0.68218247818E+02  0.77578710151E+02  0.00000000000E+00 0.  1.
         14    1    4    4    0    0  0.29187366790E+01  0.12607994875E+02 -0.17751864933E+02  0.21968369698E+02  0.00000000000E+00 0. -1.
        -11    1    3    3    0    0  0.14739154486E+02  0.57263422939E+02  0.11660887092E+03  0.13074391405E+03  0.00000000000E+00 0.  1.
         11    1    3    3    0    0 -0.19345287378E+02  0.12887703621E+02 -0.53869701226E+01  0.23861108429E+02  0.00000000000E+00 0. -1.
         -2    1    1    2    0  502  0.21855384912E+02 -0.51807882927E+02  0.61607168370E+02  0.83409578452E+02  0.00000000000E+00 0.  1.
<scales pt_clust_5="13000.00000" pt_clust_6="13000.00000" pt_clust_7="13000.00000" pt_clust_8="13000.00000" pt_clust_9="56.22915"></scales>
<clustering>
<clus scale="   56.229">  2  9  1 -1</clus>
<clus scale="   81.179">  7  8 -1 -1</clus>
<clus scale="   82.029">  5  6 -1 -1</clus>
<clus scale="   93.400">  1  7  2 -1</clus>
<clus scale="   56.229">  2  5  1 -1</clus>
</clustering>
</event>
<event>
 9    2  0.9254368E-005  0.3536619E+03  0.7546771E-02  0.1061404E+00
         21   -1    0    0  501  502  0.00000000000E+00  0.00000000000E+00  0.25000398196E+03  0.25000398196E+03  0.00000000000E+00 0.  1.
         -1   -1    0    0    0  501 -0.00000000000E+00 -0.00000000000E+00 -0.59626832463E+03  0.59626832463E+03  0.00000000000E+00 0.  1.
         23    2    1    2    0    0  0.32839122590E+03  0.73985131326E+01 -0.21671320445E+03  0.40393692908E+03  0.91131193587E+02 0.  0.
         24    2    1    2    0    0 -0.35906072588E+03  0.68865847240E+01 -0.15582219401E+03  0.39950022114E+03  0.79673336951E+02 0.  0.
        -13    1    4    4    0    0 -0.24947353049E+03  0.40340184800E+02 -0.11737779897E+03  0.27864299850E+03  0.00000000000E+00 0.  1.
         14    1    4    4    0    0 -0.10958719540E+03 -0.33453600076E+02 -0.38444395042E+02  0.12085722264E+03  0.00000000000E+00 0. -1.
        -13    1    3    3    0    0  0.16789780571E+03  0.11709416188E+02 -0.57577470190E+02  0.17788183905E+03  0.00000000000E+00 0. -1.
         13    1    3    3    0    0  0.16049342019E+03 -0.43109030551E+01 -0.15913573426E+03  0.22605509003E+03  0.00000000000E+00 0.  1.
         -2    1    1    2    0  502  0.30669499980E+02 -0.14285097857E+02  0.26271055789E+02  0.42835156380E+02  0.00000000000E+00 0.  1.
<scales pt_clust_5="13000.00000" pt_clust_6="13000.00000" pt_clust_7="13000.00000" pt_clust_8="13000.00000" pt_clust_9="33.83315"></scales>
<clustering>
<clus scale="   33.833">  1  9  2 -1</clus>
<clus scale="   79.673">  5  6 -1 -1</clus>
<clus scale="   91.131">  7  8 -1 -1</clus>
<clus scale="  350.884">  1  5  2 -1</clus>
<clus scale="   33.833">  1  5  2 -1</clus>
</clustering>
</event>
<event>
 9    2  0.9254368E-005  0.1296946E+03  0.7546771E-02  0.1231752E+00
         21   -1    0    0  501  502  0.00000000000E+00  0.00000000000E+00  0.42758621111E+03  0.42758621111E+03  0.00000000000E+00 0.  1.
         -3   -1    0    0    0  501 -0.00000000000E+00 -0.00000000000E+00 -0.15447289305E+03  0.15447289305E+03  0.00000000000E+00 0.  1.
         23    2    1    2    0    0  0.29820504928E+02  0.80055669513E+02  0.12975329662E+03  0.18125483803E+03  0.93376793631E+02 0.  0.
         24    2    1    2    0    0  0.43130697706E+02 -0.10645940865E+03  0.23957811433E+03  0.27720427905E+03  0.79061221087E+02 0.  0.
        -11    1    4    4    0    0  0.15193077239E+01 -0.66311848229E+02  0.18928635405E+03  0.20057141706E+03  0.00000000000E+00 0.  1.
         12    1    4    4    0    0  0.41611389982E+02 -0.40147560423E+02  0.50291760281E+02  0.76632861987E+02  0.00000000000E+00 0. -1.
        -13    1    3    3    0    0 -0.26665843352E+02  0.71772070911E+01  0.58621258334E+02  0.64799933889E+02  0.00000000000E+00 0. -1.
         13    1    3    3    0    0  0.56486348280E+02  0.72878462422E+02  0.71132038290E+02  0.11645490414E+03  0.00000000000E+00 0.  1.
         -4    1    1    2    0  502 -0.72951202634E+02  0.26403739138E+02 -0.96218092892E+02  0.12359998708E+03  0.00000000000E+00 0.  1.
<scales pt_clust_5="13000.00000" pt_clust_6="13000.00000" pt_clust_7="13000.00000" pt_clust_8="13000.00000" pt_clust_9="77.58248"></scales>
<clustering>
<clus scale="   77.582">  1  9  2 -1</clus>
<clus scale="   79.061">  5  6 -1 -1</clus>
<clus scale="   93.377">  7  8 -1 -1</clus>
<clus scale="  119.800">  1  5  2 -1</clus>
<clus scale="   77.582">  1  5  2 -1</clus>
</clustering>
</event>
<event>
 9    2  0.9254368E-005  0.9541993E+02  0.7546771E-02  0.1295313E+00
         -1   -1    0    0    0  501 -0.00000000000E+00  0.00000000000E+00  0.23169343568E+03  0.23169343568E+03  0.00000000000E+00 0.  1.
         21   -1    0    0  501  502  0.00000000000E+00 -0.00000000000E+00 -0.65939248590E+02  0.65939248590E+02  0.00000000000E+00 0.  1.
         23    2    1    2    0    0 -0.32059421636E+02  0.38458019547E+01  0.89099423966E+02  0.13086712698E+03  0.90249104514E+02 0.  0.
         24    2    1    2    0    0  0.18213520931E+02  0.40548578820E+02  0.76898744319E+02  0.12026147642E+03  0.81077038939E+02 0.  0.
        -13    1    4    4    0    0  0.10404751940E+02  0.65354100814E+02  0.59316952743E+02  0.88870232581E+02  0.00000000000E+00 0.  1.
         14    1    4    4    0    0  0.78087689909E+01 -0.24805521995E+02  0.17581791576E+02  0.31391243837E+02  0.00000000000E+00 0. -1.
        -13    1    3    3    0    0 -0.34492815661E+01  0.22062638345E+02  0.93983369590E+02  0.96599851519E+02  0.00000000000E+00 0. -1.
         13    1    3    3    0    0 -0.28610140070E+02 -0.18216836390E+02 -0.48839456239E+01  0.34267275464E+02  0.00000000000E+00 0.  1.
         -2    1    1    2    0  502  0.13845900705E+02 -0.44394380775E+02 -0.24398119540E+00  0.46504080870E+02  0.00000000000E+00 0.  1.
<scales pt_clust_5="13000.00000" pt_clust_6="13000.00000" pt_clust_7="13000.00000" pt_clust_8="13000.00000" pt_clust_9="46.50344"></scales>
<clustering>
<clus scale="   46.503">  2  9  1 -1</clus>
<clus scale="   81.077">  5  6 -1 -1</clus>
<clus scale="   86.796">  2  5  1 -1</clus>
<clus scale="   90.249">  7  8 -1 -1</clus>
<clus scale="   46.503">  2  5  1 -1</clus>
</clustering>
</event>
<event>
 9    2  0.9254368E-005  0.9959301E+02  0.7546771E-02  0.1287577E+00
          2   -1    0    0  502    0 -0.00000000000E+00  0.00000000000E+00  0.32216322169E+03  0.32216322169E+03  0.00000000000E+00 0. -1.
         21   -1    0    0  501  502  0.00000000000E+00 -0.00000000000E+00 -0.47623963983E+02  0.47623963983E+02  0.00000000000E+00 0.  1.
         23    2    1    2    0    0 -0.25347028446E+02  0.25479020389E+02  0.22204254932E+03  0.24352736286E+03  0.93332901054E+02 0.  0.
         24    2    1    2    0    0  0.36504818065E+02 -0.58760800020E+01  0.53036790285E+02  0.10369739321E+03  0.81074769057E+02 0.  0.
        -11    1    4    4    0    0  0.55449307837E+02 -0.25070870503E+02  0.28341759925E+02  0.67129945948E+02  0.00000000000E+00 0.  1.
         12    1    4    4    0    0 -0.18944489772E+02  0.19194790501E+02  0.24695030360E+02  0.36567447266E+02  0.00000000000E+00 0. -1.
        -13    1    3    3    0    0 -0.36918757622E+02 -0.88333678935E+01  0.30792632528E+02  0.48879538364E+02  0.00000000000E+00 0. -1.
         13    1    3    3    0    0  0.11571729176E+02  0.34312388283E+02  0.19124991679E+03  0.19464782449E+03  0.00000000000E+00 0.  1.
          1    1    1    2  501    0 -0.11157789619E+02 -0.19602940387E+02 -0.54008190134E+00  0.22562429601E+02  0.00000000000E+00 0. -1.
<scales pt_clust_5="13000.00000" pt_clust_6="13000.00000" pt_clust_7="13000.00000" pt_clust_8="13000.00000" pt_clust_9="22.55596"></scales>
<clustering>
<clus scale="   22.556">  2  9  1 -1</clus>
<clus scale="   81.075">  5  6 -1 -1</clus>
<clus scale="   88.209">  2  5  1 -1</clus>
<clus scale="   93.333">  7  8 -1 -1</clus>
<clus scale="   22.556">  2  5  1 -1</clus>
</clustering>
</event>
<event>
 9    2  0.9254368E-005  0.1106365E+03  0.7546771E-02  0.1262583E+00
          2   -1    0    0  502    0 -0.00000000000E+00  0.00000000000E+00  0.83324028809E+03  0.83324028809E+03  0.00000000000E+00 0. -1.
         21   -1    0    0  501  502  0.00000000000E+00 -0.00000000000E+00 -0.34316971634E+03  0.34316971634E+03  0.00000000000E+00 0. -1.
         24    2    1    2    0    0  0.66724475277E+02 -0.46436521441E+01  0.74112619310E+03  0.74853311740E+03  0.80994287629E+02 0.  0.
         23    2    1    2    0    0 -0.50709683700E+02 -0.31572171667E+02  0.53940649915E+02  0.12032073780E+03  0.89438314985E+02 0.  0.
        -13    1    3    3    0    0  0.20275864718E+02  0.27492436943E+02  0.11779905148E+03  0.12265219651E+03  0.00000000000E+00 0.  1.
         14    1    3    3    0    0  0.46448610558E+02 -0.32136089087E+02  0.62332714163E+03  0.62588092089E+03  0.00000000000E+00 0. -1.
        -11    1    4    4    0    0 -0.45092065411E+02  0.15155737839E+01 -0.11689530887E+02  0.46607257581E+02  0.00000000000E+00 0.  1.
         11    1    4    4    0    0 -0.56176182891E+01 -0.33087745450E+02  0.65630180802E+02  0.73713480221E+02  0.00000000000E+00 0. -1.
          1    1    1    2  501    0 -0.16014791577E+02  0.36215823811E+02 -0.30499627126E+03  0.30755614923E+03  0.00000000000E+00 0. -1.
<scales pt_clust_5="13000.00000" pt_clust_6="13000.00000" pt_clust_7="13000.00000" pt_clust_8="13000.00000" pt_clust_9="39.59873"></scales>
<clustering>
<clus scale="   39.599">  2  9  1 -1</clus>
<clus scale="   80.994">  5  6 -1 -1</clus>
<clus scale="   89.438">  7  8 -1 -1</clus>
<clus scale="  103.929">  1  5  2 -1</clus>
<clus scale="   39.599">  2  5  1 -1</clus>
</clustering>
</event>
<event>
 9    2  0.9254368E-005  0.9529014E+02  0.7546771E-02  0.1296587E+00
          2   -1    0    0  502    0 -0.00000000000E+00  0.00000000000E+00  0.37370081058E+02  0.37370081058E+02  0.00000000000E+00 0. -1.
         21   -1    0    0  501  502  0.00000000000E+00 -0.00000000000E+00 -0.43062752596E+03  0.43062752596E+03  0.00000000000E+00 0.  1.
         24    2    1    2    0    0  0.24017245357E+02  0.13730503354E+02 -0.47638680274E+02  0.97725712675E+02  0.80718747900E+02 0.  0.
         23    2    1    2    0    0 -0.33061602200E+02  0.15491612875E+02 -0.29652525851E+03  0.31242809770E+03  0.91383957481E+02 0.  0.
        -13    1    3    3    0    0  0.37767781900E+02  0.39788919094E+02 -0.23687667284E+02  0.59755075213E+02  0.00000000000E+00 0.  1.
         14    1    3    3    0    0 -0.13750536542E+02 -0.26058415739E+02 -0.23951012990E+02  0.37970637462E+02  0.00000000000E+00 0. -1.
        -11    1    4    4    0    0 -0.61274923793E+02  0.35831157437E+01 -0.13892659156E+03  0.15188170675E+03  0.00000000000E+00 0.  1.
         11    1    4    4    0    0  0.28213321592E+02  0.11908497131E+02 -0.15759866696E+03  0.16054639094E+03  0.00000000000E+00 0. -1.
          1    1    1    2  501    0  0.90443568430E+01 -0.29222116230E+02 -0.49093506112E+02  0.57843796643E+02  0.00000000000E+00 0. -1.
<scales pt_clust_5="13000.00000" pt_clust_6="13000.00000" pt_clust_7="13000.00000" pt_clust_8="13000.00000" pt_clust_9="30.58974"></scales>
<clustering>
<clus scale="   30.590">  2  9  1 -1</clus>
<clus scale="   80.719">  5  6 -1 -1</clus>
<clus scale="   85.116">  1  5  2 -1</clus>
<clus scale="   91.384">  7  8 -1 -1</clus>
<clus scale="   30.590">  2  5  1 -1</clus>
</clustering>
</event>
<event>
 9    2  0.9254368E-005  0.1104829E+03  0.7546771E-02  0.1262169E+00
          4   -1    0    0  502    0 -0.00000000000E+00  0.00000000000E+00  0.30146283338E+03  0.30146283338E+03  0.00000000000E+00 0. -1.
         21   -1    0    0  501  502  0.00000000000E+00 -0.00000000000E+00 -0.85464631695E+02  0.85464631695E+02  0.00000000000E+00 0.  1.
         24    2    1    2    0    0  0.29166496279E+02  0.57565625400E+02  0.21857715489E+03  0.24234279874E+03  0.82398869692E+02 0.  0.
         23    2    1    2    0    0 -0.81712710431E+01 -0.73691081347E+02 -0.12013220291E+02  0.11648065937E+03  0.89029665869E+02 0.  0.
        -11    1    3    3    0    0 -0.73244402807E+00  0.36856207879E+02  0.23083042485E+02  0.43494176436E+02  0.00000000000E+00 0.  1.
         12    1    3    3    0    0  0.29898940307E+02  0.20709417520E+02  0.19549411241E+03  0.19884862230E+03  0.00000000000E+00 0. -1.
        -11    1    4    4    0    0 -0.23859034288E+02  0.20083088674E+01 -0.28716598148E+02  0.37388899834E+02  0.00000000000E+00 0.  1.
         11    1    4    4    0    0  0.15687763245E+02 -0.75699390215E+02  0.16703377857E+02  0.79091759535E+02  0.00000000000E+00 0. -1.
          3    1    1    2  501    0 -0.20995225235E+02  0.16125455947E+02  0.94342670826E+01  0.28104006967E+02  0.00000000000E+00 0. -1.
<scales pt_clust_5="13000.00000" pt_clust_6="13000.00000" pt_clust_7="13000.00000" pt_clust_8="13000.00000" pt_clust_9="26.47319"></scales>
<clustering>
<clus scale="   26.473">  2  9  1 -1</clus>
<clus scale="   82.399">  5  6 -1 -1</clus>
<clus scale="   89.030">  7  8 -1 -1</clus>
<clus scale="  105.213">  1  5  2 -1</clus>
<clus scale="   26.473">  2  5  1 -1</clus>
</clustering>
</event>
<event>
 9    2  0.9254368E-005  0.8720087E+02  0.7546771E-02  0.1315865E+00
         21   -1    0    0  501  502  0.00000000000E+00  0.00000000000E+00  0.10853526128E+03  0.10853526128E+03  0.00000000000E+00 0. -1.
          2   -1    0    0  502    0 -0.00000000000E+00 -0.00000000000E+00 -0.22495492492E+03  0.22495492492E+03  0.00000000000E+00 0. -1.
         23    2    1    2    0    0  0.49140013673E+02 -0.25284400007E+01 -0.15219585971E+03  0.17952877509E+03  0.81522189732E+02 0.  0.
         24    2    1    2    0    0  0.13850325806E+02 -0.15180328178E+02 -0.83027093785E+01  0.75066967440E+02  0.71720573960E+02 0.  0.
        -13    1    4    4    0    0 -0.16608980638E+02  0.20296972355E+02  0.44472084870E+01  0.26600808032E+02  0.00000000000E+00 0.  1.
         14    1    4    4    0    0  0.30459306444E+02 -0.35477300533E+02 -0.12749917866E+02  0.48466159408E+02  0.00000000000E+00 0. -1.
        -11    1    3    3    0    0  0.37449436104E+02  0.37266507329E+02 -0.97391029842E+02  0.11079831013E+03  0.00000000000E+00 0. -1.
         11    1    3    3    0    0  0.11690577569E+02 -0.39794947330E+02 -0.54804829869E+02  0.68730464961E+02  0.00000000000E+00 0.  1.
          1    1    1    2  501    0 -0.62990339479E+02  0.17708768178E+02  0.44078905448E+02  0.78894443680E+02  0.00000000000E+00 0. -1.
<scales pt_clust_5="13000.00000" pt_clust_6="13000.00000" pt_clust_7="13000.00000" pt_clust_8="13000.00000" pt_clust_9="65.43228"></scales>
<clustering>
<clus scale="   65.432">  1  9  2 -1</clus>
<clus scale="   71.721">  5  6 -1 -1</clus>
<clus scale="   78.115">  1  5  2 -1</clus>
<clus scale="   81.522">  7  8 -1 -1</clus>
<clus scale="   65.432">  1  5  2 -1</clus>
</clustering>
</event>
<event>
 9    2  0.9254368E-005  0.1849345E+03  0.7546771E-02  0.1199723E+00
         21   -1    0    0  501  502  0.00000000000E+00  0.00000000000E+00  0.84916327028E+02  0.84916327028E+02  0.00000000000E+00 0.  1.
          2   -1    0    0  502    0 -0.00000000000E+00 -0.00000000000E+00 -0.58934168036E+03  0.58934168036E+03  0.00000000000E+00 0. -1.
         24    2    1    2    0    0  0.11552632471E+02 -0.14588026437E+01 -0.10033493958E+03  0.12917350780E+03  0.80517722230E+02 0.  0.
         23    2    1    2    0    0 -0.65117189547E+02 -0.14867723913E+03 -0.12623874505E+03  0.22475413479E+03  0.90736048758E+02 0.  0.
        -11    1    3    3    0    0  0.26275653003E+02 -0.34341130579E+02 -0.40022456983E+02  0.58919608393E+02  0.00000000000E+00 0.  1.
         12    1    3    3    0    0 -0.14723020532E+02  0.32882327936E+02 -0.60312482601E+02  0.70253899404E+02  0.00000000000E+00 0. -1.
        -13    1    4    4    0    0  0.83110398336E+01 -0.93938645303E+02 -0.61177531747E+02  0.11241099971E+03  0.00000000000E+00 0. -1.
         13    1    4    4    0    0 -0.73428229381E+02 -0.54738593827E+02 -0.65061213300E+02  0.11234313508E+03  0.00000000000E+00 0.  1.
          1    1    1    2  501    0  0.53564557076E+02  0.15013604177E+03 -0.27785166870E+03  0.32033036480E+03  0.00000000000E+00 0. -1.
<scales pt_clust_5="13000.00000" pt_clust_6="13000.00000" pt_clust_7="13000.00000" pt_clust_8="13000.00000" pt_clust_9="161.14521"></scales>
<clustering>
<clus scale="   80.518">  5  6 -1 -1</clus>
<clus scale="   81.355">  2  5  1 -1</clus>
<clus scale="   90.736">  7  8 -1 -1</clus>
<clus scale="  161.145">  1  9  2 -1</clus>
<clus scale="  161.145">  1  5  2 -1</clus>
</clustering>
</event>
<event>
 9    2  0.9254368E-005  0.1260232E+03  0.7546771E-02  0.1236386E+00
         21   -1    0    0  501  502  0.00000000000E+00  0.00000000000E+00  0.54178623733E+02  0.54178623733E+02  0.00000000000E+00 0. -1.
          2   -1    0    0  502    0 -0.00000000000E+00 -0.00000000000E+00 -0.45811369030E+03  0.45811369030E+03  0.00000000000E+00 0. -1.
         23    2    1    2    0    0  0.96880740388E+02 -0.31745388741E+02 -0.27876919733E+03  0.31046275793E+03  0.91001159967E+02 0.  0.
         24    2    1    2    0    0 -0.63702641262E+02 -0.71156879846E+01 -0.60621046377E+02  0.11950699721E+03  0.80612353879E+02 0.  0.
        -11    1    4    4    0    0 -0.25044398149E+02  0.27615182425E+02  0.29507778303E+01  0.37396888491E+02  0.00000000000E+00 0.  1.
         12    1    4    4    0    0 -0.38658243113E+02 -0.34730870410E+02 -0.63571824207E+02  0.82110108714E+02  0.00000000000E+00 0. -1.
        -11    1    3    3    0    0  0.87934075607E+01 -0.43596298206E+02 -0.12725656459E+03  0.13480428207E+03  0.00000000000E+00 0.  1.
         11    1    3    3    0    0  0.88087332828E+02  0.11850909466E+02 -0.15151263274E+03  0.17565847586E+03  0.00000000000E+00 0. -1.
          1    1    1    2  501    0 -0.33178099126E+02  0.38861076725E+02 -0.64544822858E+02  0.82322558899E+02  0.00000000000E+00 0. -1.
<scales pt_clust_5="13000.00000" pt_clust_6="13000.00000" pt_clust_7="13000.00000" pt_clust_8="13000.00000" pt_clust_9="51.09765"></scales>
<clustering>
<clus scale="   51.098">  1  9  2 -1</clus>
<clus scale="   80.612">  5  6 -1 -1</clus>
<clus scale="   91.001">  7  8 -1 -1</clus>
<clus scale="  118.739">  1  5  2 -1</clus>
<clus scale="   51.098">  1  5  2 -1</clus>
</clustering>
</event>
<event>
 9    2  0.9254368E-005  0.1621059E+03  0.7546771E-02  0.1186468E+00
         -3   -1    0    0    0  501 -0.00000000000E+00  0.00000000000E+00  0.46735915788E+03  0.46735915788E+03  0.00000000000E+00 0.  1.
         21   -1    0    0  501  502  0.00000000000E+00 -0.00000000000E+00 -0.13207533268E+03  0.13207533268E+03  0.00000000000E+00 0.  1.
         23    2    1    2    0    0 -0.33057894003E+02 -0.11176821806E+03  0.13904847763E+03  0.20133980626E+03  0.87282756203E+02 0.  0.
         24    2    1    2    0    0 -0.11008147657E+02  0.19889779319E+03  0.50934128916E+02  0.22303520003E+03  0.86422818235E+02 0.  0.
        -11    1    4    4    0    0  0.21748056060E+02  0.15751664761E+03  0.16154829356E+02  0.15982944262E+03  0.00000000000E+00 0.  1.
         12    1    4    4    0    0 -0.32756203718E+02  0.41381145583E+02  0.34779299560E+02  0.63205757409E+02  0.00000000000E+00 0. -1.
        -13    1    3    3    0    0 -0.43799853459E+02 -0.58043391120E+02  0.12527121237E+03  0.14484591491E+03  0.00000000000E+00 0.  1.
         13    1    3    3    0    0  0.10741959456E+02 -0.53724826936E+02  0.13777265255E+02  0.56493891353E+02  0.00000000000E+00 0. -1.
         -4    1    1    2    0  502  0.44066041660E+02 -0.87129575139E+02  0.14530121866E+03  0.17505948427E+03  0.00000000000E+00 0.  1.
<scales pt_clust_5="13000.00000" pt_clust_6="13000.00000" pt_clust_7="13000.00000" pt_clust_8="13000.00000" pt_clust_9="97.63907"></scales>
<clustering>
<clus scale="   86.423">  5  6 -1 -1</clus>
<clus scale="   87.283">  7  8 -1 -1</clus>
<clus scale="   97.639">  2  9  1 -1</clus>
<clus scale="  161.645">  2  5  1 -1</clus>
<clus scale="   97.639">  2  5  1 -1</clus>
</clustering>
</event>
<event>
 9    2  0.9254368E-005  0.2017010E+03  0.7546771E-02  0.1172389E+00
         21   -1    0    0  501  502  0.00000000000E+00  0.00000000000E+00  0.24005330802E+03  0.24005330802E+03  0.00000000000E+00 0. -1.
          2   -1    0    0  502    0 -0.00000000000E+00 -0.00000000000E+00 -0.58377133762E+03  0.58377133762E+03  0.00000000000E+00 0. -1.
         23    2    1    2    0    0 -0.51475066416E+02 -0.49014821728E+02 -0.16000721346E+02  0.11629766376E+03  0.90647605045E+02 0.  0.
         24    2    1    2    0    0 -0.12935133780E+03 -0.23209077910E+02 -0.45209975547E+03  0.47647401541E+03  0.73231609144E+02 0.  0.
        -13    1    4    4    0    0 -0.24639139926E+02  0.47351881878E+01 -0.23473365702E+02  0.34358523264E+02  0.00000000000E+00 0.  1.
         14    1    4    4    0    0 -0.10471219787E+03 -0.27944266098E+02 -0.42862638976E+03  0.44211549214E+03  0.00000000000E+00 0. -1.
        -13    1    3    3    0    0  0.16698984977E+02 -0.39618866328E+02 -0.19884082407E+02  0.47369688637E+02  0.00000000000E+00 0.  1.
         13    1    3    3    0    0 -0.68174051393E+02 -0.93959554001E+01  0.38833610605E+01  0.68927975121E+02  0.00000000000E+00 0. -1.
          1    1    1    2  501    0  0.18082640422E+03  0.72223899639E+02  0.12438244721E+03  0.23105296647E+03  0.00000000000E+00 0. -1.
<scales pt_clust_5="13000.00000" pt_clust_6="13000.00000" pt_clust_7="13000.00000" pt_clust_8="13000.00000" pt_clust_9="187.93725"></scales>
<clustering>
<clus scale="   73.232">  5  6 -1 -1</clus>
<clus scale="   90.648">  7  8 -1 -1</clus>
<clus scale="  115.192">  2  7  1 -1</clus>
<clus scale="  187.937">  1  9  2 -1</clus>
<clus scale="  187.937">  1  5  2 -1</clus>
</clustering>
</event>
<event>
 9    2  0.9254368E-005  0.1304348E+03  0.7546771E-02  0.1242954E+00
          2   -1    0    0  502    0 -0.00000000000E+00  0.00000000000E+00  0.43930570824E+02  0.43930570824E+02  0.00000000000E+00 0. -1.
         21   -1    0    0  501  502  0.00000000000E+00 -0.00000000000E+00 -0.69053997013E+03  0.69053997013E+03  0.00000000000E+00 0.  1.
         23    2    1    2    0    0 -0.22794291791E+02  0.18926135045E+01 -0.14142337013E+03  0.16965456836E+03  0.90878717113E+02 0.  0.
         24    2    1    2    0    0  0.84348117641E+02  0.76031181536E+02 -0.19804457547E+03  0.24202058245E+03  0.80355229703E+02 0.  0.
        -11    1    4    4    0    0  0.69438725034E+02  0.85741963613E+02 -0.19488401487E+03  0.22394910161E+03  0.00000000000E+00 0.  1.
         12    1    4    4    0    0  0.14909392607E+02 -0.97107820763E+01 -0.31605605958E+01  0.18071480839E+02  0.00000000000E+00 0. -1.
        -11    1    3    3    0    0  0.10996883478E+02 -0.37450108836E+02 -0.81777373766E+02  0.90614463294E+02  0.00000000000E+00 0.  1.
         11    1    3    3    0    0 -0.33791175269E+02  0.39342722341E+02 -0.59645996361E+02  0.79040105068E+02  0.00000000000E+00 0. -1.
          1    1    1    2  501    0 -0.61553825850E+02 -0.77923795041E+02 -0.30714145371E+03  0.32279539015E+03  0.00000000000E+00 0. -1.
<scales pt_clust_5="13000.00000" pt_clust_6="13000.00000" pt_clust_7="13000.00000" pt_clust_8="13000.00000" pt_clust_9="102.74375"></scales>
<clustering>
<clus scale="   80.355">  5  6 -1 -1</clus>
<clus scale="   90.879">  7  8 -1 -1</clus>
<clus scale="   93.713">  1  7  2 -1</clus>
<clus scale="  102.744">  2  9  1 -1</clus>
<clus scale="  102.744">  2  5  1 -1</clus>
</clustering>
</event>
<event>
 9    2  0.9254368E-005  0.1944842E+03  0.7546771E-02  0.1168144E+00
         -1   -1    0    0    0  501 -0.00000000000E+00  0.00000000000E+00  0.80449234421E+03  0.80449234421E+03  0.00000000000E+00 0.  1.
         21   -1    0    0  501  502  0.00000000000E+00 -0.00000000000E+00 -0.15040327930E+03  0.15040327930E+03  0.00000000000E+00 0. -1.
         24    2    1    2    0    0 -0.99719879626E+02  0.64829117133E+02 -0.51362762622E+02  0.15061918291E+03  0.76818852210E+02 0.  0.
         23    2    1    2    0    0 -0.35384275898E+02  0.10814580027E+03  0.41764989113E+03  0.44233250918E+03  0.90989318201E+02 0.  0.
        -13    1    3    3    0    0 -0.48627543846E+01  0.20816216749E+02  0.15584269553E+02  0.26454313777E+02  0.00000000000E+00 0.  1.
         14    1    3    3    0    0 -0.94857125241E+02  0.44012900385E+02 -0.66947032175E+02  0.12416486913E+03  0.00000000000E+00 0. -1.
        -13    1    4    4    0    0 -0.63085864903E+02  0.47862020082E+02  0.23761703392E+03  0.25046447677E+03  0.00000000000E+00 0. -1.
         13    1    4    4    0    0  0.27701589005E+02  0.60283780186E+02  0.18003285721E+03  0.19186803241E+03  0.00000000000E+00 0.  1.
         -2    1    1    2    0  502  0.13510415552E+03 -0.17297491740E+03  0.28780193641E+03  0.36194393142E+03  0.00000000000E+00 0.  1.
<scales pt_clust_5="13000.00000" pt_clust_6="13000.00000" pt_clust_7="13000.00000" pt_clust_8="13000.00000" pt_clust_9="171.88676"></scales>
<clustering>
<clus scale="   76.819">  5  6 -1 -1</clus>
<clus scale="   90.989">  7  8 -1 -1</clus>
<clus scale="  141.591">  1  5  2 -1</clus>
<clus scale="  171.887">  2  9  1 -1</clus>
<clus scale="  171.887">  2  5  1 -1</clus>
</clustering>
</event>
<event>
 9    2  0.9254368E-005  0.1012871E+03  0.7546771E-02  0.1283350E+00
         21   -1    0    0  501  502  0.00000000000E+00  0.00000000000E+00  0.41390535596E+02  0.41390535596E+02  0.00000000000E+00 0.  1.
          2   -1    0    0  502    0 -0.00000000000E+00 -0.00000000000E+00 -0.52856574127E+03  0.52856574127E+03  0.00000000000E+00 0. -1.
         23    2    1    2    0    0  0.34679511268E+02 -0.18220834192E+02 -0.33874605713E+03  0.35341219758E+03  0.92825766236E+02 0.  0.
         24    2    1    2    0    0 -0.57054027550E+02 -0.22020592094E+02 -0.63414511201E+02  0.11986171310E+03  0.81273375105E+02 0.  0.
        -13    1    4    4    0    0 -0.45682990317E+02 -0.48239706439E+02 -0.62580853720E+02  0.91270850407E+02  0.00000000000E+00 0.  1.
         14    1    4    4    0    0 -0.11371037233E+02  0.26219114346E+02 -0.83365748088E+00  0.28590862695E+02  0.00000000000E+00 0. -1.
        -13    1    3    3    0    0  0.65566691991E+02 -0.14758575666E+02 -0.26488858680E+03  0.27328148505E+03  0.00000000000E+00 0. -1.
         13    1    3    3    0    0 -0.30887180723E+02 -0.34622585263E+01 -0.73857470327E+02  0.80130712527E+02  0.00000000000E+00 0.  1.
          1    1    1    2  501    0  0.22374516282E+02  0.40241426286E+02 -0.85014637339E+02  0.96682366181E+02  0.00000000000E+00 0. -1.
<scales pt_clust_5="13000.00000" pt_clust_6="13000.00000" pt_clust_7="13000.00000" pt_clust_8="13000.00000" pt_clust_9="46.04339"></scales>
<clustering>
<clus scale="   46.043">  1  9  2 -1</clus>
<clus scale="   81.273">  5  6 -1 -1</clus>
<clus scale="   90.817">  1  5  2 -1</clus>
<clus scale="   92.826">  7  8 -1 -1</clus>
<clus scale="   46.043">  1  5  2 -1</clus>
</clustering>
</event>
<event>
 9    2  0.9254368E-005  0.1152632E+03  0.7546771E-02  0.1255476E+00
          2   -1    0    0  502    0 -0.00000000000E+00  0.00000000000E+00  0.27062442563E+03  0.27062442563E+03  0.00000000000E+00 0. -1.
         21   -1    0    0  501  502  0.00000000000E+00 -0.00000000000E+00 -0.17523595638E+03  0.17523595638E+03  0.00000000000E+00 0. -1.
         24    2    1    2    0    0 -0.67640368400E+02 -0.28607995164E+02  0.17511468246E+03  0.20551283528E+03  0.78592217344E+02 0.  0.
         23    2    1    2    0    0  0.10076670728E+02  0.97925205175E+02 -0.29867937492E+02  0.13737035241E+03  0.91036448356E+02 0.  0.
        -13    1    3    3    0    0  0.10328679108E+02 -0.17711430494E+02  0.77186333124E+02  0.79863047797E+02  0.00000000000E+00 0.  1.
         14    1    3    3    0    0 -0.77969047508E+02 -0.10896564670E+02  0.97928349339E+02  0.12564978749E+03  0.00000000000E+00 0. -1.
        -11    1    4    4    0    0  0.22110790639E+02 -0.10013608951E+02 -0.12764508890E+02  0.27424297878E+02  0.00000000000E+00 0.  1.
         11    1    4    4    0    0 -0.12034119911E+02  0.10793881413E+03 -0.17103428602E+02  0.10994605453E+03  0.00000000000E+00 0. -1.
          1    1    1    2  501    0  0.57563697672E+02 -0.69317210012E+02 -0.49858275717E+02  0.10297719432E+03  0.00000000000E+00 0. -1.
<scales pt_clust_5="13000.00000" pt_clust_6="13000.00000" pt_clust_7="13000.00000" pt_clust_8="13000.00000" pt_clust_9="90.10247"></scales>
<clustering>
<clus scale="   78.592">  5  6 -1 -1</clus>
<clus scale="   90.102">  2  9  1 -1</clus>
<clus scale="   91.036">  7  8 -1 -1</clus>
<clus scale="  105.710">  1  5  2 -1</clus>
<clus scale="   90.102">  2  5  1 -1</clus>
</clustering>
</event>
<event>
 9    2  0.9254368E-005  0.1661878E+03  0.7546771E-02  0.1183375E+00
         21   -1    0    0  501  502  0.00000000000E+00  0.00000000000E+00  0.30929164073E+02  0.30929164073E+02  0.00000000000E+00 0. -1.
          2   -1    0    0  502    0 -0.00000000000E+00 -0.00000000000E+00 -0.15527511711E+04  0.15527511711E+04  0.00000000000E+00 0. -1.
         24    2    1    2    0    0 -0.94382042755E+02 -0.64424018681E+02 -0.54751234988E+03  0.56506938328E+03  0.80468692492E+02 0.  0.
         23    2    1    2    0    0  0.10729443052E+03  0.15207370990E+03 -0.72616595243E+03  0.75512566517E+03  0.90880535150E+02 0.  0.
        -11    1    3    3    0    0 -0.26424329519E+01 -0.36315888122E+02 -0.81232892373E+02  0.89020272889E+02  0.00000000000E+00 0.  1.
         12    1    3    3    0    0 -0.91739609803E+02 -0.28108130558E+02 -0.46627945751E+03  0.47604911039E+03  0.00000000000E+00 0. -1.
        -13    1    4    4    0    0  0.85738526133E+02  0.14566764159E+03 -0.70221849805E+03  0.72227486158E+03  0.00000000000E+00 0.  1.
         13    1    4    4    0    0  0.21555904388E+02  0.64060683057E+01 -0.23947454379E+02  0.32850803588E+02  0.00000000000E+00 0. -1.
          1    1    1    2  501    0 -0.12912387767E+02 -0.87649691219E+02 -0.24814370474E+03  0.26348528675E+03  0.00000000000E+00 0. -1.
<scales pt_clust_5="13000.00000" pt_clust_6="13000.00000" pt_clust_7="13000.00000" pt_clust_8="13000.00000" pt_clust_9="88.59570"></scales>
<clustering>
<clus scale="   80.469">  5  6 -1 -1</clus>
<clus scale="   88.596">  1  9  2 -1</clus>
<clus scale="   90.881">  7  8 -1 -1</clus>
<clus scale="  160.731">  2  5  1 -1</clus>
<clus scale="   88.596">  1  5  2 -1</clus>
</clustering>
</event>
<event>
 9    2  0.9254368E-005  0.7899119E+03  0.7546771E-02  0.1019036E+00
          2   -1    0    0  502    0 -0.00000000000E+00  0.00000000000E+00  0.12536238416E+04  0.12536238416E+04  0.00000000000E+00 0. -1.
         21   -1    0    0  501  502  0.00000000000E+00 -0.00000000000E+00 -0.61519115128E+03  0.61519115128E+03  0.00000000000E+00 0.  1.
         23    2    1    2    0    0 -0.47095469101E+02  0.34049847661E+02  0.20482946278E+03  0.23157145397E+03  0.91065109326E+02 0.  0.
         24    2    1    2    0    0  0.46687525352E+03  0.63248999445E+03  0.18289700087E+03  0.81059727803E+03  0.74836747675E+02 0.  0.
        -13    1    4    4    0    0  0.38762145456E+03  0.48080141907E+03  0.12663481667E+03  0.63044172880E+03  0.00000000000E+00 0.  1.
         14    1    4    4    0    0  0.79253798953E+02  0.15168857538E+03  0.56262184198E+02  0.18015554923E+03  0.00000000000E+00 0. -1.
        -11    1    3    3    0    0 -0.34992059417E+02  0.62884546301E+02  0.17087297713E+03  0.18540896607E+03  0.00000000000E+00 0. -1.
         11    1    3    3    0    0 -0.12103409684E+02 -0.28834698640E+02  0.33956485647E+02  0.46162487900E+02  0.00000000000E+00 0.  1.
          1    1    1    2  501    0 -0.41977978442E+03 -0.66653984211E+03  0.25070622668E+03  0.82664626088E+03  0.00000000000E+00 0. -1.
<scales pt_clust_5="13000.00000" pt_clust_6="13000.00000" pt_clust_7="13000.00000" pt_clust_8="13000.00000" pt_clust_9="786.35922"></scales>
<clustering>
<clus scale="   74.837">  5  6 -1 -1</clus>
<clus scale="   91.065">  7  8 -1 -1</clus>
<clus scale="  108.029">  1  7  2 -1</clus>
<clus scale="  786.359">  2  9  1 -1</clus>
<clus scale="  786.359">  2  5  1 -1</clus>
</clustering>
</event>
<event>
 9    2  0.9254368E-005  0.1393606E+03  0.7546771E-02  0.1217576E+00
         21   -1    0    0  501  502  0.00000000000E+00  0.00000000000E+00  0.76531976617E+02  0.76531976617E+02  0.00000000000E+00 0.  1.
          2   -1    0    0  502    0 -0.00000000000E+00 -0.00000000000E+00 -0.80851837444E+03  0.80851837444E+03  0.00000000000E+00 0. -1.
         24    2    1    2    0    0  0.47744371737E+02  0.11490508192E+03 -0.22960185611E+03  0.27314055929E+03  0.80037803023E+02 0.  0.
         23    2    1    2    0    0 -0.89048937977E+02 -0.99668718664E+01 -0.40742460837E+02  0.13669246680E+03  0.94846351927E+02 0.  0.
        -13    1    3    3    0    0  0.53846389196E+02  0.11132353346E+03 -0.15538483653E+03  0.19858703420E+03  0.00000000000E+00 0.  1.
         14    1    3    3    0    0 -0.61020174590E+01  0.35815484670E+01 -0.74217019582E+02  0.74553525082E+02  0.00000000000E+00 0. -1.
        -13    1    4    4    0    0 -0.84872313267E+02  0.26398094839E+02 -0.45377362008E+02  0.99796162016E+02  0.00000000000E+00 0.  1.
         13    1    4    4    0    0 -0.41766247104E+01 -0.36364966706E+02  0.46349011711E+01  0.36896304779E+02  0.00000000000E+00 0. -1.
          1    1    1    2  501    0  0.41304566240E+02 -0.10493821006E+03 -0.46164208087E+03  0.47521732497E+03  0.00000000000E+00 0. -1.
<scales pt_clust_5="13000.00000" pt_clust_6="13000.00000" pt_clust_7="13000.00000" pt_clust_8="13000.00000" pt_clust_9="112.77459"></scales>
<clustering>
<clus scale="   80.038">  5  6 -1 -1</clus>
<clus scale="   94.846">  7  8 -1 -1</clus>
<clus scale="  112.775">  1  9  2 -1</clus>
<clus scale="  129.737">  2  5  1 -1</clus>
<clus scale="  112.775">  1  5  2 -1</clus>
</clustering>
</event>
<event>
 9    2  0.9254368E-005  0.8702733E+02  0.7546771E-02  0.1313122E+00
          2   -1    0    0  502    0 -0.00000000000E+00  0.00000000000E+00  0.28804948659E+03  0.28804948659E+03  0.00000000000E+00 0. -1.
         21   -1    0    0  501  502  0.00000000000E+00 -0.00000000000E+00 -0.35725188577E+02  0.35725188577E+02  0.00000000000E+00 0. -1.
         23    2    1    2    0    0 -0.32499695689E+02  0.85777372987E+01  0.11830807606E+03  0.14418350437E+03  0.75248084859E+02 0.  0.
         24    2    1    2    0    0  0.20481078033E+02 -0.35551017426E+02  0.10187753380E+03  0.13594600741E+03  0.80118260335E+02 0.  0.
        -11    1    4    4    0    0 -0.25345126152E+02 -0.22074363183E+02  0.72386362463E+02  0.79808761425E+02  0.00000000000E+00 0.  1.
         12    1    4    4    0    0  0.45826204185E+02 -0.13476654243E+02  0.29491171341E+02  0.56137245984E+02  0.00000000000E+00 0. -1.
        -11    1    3    3    0    0 -0.19467992110E+01  0.30848315474E+02  0.94683885108E+02  0.99601439216E+02  0.00000000000E+00 0.  1.
         11    1    3    3    0    0 -0.30552896478E+02 -0.22270578175E+02  0.23624190951E+02  0.44582065155E+02  0.00000000000E+00 0. -1.
          1    1    1    2  501    0  0.12018617655E+02  0.26973280127E+02  0.32138688153E+02  0.43645163390E+02  0.00000000000E+00 0. -1.
<scales pt_clust_5="13000.00000" pt_clust_6="13000.00000" pt_clust_7="13000.00000" pt_clust_8="13000.00000" pt_clust_9="29.52973"></scales>
<clustering>
<clus scale="   29.530">  2  9  1 -1</clus>
<clus scale="   75.248">  7  8 -1 -1</clus>
<clus scale="   80.118">  5  6 -1 -1</clus>
<clus scale="   82.566">  1  7  2 -1</clus>
<clus scale="   29.530">  2  5  1 -1</clus>
</clustering>
</event>
<event>
 9    2  0.9254368E-005  0.1983058E+03  0.7546771E-02  0.1190642E+00
         21   -1    0    0  501  502  0.00000000000E+00  0.00000000000E+00  0.45332137219E+02  0.45332137219E+02  0.00000000000E+00 0. -1.
          2   -1    0    0  502    0 -0.00000000000E+00 -0.00000000000E+00 -0.13273085112E+04  0.13273085112E+04  0.00000000000E+00 0. -1.
         24    2    1    2    0    0  0.17067343819E+02 -0.58785132863E+01 -0.35777482846E+03  0.36671961484E+03  0.78451238906E+02 0.  0.
         23    2    1    2    0    0 -0.73238557027E+02 -0.16123003634E+03 -0.65142488160E+03  0.68113251635E+03  0.90708971987E+02 0.  0.
        -13    1    3    3    0    0  0.46644653051E+02 -0.12899938386E+02 -0.18142848903E+03  0.18777227884E+03  0.00000000000E+00 0.  1.
         14    1    3    3    0    0 -0.29577309232E+02  0.70214250997E+01 -0.17634633942E+03  0.17894733600E+03  0.00000000000E+00 0. -1.
        -13    1    4    4    0    0 -0.12657753541E+02 -0.12808238805E+03 -0.45843512531E+03  0.47615972212E+03  0.00000000000E+00 0. -1.
         13    1    4    4    0    0 -0.60580803487E+02 -0.33147648295E+02 -0.19298975630E+03  0.20497279423E+03  0.00000000000E+00 0.  1.
          1    1    1    2  501    0  0.56171213209E+02  0.16710854963E+03 -0.27277666397E+03  0.32478851728E+03  0.00000000000E+00 0. -1.
<scales pt_clust_5="13000.00000" pt_clust_6="13000.00000" pt_clust_7="13000.00000" pt_clust_8="13000.00000" pt_clust_9="176.34358"></scales>
<clustering>
<clus scale="   78.451">  5  6 -1 -1</clus>
<clus scale="   80.501">  2  5  1 -1</clus>
<clus scale="   90.709">  7  8 -1 -1</clus>
<clus scale="  176.344">  1  9  2 -1</clus>
<clus scale="  176.344">  1  5  2 -1</clus>
</clustering>
</event>
<event>
 9    2  0.9254368E-005  0.4208030E+03  0.7546771E-02  0.1070326E+00
         21   -1    0    0  501  502  0.00000000000E+00  0.00000000000E+00  0.18812007737E+03  0.18812007737E+03  0.00000000000E+00 0. -1.
          2   -1    0    0  502    0 -0.00000000000E+00 -0.00000000000E+00 -0.15041222112E+04  0.15041222112E+04  0.00000000000E+00 0. -1.
         23    2    1    2    0    0 -0.10893323390E+03 -0.86401033051E+02 -0.21887513242E+03  0.27274182431E+03  0.84558803051E+02 0.  0.
         24    2    1    2    0    0  0.38415988313E+03  0.25167631425E+03 -0.28455780953E+03  0.54581040558E+03  0.77563321972E+02 0.  0.
        -11    1    4    4    0    0  0.12749123774E+03  0.12033592627E+03 -0.82629240243E+02  0.19381006732E+03  0.00000000000E+00 0.  1.
         12    1    4    4    0    0  0.25666864539E+03  0.13134038798E+03 -0.20192856928E+03  0.35200033826E+03  0.00000000000E+00 0. -1.
        -13    1    3    3    0    0 -0.59648042313E+02 -0.51685773800E+02 -0.19032052450E+03  0.20603691468E+03  0.00000000000E+00 0.  1.
         13    1    3    3    0    0 -0.49285191588E+02 -0.34715259252E+02 -0.28554607922E+02  0.66704909627E+02  0.00000000000E+00 0. -1.
          1    1    1    2  501    0 -0.27522664923E+03 -0.16527528120E+03 -0.81256919184E+03  0.87369005863E+03  0.00000000000E+00 0. -1.
<scales pt_clust_5="13000.00000" pt_clust_6="13000.00000" pt_clust_7="13000.00000" pt_clust_8="13000.00000" pt_clust_9="413.59312"></scales>
<clustering>
<clus scale="   77.563">  5  6 -1 -1</clus>
<clus scale="   84.559">  7  8 -1 -1</clus>
<clus scale="  162.732">  2  7  1 -1</clus>
<clus scale="  413.593">  1  9  2 -1</clus>
<clus scale="  413.593">  1  5  2 -1</clus>
</clustering>
</event>
<event>
 9    2  0.9254368E-005  0.9815453E+02  0.7546771E-02  0.1289532E+00
         21   -1    0    0  501  502  0.00000000000E+00  0.00000000000E+00  0.98648157794E+02  0.98648157794E+02  0.00000000000E+00 0. -1.
          4   -1    0    0  502    0 -0.00000000000E+00 -0.00000000000E+00 -0.24144232770E+03  0.24144232770E+03  0.00000000000E+00 0. -1.
         23    2    1    2    0    0  0.10017113621E+02 -0.41719659945E+02 -0.17629897352E+03  0.20312281839E+03  0.91305414387E+02 0.  0.
         24    2    1    2    0    0  0.11669438358E+02  0.18809709133E+02 -0.83374601293E+01  0.84565878786E+02  0.81190477669E+02 0.  0.
        -13    1    4    4    0    0  0.11343496780E+02  0.34071788922E+02 -0.37330880296E+02  0.51799192496E+02  0.00000000000E+00 0.  1.
         14    1    4    4    0    0  0.32594157844E+00 -0.15262079789E+02  0.28993420167E+02  0.32766686289E+02  0.00000000000E+00 0. -1.
        -11    1    3    3    0    0 -0.25863734659E+02 -0.56192340255E+02 -0.11637944277E+03  0.13179790049E+03  0.00000000000E+00 0. -1.
         11    1    3    3    0    0  0.35880848280E+02  0.14472680310E+02 -0.59919530748E+02  0.71324917902E+02  0.00000000000E+00 0.  1.
          3    1    1    2  501    0 -0.21686551979E+02  0.22909950812E+02  0.41842263747E+02  0.52401788313E+02  0.00000000000E+00 0. -1.
<scales pt_clust_5="13000.00000" pt_clust_6="13000.00000" pt_clust_7="13000.00000" pt_clust_8="13000.00000" pt_clust_9="31.54635"></scales>
<clustering>
<clus scale="   31.546">  1  9  2 -1</clus>
<clus scale="   81.190">  5  6 -1 -1</clus>
<clus scale="   88.823">  1  5  2 -1</clus>
<clus scale="   91.305">  7  8 -1 -1</clus>
<clus scale="   31.546">  1  5  2 -1</clus>
</clustering>
</event>
<event>
 9    2  0.9254368E-005  0.1323903E+03  0.7546771E-02  0.1245766E+00
         21   -1    0    0  501  502  0.00000000000E+00  0.00000000000E+00  0.14165578614E+03  0.14165578614E+03  0.00000000000E+00 0. -1.
          2   -1    0    0  502    0 -0.00000000000E+00 -0.00000000000E+00 -0.40675690905E+03  0.40675690905E+03  0.00000000000E+00 0. -1.
         24    2    1    2    0    0  0.13472503098E+02  0.80711839271E+01 -0.19726496557E+03  0.21467261307E+03  0.83211848992E+02 0.  0.
         23    2    1    2    0    0  0.71960204000E+02 -0.61893422900E+02  0.80456506846E+02  0.15433468894E+03  0.91306516513E+02 0.  0.
        -11    1    3    3    0    0 -0.29786092022E+02  0.26894196898E+01 -0.32190813552E+02  0.43939648762E+02  0.00000000000E+00 0.  1.
         12    1    3    3    0    0  0.43258595120E+02  0.53817642373E+01 -0.16507415202E+03  0.17073296431E+03  0.00000000000E+00 0. -1.
        -11    1    4    4    0    0  0.47982905517E+02  0.12153875982E+02  0.51119512514E+02  0.71156731818E+02  0.00000000000E+00 0. -1.
         11    1    4    4    0    0  0.23977298483E+02 -0.74047298882E+02  0.29336994332E+02  0.83177957120E+02  0.00000000000E+00 0.  1.
          1    1    1    2  501    0 -0.85432707098E+02  0.53822238973E+02 -0.14829266418E+03  0.17940539318E+03  0.00000000000E+00 0. -1.
<scales pt_clust_5="13000.00000" pt_clust_6="13000.00000" pt_clust_7="13000.00000" pt_clust_8="13000.00000" pt_clust_9="95.86621"></scales>
<clustering>
<clus scale="   83.212">  5  6 -1 -1</clus>
<clus scale="   84.681">  2  5  1 -1</clus>
<clus scale="   91.307">  7  8 -1 -1</clus>
<clus scale="   95.866">  1  9  2 -1</clus>
<clus scale="   95.866">  1  5  2 -1</clus>
</clustering>
</event>
<event>
 9    2  0.9254368E-005  0.1469065E+03  0.7546771E-02  0.1218646E+00
          2   -1    0    0  502    0 -0.00000000000E+00  0.00000000000E+00  0.12935209461E+04  0.12935209461E+04  0.00000000000E+00 0. -1.
         21   -1    0    0  501  502  0.00000000000E+00 -0.00000000000E+00 -0.82052958021E+02  0.82052958021E+02  0.00000000000E+00 0. -1.
         24    2    1    2    0    0  0.50670017328E+01 -0.71930583708E+02  0.99890381629E+03  0.10047561570E+04  0.80786245467E+02 0.  0.
         23    2    1    2    0    0  0.49692240347E+02 -0.40555456876E+02  0.21690827683E+03  0.24563565902E+03  0.95778977812E+02 0.  0.
        -13    1    3    3    0    0 -0.30707783431E+02 -0.38124116817E+02  0.28634499777E+03  0.29049935283E+03  0.00000000000E+00 0.  1.
         14    1    3    3    0    0  0.35774785164E+02 -0.33806466891E+02  0.71255881852E+03  0.71425680418E+03  0.00000000000E+00 0. -1.
        -13    1    4    4    0    0 -0.17303330761E+02 -0.36932217300E+02  0.12742571864E+03  0.13379352638E+03  0.00000000000E+00 0.  1.
         13    1    4    4    0    0  0.66995571108E+02 -0.36232395754E+01  0.89482558199E+02  0.11184213265E+03  0.00000000000E+00 0. -1.
          1    1    1    2  501    0 -0.54759242080E+02  0.11248604058E+03 -0.43441050919E+01  0.12518208805E+03  0.00000000000E+00 0. -1.
<scales pt_clust_5="13000.00000" pt_clust_6="13000.00000" pt_clust_7="13000.00000" pt_clust_8="13000.00000" pt_clust_9="111.39082"></scales>
<clustering>
<clus scale="   80.786">  5  6 -1 -1</clus>
<clus scale="   95.779">  7  8 -1 -1</clus>
<clus scale="  108.287">  1  5  2 -1</clus>
<clus scale="  111.391">  2  9  1 -1</clus>
<clus scale="  111.391">  2  5  1 -1</clus>
</clustering>
</event>
<event>
 9    2  0.9254368E-005  0.2729305E+03  0.7546771E-02  0.1144430E+00
          2   -1    0    0  502    0 -0.00000000000E+00  0.00000000000E+00  0.18132333005E+04  0.18132333005E+04  0.00000000000E+00 0. -1.
         21   -1    0    0  501  502  0.00000000000E+00 -0.00000000000E+00 -0.55165499447E+02  0.55165499447E+02  0.00000000000E+00 0.  1.
         23    2    1    2    0    0 -0.68034978808E+01 -0.20076907424E+02  0.15988035105E+03  0.18313223966E+03  0.86754370247E+02 0.  0.
         24    2    1    2    0    0 -0.21997156454E+03  0.14485577743E+03  0.78324490446E+03  0.83020630049E+03  0.79995222051E+02 0.  0.
        -11    1    4    4    0    0 -0.19693393375E+03  0.15305979117E+03  0.73406705495E+03  0.77528363525E+03  0.00000000000E+00 0.  1.
         12    1    4    4    0    0 -0.23037630796E+02 -0.82040137388E+01  0.49177849513E+02  0.54922665238E+02  0.00000000000E+00 0. -1.
        -11    1    3    3    0    0  0.23622793210E+02  0.28033012190E+01  0.58912310444E+01  0.24507171603E+02  0.00000000000E+00 0. -1.
         11    1    3    3    0    0 -0.30426291091E+02 -0.22880208643E+02  0.15398912000E+03  0.15862506806E+03  0.00000000000E+00 0.  1.
          1    1    1    2  501    0  0.22677506242E+03 -0.12477887000E+03  0.81494254550E+03  0.85506025974E+03  0.00000000000E+00 0. -1.
<scales pt_clust_5="13000.00000" pt_clust_6="13000.00000" pt_clust_7="13000.00000" pt_clust_8="13000.00000" pt_clust_9="260.94423"></scales>
<clustering>
<clus scale="   79.995">  5  6 -1 -1</clus>
<clus scale="   86.754">  7  8 -1 -1</clus>
<clus scale="   89.307">  1  7  2 -1</clus>
<clus scale="  260.944">  2  9  1 -1</clus>
<clus scale="  260.944">  2  5  1 -1</clus>
</clustering>
</event>
<event>
 9    2  0.9254368E-005  0.1769508E+03  0.7546771E-02  0.1172055E+00
          2   -1    0    0  502    0 -0.00000000000E+00  0.00000000000E+00  0.67115491472E+03  0.67115491472E+03  0.00000000000E+00 0. -1.
         21   -1    0    0  501  502  0.00000000000E+00 -0.00000000000E+00 -0.94182051174E+02  0.94182051174E+02  0.00000000000E+00 0.  1.
         23    2    1    2    0    0 -0.33222176700E+02  0.11849919432E+03  0.12481262164E+03  0.19747192111E+03  0.90946121563E+02 0.  0.
         24    2    1    2    0    0  0.14633522295E+02 -0.19473145500E+03  0.15913740133E+03  0.26451824533E+03  0.80688971164E+02 0.  0.
        -11    1    4    4    0    0 -0.21890630247E+02 -0.98580427338E+02  0.11371597090E+03  0.15208097312E+03  0.00000000000E+00 0.  1.
         12    1    4    4    0    0  0.36524152542E+02 -0.96151027662E+02  0.45421430429E+02  0.11243727221E+03  0.00000000000E+00 0. -1.
        -11    1    3    3    0    0  0.90133963160E+01  0.17974291175E+02  0.74903009067E+02  0.77554994834E+02  0.00000000000E+00 0.  1.
         11    1    3    3    0    0 -0.42235573016E+02  0.10052490315E+03  0.49909612574E+02  0.11991692628E+03  0.00000000000E+00 0. -1.
          1    1    1    2  501    0  0.18588654406E+02  0.76232260675E+02  0.29302284057E+03  0.30334679945E+03  0.00000000000E+00 0. -1.
<scales pt_clust_5="13000.00000" pt_clust_6="13000.00000" pt_clust_7="13000.00000" pt_clust_8="13000.00000" pt_clust_9="78.46593"></scales>
<clustering>
<clus scale="   78.466">  2  9  1 -1</clus>
<clus scale="   80.689">  5  6 -1 -1</clus>
<clus scale="   90.946">  7  8 -1 -1</clus>
<clus scale="  171.904">  2  5  1 -1</clus>
<clus scale="   78.466">  2  5  1 -1</clus>
</clustering>
</event>
<event>
 9    2  0.9254368E-005  0.1038071E+03  0.7546771E-02  0.1278985E+00
         21   -1    0    0  501  502  0.00000000000E+00  0.00000000000E+00  0.46028036940E+03  0.46028036940E+03  0.00000000000E+00 0. -1.
          2   -1    0    0  502    0 -0.00000000000E+00 -0.00000000000E+00 -0.36443802222E+02  0.36443802222E+02  0.00000000000E+00 0. -1.
         24    2    1    2    0    0 -0.20351554783E+02  0.57612612456E+02  0.10461869354E+03  0.14524727006E+03  0.80114290399E+02 0.  0.
         23    2    1    2    0    0 -0.68640856121E+01 -0.23352143051E+02  0.16670917176E+03  0.19281570595E+03  0.93773718352E+02 0.  0.
        -13    1    3    3    0    0  0.18106787561E+02 -0.11215396611E+02  0.29181552716E+02  0.36127605731E+02  0.00000000000E+00 0.  1.
         14    1    3    3    0    0 -0.38458342344E+02  0.68828009066E+02  0.75437140826E+02  0.10911966433E+03  0.00000000000E+00 0. -1.
        -11    1    4    4    0    0  0.23164888080E+02 -0.19551321357E+02  0.81444915939E+01  0.31387879028E+02  0.00000000000E+00 0.  1.
         11    1    4    4    0    0 -0.30028973693E+02 -0.38008216945E+01  0.15856468017E+03  0.16142782692E+03  0.00000000000E+00 0. -1.
          1    1    1    2  501    0  0.27215640395E+02 -0.34260469404E+02  0.15250870188E+03  0.15866119562E+03  0.00000000000E+00 0. -1.
<scales pt_clust_5="13000.00000" pt_clust_6="13000.00000" pt_clust_7="13000.00000" pt_clust_8="13000.00000" pt_clust_9="43.75467"></scales>
<clustering>
<clus scale="   43.755">  1  9  2 -1</clus>
<clus scale="   80.114">  5  6 -1 -1</clus>
<clus scale="   91.655">  2  5  1 -1</clus>
<clus scale="   93.774">  7  8 -1 -1</clus>
<clus scale="   43.755">  1  5  2 -1</clus>
</clustering>
</event>
<event>
 9    2  0.9254368E-005  0.1048098E+03  0.7546771E-02  0.1276491E+00
          2   -1    0    0  502    0 -0.00000000000E+00  0.00000000000E+00  0.36081707736E+03  0.36081707736E+03  0.00000000000E+00 0. -1.
         21   -1    0    0  501  502  0.00000000000E+00 -0.00000000000E+00 -0.13117041642E+03  0.13117041642E+03  0.00000000000E+00 0. -1.
         23    2    1    2    0    0 -0.23601423214E+02 -0.51681868643E+02  0.30636792002E+03  0.32499780462E+03  0.92380884758E+02 0.  0.
         24    2    1    2    0    0 -0.79094153420E+01  0.20097497468E+02 -0.46397325444E+01  0.82217925484E+02  0.79194645635E+02 0.  0.
        -13    1    4    4    0    0  0.26174102984E+02  0.14200794438E+02 -0.27680620372E+02  0.40656647351E+02  0.00000000000E+00 0.  1.
         14    1    4    4    0    0 -0.34083518326E+02  0.58967030304E+01  0.23040887827E+02  0.41561278132E+02  0.00000000000E+00 0. -1.
        -13    1    3    3    0    0 -0.54142326141E+02 -0.43476767494E+02  0.25821890800E+03  0.26739226847E+03  0.00000000000E+00 0. -1.
         13    1    3    3    0    0  0.30540902927E+02 -0.82051011487E+01  0.48149012023E+02  0.57605536152E+02  0.00000000000E+00 0.  1.
          1    1    1    2  501    0  0.31510838556E+02  0.31584371174E+02 -0.72081526536E+02  0.84771763676E+02  0.00000000000E+00 0. -1.
<scales pt_clust_5="13000.00000" pt_clust_6="13000.00000" pt_clust_7="13000.00000" pt_clust_8="13000.00000" pt_clust_9="44.61508"></scales>
<clustering>
<clus scale="   44.615">  2  9  1 -1</clus>
<clus scale="   79.195">  5  6 -1 -1</clus>
<clus scale="   92.381">  7  8 -1 -1</clus>
<clus scale="   93.395">  2  5  1 -1</clus>
<clus scale="   44.615">  2  5  1 -1</clus>
</clustering>
</event>
<event>
 9    2  0.9254368E-005  0.1639481E+03  0.7546771E-02  0.1210188E+00
         21   -1    0    0  501  502  0.00000000000E+00  0.00000000000E+00  0.74916413780E+02  0.74916413780E+02  0.00000000000E+00 0. -1.
         -1   -1    0    0    0  501 -0.00000000000E+00 -0.00000000000E+00 -0.10567708797E+04  0.10567708797E+04  0.00000000000E+00 0.  1.
         24    2    1    2    0    0  0.46942240130E+02  0.26654316385E+01 -0.51763912453E+03  0.52596313866E+03  0.80475347473E+02 0.  0.
         23    2    1    2    0    0  0.78616875959E+02  0.10272182144E+03 -0.59688297954E+02  0.16924541122E+03  0.91372482295E+02 0.  0.
        -11    1    3    3    0    0  0.53915396451E+02  0.20986888943E+02 -0.21372651970E+03  0.22141893484E+03  0.00000000000E+00 0.  1.
         12    1    3    3    0    0 -0.69731563207E+01 -0.18321457305E+02 -0.30391260483E+03  0.30454420382E+03  0.00000000000E+00 0. -1.
        -11    1    4    4    0    0  0.29005040590E+02  0.36470483647E+02  0.23247200688E+02  0.52075146634E+02  0.00000000000E+00 0. -1.
         11    1    4    4    0    0  0.49611835370E+02  0.66251337791E+02 -0.82935498642E+02  0.11717026458E+03  0.00000000000E+00 0.  1.
         -2    1    1    2    0  502 -0.12555911609E+03 -0.10538725308E+03 -0.40452704342E+03  0.43647874359E+03  0.00000000000E+00 0.  1.
<scales pt_clust_5="13000.00000" pt_clust_6="13000.00000" pt_clust_7="13000.00000" pt_clust_8="13000.00000" pt_clust_9="136.12519"></scales>
<clustering>
<clus scale="   80.475">  5  6 -1 -1</clus>
<clus scale="   91.372">  7  8 -1 -1</clus>
<clus scale="   93.204">  2  5  1 -1</clus>
<clus scale="  136.125">  1  9  2 -1</clus>
<clus scale="  136.125">  1  5  2 -1</clus>
</clustering>
</event>
<event>
 9    2  0.9254368E-005  0.2044679E+03  0.7546771E-02  0.1174522E+00
         -1   -1    0    0    0  501 -0.00000000000E+00  0.00000000000E+00  0.27550310900E+03  0.27550310900E+03  0.00000000000E+00 0.  1.
         21   -1    0    0  501  502  0.00000000000E+00 -0.00000000000E+00 -0.24219973928E+03  0.24219973928E+03  0.00000000000E+00 0.  1.
         23    2    1    2    0    0  0.49208992490E+02 -0.13563276512E+02 -0.13798359204E+02  0.10624245142E+03  0.92149749626E+02 0.  0.
         24    2    1    2    0    0 -0.20437879602E+03 -0.27922830568E+02 -0.45527590232E+02  0.22604476704E+03  0.80455568509E+02 0.  0.
        -13    1    4    4    0    0 -0.12926568248E+03  0.12446297152E+02 -0.10486441462E+01  0.12986772745E+03  0.00000000000E+00 0.  1.
         14    1    4    4    0    0 -0.75113113547E+02 -0.40369127720E+02 -0.44478946086E+02  0.96177039592E+02  0.00000000000E+00 0. -1.
        -11    1    3    3    0    0 -0.19377296939E+02  0.19555269741E+02  0.45412045782E+01  0.27901805503E+02  0.00000000000E+00 0. -1.
         11    1    3    3    0    0  0.68586289429E+02 -0.33118546253E+02 -0.18339563782E+02  0.78340645921E+02  0.00000000000E+00 0.  1.
         -2    1    1    2    0  502  0.15516980353E+03  0.41486107080E+02  0.92629319156E+02  0.18541562981E+03  0.00000000000E+00 0.  1.
<scales pt_clust_5="13000.00000" pt_clust_6="13000.00000" pt_clust_7="13000.00000" pt_clust_8="13000.00000" pt_clust_9="187.97361"></scales>
<clustering>
<clus scale="   80.456">  5  6 -1 -1</clus>
<clus scale="   92.150">  7  8 -1 -1</clus>
<clus scale="  105.343">  1  7  2 -1</clus>
<clus scale="  187.974">  2  9  1 -1</clus>
<clus scale="  187.974">  2  5  1 -1</clus>
</clustering>
</event>
<event>
 9    2  0.9254368E-005  0.2031159E+03  0.7546771E-02  0.1148050E+00
         21   -1    0    0  501  502  0.00000000000E+00  0.00000000000E+00  0.15316411185E+04  0.15316411185E+04  0.00000000000E+00 0.  1.
         -3   -1    0    0    0  501 -0.00000000000E+00 -0.00000000000E+00 -0.36041808694E+02  0.36041808694E+02  0.00000000000E+00 0.  1.
         23    2    1    2    0    0  0.14164119839E+02 -0.16716045001E+03  0.49630615019E+03  0.53171192326E+03  0.90854478644E+02 0.  0.
         24    2    1    2    0    0  0.22287980606E+02  0.20441935694E+03  0.79140235956E+03  0.82164516199E+03  0.80616685263E+02 0.  0.
        -11    1    4    4    0    0  0.52575937533E+02  0.12013513908E+03  0.48603415082E+03  0.50341421971E+03  0.00000000000E+00 0.  1.
         12    1    4    4    0    0 -0.30287956927E+02  0.84284217860E+02  0.30536820874E+03  0.31823094228E+03  0.00000000000E+00 0. -1.
        -13    1    3    3    0    0  0.14268057694E+02 -0.10621723595E+03  0.17919556406E+03  0.20879829708E+03  0.00000000000E+00 0. -1.
         13    1    3    3    0    0 -0.10393785482E+00 -0.60943214052E+02  0.31711058613E+03  0.32291362618E+03  0.00000000000E+00 0.  1.
         -4    1    1    2    0  502 -0.36452100445E+02 -0.37258906930E+02  0.20789080002E+03  0.21432584190E+03  0.00000000000E+00 0.  1.
<scales pt_clust_5="13000.00000" pt_clust_6="13000.00000" pt_clust_7="13000.00000" pt_clust_8="13000.00000" pt_clust_9="52.12468"></scales>
<clustering>
<clus scale="   52.125">  1  9  2 -1</clus>
<clus scale="   80.617">  5  6 -1 -1</clus>
<clus scale="   90.854">  7  8 -1 -1</clus>
<clus scale="  198.748">  1  5  2 -1</clus>
<clus scale="   52.125">  1  5  2 -1</clus>
</clustering>
</event>
<event>
 9    2  0.9254368E-005  0.1878194E+03  0.7546771E-02  0.1185011E+00
          2   -1    0    0  502    0 -0.00000000000E+00  0.00000000000E+00  0.45621821331E+03  0.45621821331E+03  0.00000000000E+00 0. -1.
         21   -1    0    0  501  502  0.00000000000E+00 -0.00000000000E+00 -0.11614305498E+03  0.11614305498E+03  0.00000000000E+00 0. -1.
         24    2    1    2    0    0  0.69254755657E+02  0.17711723893E+02  0.10088504157E+03  0.14731879742E+03  0.80094382558E+02 0.  0.
         23    2    1    2    0    0  0.42447263495E+02 -0.14358749032E+03  0.13652145015E+03  0.22790570424E+03  0.10432528993E+03 0.  0.
        -11    1    3    3    0    0  0.57366870567E+02  0.27877791101E+02  0.22880945575E+02  0.67761838418E+02  0.00000000000E+00 0.  1.
         12    1    3    3    0    0  0.11887885090E+02 -0.10166067208E+02  0.78004095993E+02  0.79556959005E+02  0.00000000000E+00 0. -1.
        -13    1    4    4    0    0  0.72982646128E+02 -0.12893453144E+03  0.10456755868E+03  0.18134209209E+03  0.00000000000E+00 0. -1.
         13    1    4    4    0    0 -0.30535382633E+02 -0.14652958878E+02  0.31953891474E+02  0.46563612153E+02  0.00000000000E+00 0.  1.
          1    1    1    2  501    0 -0.11170201915E+03  0.12587576643E+03  0.10266866661E+03  0.19713676663E+03  0.00000000000E+00 0. -1.
<scales pt_clust_5="13000.00000" pt_clust_6="13000.00000" pt_clust_7="13000.00000" pt_clust_8="13000.00000" pt_clust_9="156.18049"></scales>
<clustering>
<clus scale="   80.094">  5  6 -1 -1</clus>
<clus scale="  104.325">  7  8 -1 -1</clus>
<clus scale="  107.355">  1  5  2 -1</clus>
<clus scale="  156.180">  2  9  1 -1</clus>
<clus scale="  156.180">  2  5  1 -1</clus>
</clustering>
</event>
<event>
 9    2  0.9254368E-005  0.1284333E+03  0.7546771E-02  0.1252745E+00
         21   -1    0    0  501  502  0.00000000000E+00  0.00000000000E+00  0.12007510452E+03  0.12007510452E+03  0.00000000000E+00 0. -1.
          2   -1    0    0  502    0 -0.00000000000E+00 -0.00000000000E+00 -0.45761304340E+03  0.45761304340E+03  0.00000000000E+00 0. -1.
         24    2    1    2    0    0  0.21116886258E+01  0.37991475866E+01 -0.34565309524E+03  0.35494107406E+03  0.80549432399E+02 0.  0.
         23    2    1    2    0    0  0.72517867753E+02  0.53086668403E+02 -0.10599045222E+02  0.12706119148E+03  0.89191765954E+02 0.  0.
        -11    1    3    3    0    0 -0.70383915650E+01  0.31853564218E+02 -0.64860339116E+02  0.72602011676E+02  0.00000000000E+00 0.  1.
         12    1    3    3    0    0  0.91500801908E+01 -0.28054416632E+02 -0.28079275612E+03  0.28233906239E+03  0.00000000000E+00 0. -1.
        -13    1    4    4    0    0  0.87153057036E+02  0.24000195829E+02 -0.21140683644E+02  0.92836378944E+02  0.00000000000E+00 0. -1.
         13    1    4    4    0    0 -0.14635189284E+02  0.29086472575E+02  0.10541638421E+02  0.34224812531E+02  0.00000000000E+00 0.  1.
          1    1    1    2  501    0 -0.74629556378E+02 -0.56885815990E+02  0.18714201578E+02  0.95685882380E+02  0.00000000000E+00 0. -1.
<scales pt_clust_5="13000.00000" pt_clust_6="13000.00000" pt_clust_7="13000.00000" pt_clust_8="13000.00000" pt_clust_9="92.41187"></scales>
<clustering>
<clus scale="   80.549">  5  6 -1 -1</clus>
<clus scale="   80.667">  2  5  1 -1</clus>
<clus scale="   89.192">  7  8 -1 -1</clus>
<clus scale="   92.412">  1  9  2 -1</clus>
<clus scale="   92.412">  1  5  2 -1</clus>
</clustering>
</event>
<event>
 9    2  0.9254368E-005  0.1048554E+03  0.7546771E-02  0.1276036E+00
         21   -1    0    0  501  502  0.00000000000E+00  0.00000000000E+00  0.12575781799E+02  0.12575781799E+02  0.00000000000E+00 0. -1.
          2   -1    0    0  502    0 -0.00000000000E+00 -0.00000000000E+00 -0.21144408458E+04  0.21144408458E+04  0.00000000000E+00 0. -1.
         24    2    1    2    0    0 -0.58791503620E+02  0.49545381423E+02 -0.93246951192E+03  0.93888594140E+03  0.78078387417E+02 0.  0.
         23    2    1    2    0    0  0.33856129773E+02  0.45444070303E+02 -0.48049577559E+03  0.49226599327E+03  0.90764622657E+02 0.  0.
        -11    1    3    3    0    0 -0.25589982523E+02 -0.37611238423E+01 -0.79371202067E+02  0.83479224814E+02  0.00000000000E+00 0.  1.
         12    1    3    3    0    0 -0.33201521097E+02  0.53306505265E+02 -0.85309830985E+03  0.85540671658E+03  0.00000000000E+00 0. -1.
        -11    1    4    4    0    0  0.49308906822E+02  0.65294558096E+02 -0.37198835760E+03  0.38088067134E+03  0.00000000000E+00 0.  1.
         11    1    4    4    0    0 -0.15452777048E+02 -0.19850487793E+02 -0.10850741799E+03  0.11138532193E+03  0.00000000000E+00 0. -1.
          1    1    1    2  501    0  0.24935373847E+02 -0.94989451725E+02 -0.68889977648E+03  0.69586469291E+03  0.00000000000E+00 0. -1.
<scales pt_clust_5="13000.00000" pt_clust_6="13000.00000" pt_clust_7="13000.00000" pt_clust_8="13000.00000" pt_clust_9="98.20783"></scales>
<clustering>
<clus scale="   78.078">  5  6 -1 -1</clus>
<clus scale="   90.765">  7  8 -1 -1</clus>
<clus scale="   98.208">  1  9  2 -1</clus>
<clus scale="   94.089">  2  5  1 -1</clus>
<clus scale="   98.208">  1  5  2 -1</clus>
</clustering>
</event>
<event>
 9    2  0.9254368E-005  0.1425086E+03  0.7546771E-02  0.1212585E+00
          2   -1    0    0  502    0 -0.00000000000E+00  0.00000000000E+00  0.16388921421E+03  0.16388921421E+03  0.00000000000E+00 0. -1.
         21   -1    0    0  501  502  0.00000000000E+00 -0.00000000000E+00 -0.14948978158E+03  0.14948978158E+03  0.00000000000E+00 0. -1.
         24    2    1    2    0    0  0.38789723348E+02  0.90612079875E+02  0.18782612564E+02  0.12867698695E+03  0.80559225293E+02 0.  0.
         23    2    1    2    0    0 -0.28284537658E+02 -0.11948419941E+03 -0.29637580657E+01  0.15394533523E+03  0.92811062901E+02 0.  0.
        -11    1    3    3    0    0 -0.18543349168E+02  0.86510965188E+01 -0.12374908831E+02  0.23913085077E+02  0.00000000000E+00 0.  1.
         12    1    3    3    0    0  0.57333072515E+02  0.81960983356E+02  0.31157521394E+02  0.10476390188E+03  0.00000000000E+00 0. -1.
        -11    1    4    4    0    0 -0.16432831147E+02  0.12262693704E+02  0.59979426119E+01  0.21363213990E+02  0.00000000000E+00 0.  1.
         11    1    4    4    0    0 -0.11851706510E+02 -0.13174689312E+03 -0.89617006776E+01  0.13258212124E+03  0.00000000000E+00 0. -1.
          1    1    1    2  501    0 -0.10505185690E+02  0.28872119537E+02 -0.14194218745E+01  0.30756673607E+02  0.00000000000E+00 0. -1.
<scales pt_clust_5="13000.00000" pt_clust_6="13000.00000" pt_clust_7="13000.00000" pt_clust_8="13000.00000" pt_clust_9="30.72390"></scales>
<clustering>
<clus scale="   30.724">  2  9  1 -1</clus>
<clus scale="   80.559">  5  6 -1 -1</clus>
<clus scale="   92.811">  7  8 -1 -1</clus>
<clus scale="  134.850">  1  5  2 -1</clus>
<clus scale="   30.724">  2  5  1 -1</clus>
</clustering>
</event>
<event>
 9    2  0.9254368E-005  0.1036252E+03  0.7546771E-02  0.1281916E+00
         21   -1    0    0  501  502  0.00000000000E+00  0.00000000000E+00  0.15519157576E+03  0.15519157576E+03  0.00000000000E+00 0. -1.
          2   -1    0    0  502    0 -0.00000000000E+00 -0.00000000000E+00 -0.43495505342E+03  0.43495505342E+03  0.00000000000E+00 0. -1.
         24    2    1    2    0    0 -0.21430530686E+02  0.52814304254E+02 -0.34367776735E+03  0.35570597015E+03  0.71858966397E+02 0.  0.
         23    2    1    2    0    0  0.48172336731E+02  0.28536660943E+02 -0.26195435855E+02  0.11013110040E+03  0.91146823153E+02 0.  0.
        -11    1    3    3    0    0  0.11773747217E+02  0.56924279813E+02 -0.20880999982E+03  0.21675011137E+03  0.00000000000E+00 0.  1.
         12    1    3    3    0    0 -0.33204277903E+02 -0.41099755594E+01 -0.13486776753E+03  0.13895585878E+03  0.00000000000E+00 0. -1.
        -13    1    4    4    0    0  0.29945624098E+02 -0.15741031961E+02  0.23445229205E+02  0.41160651869E+02  0.00000000000E+00 0.  1.
         13    1    4    4    0    0  0.18226712633E+02  0.44277692904E+02 -0.49640665060E+02  0.68970448526E+02  0.00000000000E+00 0. -1.
          1    1    1    2  501    0 -0.26741806045E+02 -0.81350965197E+02  0.90109725547E+02  0.12430955863E+03  0.00000000000E+00 0. -1.
<scales pt_clust_5="13000.00000" pt_clust_6="13000.00000" pt_clust_7="13000.00000" pt_clust_8="13000.00000" pt_clust_9="85.63354"></scales>
<clustering>
<clus scale="   71.859">  5  6 -1 -1</clus>
<clus scale="   85.634">  1  9  2 -1</clus>
<clus scale="   87.144">  2  5  1 -1</clus>
<clus scale="   91.147">  7  8 -1 -1</clus>
<clus scale="   85.634">  1  5  2 -1</clus>
</clustering>
</event>
<event>
 9    2  0.9254368E-005  0.1375437E+03  0.7546771E-02  0.1219683E+00
         -1   -1    0    0    0  501 -0.00000000000E+00  0.00000000000E+00  0.88831067548E+03  0.88831067548E+03  0.00000000000E+00 0.  1.
         21   -1    0    0  501  502  0.00000000000E+00 -0.00000000000E+00 -0.16570496239E+03  0.16570496239E+03  0.00000000000E+00 0.  1.
         24    2    1    2    0    0  0.68591977216E+02  0.62169494592E+02  0.43282278316E+03  0.44976193032E+03  0.79876948801E+02 0.  0.
         23    2    1    2    0    0 -0.62839103735E+02 -0.98332466170E+02  0.43219311943E+03  0.45721113500E+03  0.92914490888E+02 0.  0.
        -13    1    3    3    0    0  0.72400659341E+02  0.53415905525E+02  0.23386479540E+03  0.25057505255E+03  0.00000000000E+00 0.  1.
         14    1    3    3    0    0 -0.38086821247E+01  0.87535890669E+01  0.19895798776E+03  0.19918687777E+03  0.00000000000E+00 0. -1.
        -13    1    4    4    0    0 -0.60201048042E+02 -0.54509129300E+02  0.38195346643E+03  0.39049182051E+03  0.00000000000E+00 0.  1.
         13    1    4    4    0    0 -0.26380556939E+01 -0.43823336870E+02  0.50239653000E+02  0.66719314488E+02  0.00000000000E+00 0. -1.
         -2    1    1    2    0  502 -0.57528734810E+01  0.36162971578E+02 -0.14241018950E+03  0.14704257255E+03  0.00000000000E+00 0.  1.
<scales pt_clust_5="13000.00000" pt_clust_6="13000.00000" pt_clust_7="13000.00000" pt_clust_8="13000.00000" pt_clust_9="36.61770"></scales>
<clustering>
<clus scale="   36.618">  2  9  1 -1</clus>
<clus scale="   79.877">  5  6 -1 -1</clus>
<clus scale="   92.914">  7  8 -1 -1</clus>
<clus scale="  129.095">  1  5  2 -1</clus>
<clus scale="   36.618">  2  5  1 -1</clus>
</clustering>
</event>
<event>
 9    2  0.9254368E-005  0.1145513E+03  0.7546771E-02  0.1258081E+00
         21   -1    0    0  501  502  0.00000000000E+00  0.00000000000E+00  0.68120830727E+02  0.68120830727E+02  0.00000000000E+00 0.  1.
          2   -1    0    0  502    0 -0.00000000000E+00 -0.00000000000E+00 -0.24672207594E+03  0.24672207594E+03  0.00000000000E+00 0. -1.
         23    2    1    2    0    0  0.34577160629E+02 -0.43486982597E+02 -0.13067000067E+03  0.17106025067E+03  0.95395296501E+02 0.  0.
         24    2    1    2    0    0 -0.49301146472E+02  0.61298906567E+02 -0.41413150002E+02  0.11977128471E+03  0.80261775817E+02 0.  0.
        -13    1    4    4    0    0 -0.30307077476E+02  0.14470845309E+02  0.20889517544E+02  0.39551185220E+02  0.00000000000E+00 0.  1.
         14    1    4    4    0    0 -0.18994068995E+02  0.46828061258E+02 -0.62302667546E+02  0.80220099486E+02  0.00000000000E+00 0. -1.
        -11    1    3    3    0    0  0.35722331231E+02 -0.85152319139E+01 -0.98358001537E+00  0.36736379146E+02  0.00000000000E+00 0.  1.
         11    1    3    3    0    0 -0.11451706015E+01 -0.34971750683E+02 -0.12968642065E+03  0.13432387153E+03  0.00000000000E+00 0. -1.
          1    1    1    2  501    0  0.14723985842E+02 -0.17811923970E+02 -0.65180945474E+01  0.24011371288E+02  0.00000000000E+00 0. -1.
<scales pt_clust_5="13000.00000" pt_clust_6="13000.00000" pt_clust_7="13000.00000" pt_clust_8="13000.00000" pt_clust_9="23.10975"></scales>
<clustering>
<clus scale="   23.110">  1  9  2 -1</clus>
<clus scale="   80.262">  5  6 -1 -1</clus>
<clus scale="   95.395">  7  8 -1 -1</clus>
<clus scale="  102.292">  1  5  2 -1</clus>
<clus scale="   23.110">  1  5  2 -1</clus>
</clustering>
</event>
<event>
 9    2  0.9254368E-005  0.1383111E+03  0.7546771E-02  0.1217809E+00
         -3   -1    0    0    0  501 -0.00000000000E+00  0.00000000000E+00  0.75492916027E+03  0.75492916027E+03  0.00000000000E+00 0.  1.
         21   -1    0    0  501  502  0.00000000000E+00 -0.00000000000E+00 -0.34192774735E+02  0.34192774735E+02  0.00000000000E+00 0.  1.
         23    2    1    2    0    0 -0.10328458719E+03  0.20030324201E+02  0.43173568855E+03  0.45410119271E+03  0.93505446959E+02 0.  0.
         24    2    1    2    0    0  0.88105618289E+02 -0.42341409141E+02  0.17187368231E+03  0.21482538808E+03  0.83988033627E+02 0.  0.
        -11    1    4    4    0    0  0.98527479847E+02 -0.49738319590E+02  0.16880077816E+03  0.20168110330E+03  0.00000000000E+00 0.  1.
         12    1    4    4    0    0 -0.10421861558E+02  0.73969104494E+01  0.30729041471E+01  0.13144284782E+02  0.00000000000E+00 0. -1.
        -13    1    3    3    0    0 -0.12352079415E+02 -0.31326033354E+02  0.14729621311E+03  0.15109622308E+03  0.00000000000E+00 0.  1.
         13    1    3    3    0    0 -0.90932507775E+02  0.51356357555E+02  0.28443947544E+03  0.30300496963E+03  0.00000000000E+00 0. -1.
         -4    1    1    2    0  502  0.15178968901E+02  0.22311084940E+02  0.11712701468E+03  0.12019535421E+03  0.00000000000E+00 0.  1.
<scales pt_clust_5="13000.00000" pt_clust_6="13000.00000" pt_clust_7="13000.00000" pt_clust_8="13000.00000" pt_clust_9="26.98493"></scales>
<clustering>
<clus scale="   26.985">  2  9  1 -1</clus>
<clus scale="   83.988">  5  6 -1 -1</clus>
<clus scale="   93.505">  7  8 -1 -1</clus>
<clus scale="  132.063">  2  5  1 -1</clus>
<clus scale="   26.985">  2  5  1 -1</clus>
</clustering>
</event>
<event>
 9    2  0.9778294E-005  0.2238893E+03  0.7546771E-02  0.1163070E+00
         21   -1    0    0  501  502  0.00000000000E+00  0.00000000000E+00  0.26739391762E+03  0.26739391762E+03  0.00000000000E+00 0. -1.
         -1   -1    0    0    0  501 -0.00000000000E+00 -0.00000000000E+00 -0.58224131929E+03  0.58224131929E+03  0.00000000000E+00 0.  1.
         24    2    1    2    0    0 -0.21901048237E+02 -0.11042339268E+02 -0.10401230232E+03  0.14731589031E+03  0.10139932610E+03 0.  0.
         23    2    1    2    0    0 -0.27730000596E+02  0.20159281708E+03  0.16445537437E+03  0.27850846276E+03  0.95460865503E+02 0.  0.
        -11    1    3    3    0    0  0.39024322405E+02  0.60848211907E+01 -0.52601442290E+02  0.65778678301E+02  0.00000000000E+00 0.  1.
         12    1    3    3    0    0 -0.60925370642E+02 -0.17127160459E+02 -0.51410860034E+02  0.81537212012E+02  0.00000000000E+00 0. -1.
        -11    1    4    4    0    0 -0.43977445275E+02  0.11037467629E+03  0.13810595798E+03  0.18218079067E+03  0.00000000000E+00 0. -1.
         11    1    4    4    0    0  0.16247444679E+02  0.91218140789E+02  0.26349416388E+02  0.96327672096E+02  0.00000000000E+00 0.  1.
         -2    1    1    2    0  502  0.49631048833E+02 -0.19055047781E+03 -0.37529047371E+03  0.42381088384E+03  0.00000000000E+00 0.  1.
<scales pt_clust_5="13000.00000" pt_clust_6="13000.00000" pt_clust_7="13000.00000" pt_clust_8="13000.00000" pt_clust_9="202.51835"></scales>
<clustering>
<clus scale="   95.461">  7  8 -1 -1</clus>
<clus scale="  101.399">  5  6 -1 -1</clus>
<clus scale="  104.324">  2  5  1 -1</clus>
<clus scale="  202.518">  1  9  2 -1</clus>
<clus scale="  202.518">  1  5  2 -1</clus>
</clustering>
</event>
<event>
 9    2  0.9254368E-005  0.1733723E+03  0.7546771E-02  0.1176300E+00
          2   -1    0    0  502    0 -0.00000000000E+00  0.00000000000E+00  0.13494292029E+04  0.13494292029E+04  0.00000000000E+00 0. -1.
         21   -1    0    0  501  502  0.00000000000E+00 -0.00000000000E+00 -0.33318118014E+02  0.33318118014E+02  0.00000000000E+00 0. -1.
         24    2    1    2    0    0  0.70064242894E+02 -0.12110250379E+03  0.77223361124E+03  0.78851207680E+03  0.76365767066E+02 0.  0.
         23    2    1    2    0    0 -0.85002840402E+02  0.13741811654E+03  0.54096679471E+03  0.57192307325E+03  0.91332946427E+02 0.  0.
        -13    1    3    3    0    0 -0.13209707102E+02 -0.33736602803E+02  0.12606374439E+03  0.13116677316E+03  0.00000000000E+00 0.  1.
         14    1    3    3    0    0  0.83273949996E+02 -0.87365900985E+02  0.64616986684E+03  0.65734530364E+03  0.00000000000E+00 0. -1.
        -11    1    4    4    0    0 -0.66012909800E+02  0.28130394351E+02  0.26375461817E+03  0.27334140183E+03  0.00000000000E+00 0.  1.
         11    1    4    4    0    0 -0.18989930601E+02  0.10928772219E+03  0.27721217654E+03  0.29858167142E+03  0.00000000000E+00 0. -1.
          1    1    1    2  501    0  0.14938597507E+02 -0.16315612755E+02  0.29106788897E+01  0.22312170819E+02  0.00000000000E+00 0. -1.
<scales pt_clust_5="13000.00000" pt_clust_6="13000.00000" pt_clust_7="13000.00000" pt_clust_8="13000.00000" pt_clust_9="22.12150"></scales>
<clustering>
<clus scale="   22.122">  2  9  1 -1</clus>
<clus scale="   76.366">  5  6 -1 -1</clus>
<clus scale="   91.333">  7  8 -1 -1</clus>
<clus scale="  165.976">  1  5  2 -1</clus>
<clus scale="   22.122">  2  5  1 -1</clus>
</clustering>
</event>
<event>
 9    2  0.9254368E-005  0.1079720E+03  0.7546771E-02  0.1267436E+00
          2   -1    0    0  502    0 -0.00000000000E+00  0.00000000000E+00  0.36176309713E+03  0.36176309713E+03  0.00000000000E+00 0. -1.
         21   -1    0    0  501  502  0.00000000000E+00 -0.00000000000E+00 -0.61327289964E+02  0.61327289964E+02  0.00000000000E+00 0.  1.
         23    2    1    2    0    0 -0.64474845881E+02  0.12921277188E+02  0.24473280505E+03  0.26949468818E+03  0.91702104309E+02 0.  0.
         24    2    1    2    0    0  0.39750155761E+02 -0.11373838256E+02  0.76635152682E+02  0.12116331084E+03  0.84250591614E+02 0.  0.
        -11    1    4    4    0    0  0.60975712396E+02  0.77042039420E+00  0.28798979963E+02  0.67438952369E+02  0.00000000000E+00 0.  1.
         12    1    4    4    0    0 -0.21225556635E+02 -0.12144258650E+02  0.47836172719E+02  0.53724358471E+02  0.00000000000E+00 0. -1.
        -13    1    3    3    0    0 -0.82249515205E+02 -0.77461393081E+01  0.15405679702E+03  0.17480984564E+03  0.00000000000E+00 0.  1.
         13    1    3    3    0    0  0.17774669324E+02  0.20667416496E+02  0.90676008032E+02  0.94684842540E+02  0.00000000000E+00 0. -1.
          1    1    1    2  501    0  0.24724690120E+02 -0.15474389327E+01 -0.20932150567E+02  0.32432388073E+02  0.00000000000E+00 0. -1.
<scales pt_clust_5="13000.00000" pt_clust_6="13000.00000" pt_clust_7="13000.00000" pt_clust_8="13000.00000" pt_clust_9="24.77307"></scales>
<clustering>
<clus scale="   24.773">  2  9  1 -1</clus>
<clus scale="   84.251">  5  6 -1 -1</clus>
<clus scale="   91.702">  7  8 -1 -1</clus>
<clus scale="  101.719">  2  5  1 -1</clus>
<clus scale="   24.773">  2  5  1 -1</clus>
</clustering>
</event>
<event>
 9    2  0.9254368E-005  0.1945161E+03  0.7546771E-02  0.1162178E+00
         -1   -1    0    0    0  501 -0.00000000000E+00  0.00000000000E+00  0.17122299046E+03  0.17122299046E+03  0.00000000000E+00 0.  1.
         21   -1    0    0  501  502  0.00000000000E+00 -0.00000000000E+00 -0.58688175880E+03  0.58688175880E+03  0.00000000000E+00 0. -1.
         23    2    1    2    0    0 -0.10352405513E+03 -0.83987930899E+02 -0.24563760130E+03  0.29447045685E+03  0.92756758555E+02 0.  0.
         24    2    1    2    0    0 -0.12020640776E+02 -0.14715168402E+03 -0.10642189919E+03  0.19751220538E+03  0.76728982356E+02 0.  0.
        -11    1    4    4    0    0 -0.38746061784E+02 -0.41182154429E+02 -0.28737388969E+02  0.63427633347E+02  0.00000000000E+00 0.  1.
         12    1    4    4    0    0  0.26725421008E+02 -0.10596952959E+03 -0.77684510223E+02  0.13408457203E+03  0.00000000000E+00 0. -1.
        -11    1    3    3    0    0 -0.50897605025E+01 -0.49336933872E+02 -0.12769282823E+03  0.13698721505E+03  0.00000000000E+00 0.  1.
         11    1    3    3    0    0 -0.98434294624E+02 -0.34650997027E+02 -0.11794477308E+03  0.15748324181E+03  0.00000000000E+00 0. -1.
         -2    1    1    2    0  502  0.11554469590E+03  0.23113961491E+03 -0.63599267838E+02  0.26612208703E+03  0.00000000000E+00 0.  1.
<scales pt_clust_5="13000.00000" pt_clust_6="13000.00000" pt_clust_7="13000.00000" pt_clust_8="13000.00000" pt_clust_9="178.74341"></scales>
<clustering>
<clus scale="   76.729">  5  6 -1 -1</clus>
<clus scale="   92.757">  7  8 -1 -1</clus>
<clus scale="  162.404">  1  7  2 -1</clus>
<clus scale="  178.743">  2  9  1 -1</clus>
<clus scale="  178.743">  2  5  1 -1</clus>
</clustering>
</event>
<event>
 9    2  0.9254368E-005  0.1050778E+03  0.7546771E-02  0.1277743E+00
         21   -1    0    0  501  502  0.00000000000E+00  0.00000000000E+00  0.87086520695E+02  0.87086520695E+02  0.00000000000E+00 0. -1.
         -1   -1    0    0    0  501 -0.00000000000E+00 -0.00000000000E+00 -0.33980588378E+03  0.33980588378E+03  0.00000000000E+00 0.  1.
         24    2    1    2    0    0  0.11274533141E+02  0.44566760938E+02 -0.15230964884E+03  0.17511473109E+03  0.73168494844E+02 0.  0.
         23    2    1    2    0    0 -0.22631785555E+02 -0.95067771133E+02  0.60607969990E+01  0.13339140316E+03  0.90589482561E+02 0.  0.
        -13    1    3    3    0    0  0.20156747116E+02  0.43495263506E+02 -0.39959940305E+02  0.62409368134E+02  0.00000000000E+00 0.  1.
         14    1    3    3    0    0 -0.88822139743E+01  0.10714974328E+01 -0.11234970853E+03  0.11270536295E+03  0.00000000000E+00 0. -1.
        -13    1    4    4    0    0 -0.18978748386E+02 -0.49778689234E+02  0.47888402174E+02  0.71633859696E+02  0.00000000000E+00 0. -1.
         13    1    4    4    0    0 -0.36530371692E+01 -0.45289081899E+02 -0.41827605175E+02  0.61757543462E+02  0.00000000000E+00 0.  1.
         -2    1    1    2    0  502  0.11357252414E+02  0.50501010195E+02 -0.10647051125E+03  0.11838627023E+03  0.00000000000E+00 0.  1.
<scales pt_clust_5="13000.00000" pt_clust_6="13000.00000" pt_clust_7="13000.00000" pt_clust_8="13000.00000" pt_clust_9="51.76236"></scales>
<clustering>
<clus scale="   51.762">  1  9  2 -1</clus>
<clus scale="   73.168">  5  6 -1 -1</clus>
<clus scale="   90.490">  2  5  1 -1</clus>
<clus scale="   90.589">  7  8 -1 -1</clus>
<clus scale="   51.762">  1  5  2 -1</clus>
</clustering>
</event>
<event>
 9    2  0.9254368E-005  0.1032523E+03  0.7546771E-02  0.1278391E+00
          2   -1    0    0  502    0 -0.00000000000E+00  0.00000000000E+00  0.11071644455E+04  0.11071644455E+04  0.00000000000E+00 0. -1.
         21   -1    0    0  501  502  0.00000000000E+00 -0.00000000000E+00 -0.39296573917E+02  0.39296573917E+02  0.00000000000E+00 0. -1.
         24    2    1    2    0    0  0.54094883920E+02 -0.10729940669E+02  0.91939111460E+03  0.92470197331E+03  0.82172560723E+02 0.  0.
         23    2    1    2    0    0  0.86630924134E+01 -0.73833619433E+01  0.11619878423E+03  0.14889943558E+03  0.92408447963E+02 0.  0.
        -13    1    3    3    0    0  0.10230189647E+02 -0.19700683229E+02  0.57310162231E+02  0.61459160382E+02  0.00000000000E+00 0.  1.
         14    1    3    3    0    0  0.43864694273E+02  0.89707425605E+01  0.86208095237E+03  0.86324281293E+03  0.00000000000E+00 0. -1.
        -13    1    4    4    0    0  0.44987778023E+02  0.16200247700E+02  0.76113869249E+02  0.89886980642E+02  0.00000000000E+00 0. -1.
         13    1    4    4    0    0 -0.36324685610E+02 -0.23583609643E+02  0.40084914983E+02  0.59012454936E+02  0.00000000000E+00 0.  1.
          1    1    1    2  501    0 -0.62757976334E+02  0.18113302612E+02  0.32277972787E+02  0.72859610569E+02  0.00000000000E+00 0. -1.
<scales pt_clust_5="13000.00000" pt_clust_6="13000.00000" pt_clust_7="13000.00000" pt_clust_8="13000.00000" pt_clust_9="65.31964"></scales>
<clustering>
<clus scale="   65.320">  2  9  1 -1</clus>
<clus scale="   82.173">  5  6 -1 -1</clus>
<clus scale="   92.408">  7  8 -1 -1</clus>
<clus scale="   94.202">  1  5  2 -1</clus>
<clus scale="   65.320">  2  5  1 -1</clus>
</clustering>
</event>
<event>
 9    2  0.9254368E-005  0.1217129E+03  0.7546771E-02  0.1242790E+00
          2   -1    0    0  502    0 -0.00000000000E+00  0.00000000000E+00  0.13097873273E+03  0.13097873273E+03  0.00000000000E+00 0. -1.
         21   -1    0    0  501  502  0.00000000000E+00 -0.00000000000E+00 -0.19900944444E+03  0.19900944444E+03  0.00000000000E+00 0.  1.
         24    2    1    2    0    0 -0.18125626513E+02 -0.68819036903E+02  0.39508153092E+02  0.11666609974E+03  0.83579222845E+02 0.  0.
         23    2    1    2    0    0  0.34590047343E+02  0.10494612372E+03 -0.92818650387E+02  0.17097909374E+03  0.91697264841E+02 0.  0.
        -11    1    3    3    0    0  0.98799844836E+01 -0.57844559920E+02  0.57051966038E+02  0.81844572420E+02  0.00000000000E+00 0.  1.
         12    1    3    3    0    0 -0.28005610997E+02 -0.10974476983E+02 -0.17543812946E+02  0.34821527322E+02  0.00000000000E+00 0. -1.
        -13    1    4    4    0    0  0.57402736027E+02  0.49236525423E+02 -0.23552333418E+02  0.79208723942E+02  0.00000000000E+00 0. -1.
         13    1    4    4    0    0 -0.22812688683E+02  0.55709598293E+02 -0.69266316969E+02  0.91770369801E+02  0.00000000000E+00 0.  1.
          1    1    1    2  501    0 -0.16464420830E+02 -0.36127086814E+02 -0.14720214410E+02  0.42342983683E+02  0.00000000000E+00 0. -1.
<scales pt_clust_5="13000.00000" pt_clust_6="13000.00000" pt_clust_7="13000.00000" pt_clust_8="13000.00000" pt_clust_9="39.70193"></scales>
<clustering>
<clus scale="   39.702">  2  9  1 -1</clus>
<clus scale="   83.579">  5  6 -1 -1</clus>
<clus scale="   91.697">  7  8 -1 -1</clus>
<clus scale="  115.720">  1  5  2 -1</clus>
<clus scale="   39.702">  2  5  1 -1</clus>
</clustering>
</event>
<event>
 9    2  0.9254368E-005  0.9682644E+02  0.7546771E-02  0.1292798E+00
          2   -1    0    0  502    0 -0.00000000000E+00  0.00000000000E+00  0.54558947693E+03  0.54558947693E+03  0.00000000000E+00 0. -1.
         21   -1    0    0  501  502  0.00000000000E+00 -0.00000000000E+00 -0.45597885849E+02  0.45597885849E+02  0.00000000000E+00 0.  1.
         24    2    1    2    0    0 -0.13245244626E+02  0.31521509541E+02  0.43569992560E+03  0.44439353803E+03  0.80511796699E+02 0.  0.
         23    2    1    2    0    0 -0.19405805465E+02 -0.33860954527E+02  0.51927000998E+02  0.11180169702E+03  0.90994815772E+02 0.  0.
        -13    1    3    3    0    0 -0.44682586003E+02  0.96601312159E+01  0.17391129150E+03  0.17981932304E+03  0.00000000000E+00 0.  1.
         14    1    3    3    0    0  0.31437341377E+02  0.21861378325E+02  0.26178863410E+03  0.26457421499E+03  0.00000000000E+00 0. -1.
        -11    1    4    4    0    0 -0.15133442809E+02 -0.65338334703E+02  0.32081536459E+02  0.74346109882E+02  0.00000000000E+00 0.  1.
         11    1    4    4    0    0 -0.42723626561E+01  0.31477380175E+02  0.19845464539E+02  0.37455587142E+02  0.00000000000E+00 0. -1.
          1    1    1    2  501    0  0.32651050090E+02  0.23394449864E+01  0.12364664482E+02  0.34992127723E+02  0.00000000000E+00 0. -1.
<scales pt_clust_5="13000.00000" pt_clust_6="13000.00000" pt_clust_7="13000.00000" pt_clust_8="13000.00000" pt_clust_9="32.73475"></scales>
<clustering>
<clus scale="   32.735">  2  9  1 -1</clus>
<clus scale="   80.512">  5  6 -1 -1</clus>
<clus scale="   87.049">  1  5  2 -1</clus>
<clus scale="   90.995">  7  8 -1 -1</clus>
<clus scale="   32.735">  2  5  1 -1</clus>
</clustering>
</event>
<event>
 9    2  0.9254368E-005  0.1436729E+03  0.7546771E-02  0.1210026E+00
         21   -1    0    0  501  502  0.00000000000E+00  0.00000000000E+00  0.64578453337E+02  0.64578453337E+02  0.00000000000E+00 0. -1.
         -1   -1    0    0    0  501 -0.00000000000E+00 -0.00000000000E+00 -0.77189559807E+03  0.77189559807E+03  0.00000000000E+00 0.  1.
         23    2    1    2    0    0  0.28730682835E+02 -0.12460967181E+03 -0.46157011844E+03  0.48713846036E+03  0.88903784396E+02 0.  0.
         24    2    1    2    0    0  0.72593702339E+02  0.87609079434E+02 -0.15155027626E+03  0.20612699290E+03  0.81090409720E+02 0.  0.
        -11    1    4    4    0    0  0.30457819255E+02  0.92244217663E+02 -0.10056038417E+03  0.13981797206E+03  0.00000000000E+00 0.  1.
         12    1    4    4    0    0  0.42135883083E+02 -0.46351382285E+01 -0.50989892083E+02  0.66309020836E+02  0.00000000000E+00 0. -1.
        -13    1    3    3    0    0  0.92046212523E+01 -0.93959677843E+02 -0.42582040455E+03  0.43616070782E+03  0.00000000000E+00 0.  1.
         13    1    3    3    0    0  0.19526061583E+02 -0.30649993965E+02 -0.35749713892E+02  0.50977752543E+02  0.00000000000E+00 0. -1.
         -2    1    1    2    0  502 -0.10132438517E+03  0.37000592374E+02 -0.94196750035E+02  0.14320859815E+03  0.00000000000E+00 0.  1.
<scales pt_clust_5="13000.00000" pt_clust_6="13000.00000" pt_clust_7="13000.00000" pt_clust_8="13000.00000" pt_clust_9="107.86879"></scales>
<clustering>
<clus scale="   81.090">  5  6 -1 -1</clus>
<clus scale="   88.904">  7  8 -1 -1</clus>
<clus scale="  107.869">  1  9  2 -1</clus>
<clus scale="  138.974">  1  5  2 -1</clus>
<clus scale="  107.869">  1  5  2 -1</clus>
</clustering>
</event>
<event>
 9    2  0.9254368E-005  0.1126495E+03  0.7546771E-02  0.1260256E+00
         21   -1    0    0  501  502  0.00000000000E+00  0.00000000000E+00  0.13288973230E+03  0.13288973230E+03  0.00000000000E+00 0.  1.
          2   -1    0    0  502    0 -0.00000000000E+00 -0.00000000000E+00 -0.19214731281E+03  0.19214731281E+03  0.00000000000E+00 0. -1.
         23    2    1    2    0    0  0.53936923257E+02  0.98131627516E+01 -0.12724354535E+03  0.16407750418E+03  0.87892079796E+02 0.  0.
         24    2    1    2    0    0 -0.51242334645E+02  0.18180618165E+02  0.69842617806E+02  0.13277515273E+03  0.98969380033E+02 0.  0.
        -11    1    4    4    0    0 -0.67308563207E+02  0.35062833792E+02  0.77277451736E+02  0.10831273952E+03  0.00000000000E+00 0.  1.
         12    1    4    4    0    0  0.16066228563E+02 -0.16882215627E+02 -0.74348339304E+01  0.24462413215E+02  0.00000000000E+00 0. -1.
        -13    1    3    3    0    0  0.29300495731E+02 -0.38130933891E+02 -0.45780952958E+02  0.66395653647E+02  0.00000000000E+00 0.  1.
         13    1    3    3    0    0  0.24636427526E+02  0.47944096643E+02 -0.81462592392E+02  0.97681850532E+02  0.00000000000E+00 0. -1.
          1    1    1    2  501    0 -0.26945886127E+01 -0.27993780916E+02 -0.18566529659E+01  0.28184388197E+02  0.00000000000E+00 0. -1.
<scales pt_clust_5="13000.00000" pt_clust_6="13000.00000" pt_clust_7="13000.00000" pt_clust_8="13000.00000" pt_clust_9="28.12317"></scales>
<clustering>
<clus scale="   28.123">  1  9  2 -1</clus>
<clus scale="   87.892">  7  8 -1 -1</clus>
<clus scale="   98.969">  5  6 -1 -1</clus>
<clus scale="  103.053">  2  7  1 -1</clus>
<clus scale="   28.123">  1  5  2 -1</clus>
</clustering>
</event>
<event>
 9    2  0.9254368E-005  0.1025696E+03  0.7546771E-02  0.1283752E+00
          2   -1    0    0  502    0 -0.00000000000E+00  0.00000000000E+00  0.90051117566E+02  0.90051117566E+02  0.00000000000E+00 0. -1.
         21   -1    0    0  501  502  0.00000000000E+00 -0.00000000000E+00 -0.16121548814E+03  0.16121548814E+03  0.00000000000E+00 0. -1.
         24    2    1    2    0    0 -0.50950361382E+02 -0.18198788607E+02 -0.13647515188E+01  0.92648309097E+02  0.75197815129E+02 0.  0.
         23    2    1    2    0    0  0.28601534472E+02 -0.18115108163E+02 -0.56587852115E+02  0.11397840471E+03  0.92966051953E+02 0.  0.
        -13    1    3    3    0    0 -0.43950712895E+02  0.19575240312E+02  0.15702718439E+02  0.50610577587E+02  0.00000000000E+00 0.  1.
         14    1    3    3    0    0 -0.69996484866E+01 -0.37774028920E+02 -0.17067469958E+02  0.42037731510E+02  0.00000000000E+00 0. -1.
        -13    1    4    4    0    0  0.27431500767E+02  0.32359176988E+02 -0.45652679921E+02  0.62319906560E+02  0.00000000000E+00 0. -1.
         13    1    4    4    0    0  0.11700337045E+01 -0.50474285151E+02 -0.10935172194E+02  0.51658498151E+02  0.00000000000E+00 0.  1.
          1    1    1    2  501    0  0.22348826910E+02  0.36313896770E+02 -0.13211766939E+02  0.44639891896E+02  0.00000000000E+00 0. -1.
<scales pt_clust_5="13000.00000" pt_clust_6="13000.00000" pt_clust_7="13000.00000" pt_clust_8="13000.00000" pt_clust_9="42.63999"></scales>
<clustering>
<clus scale="   42.640">  2  9  1 -1</clus>
<clus scale="   75.198">  5  6 -1 -1</clus>
<clus scale="   86.790">  1  5  2 -1</clus>
<clus scale="   92.966">  7  8 -1 -1</clus>
<clus scale="   42.640">  2  5  1 -1</clus>
</clustering>
</event>
<event>
 9    2  0.2268516E-004  0.1149239E+03  0.7546771E-02  0.1254648E+00
         21   -1    0    0  501  502  0.00000000000E+00  0.00000000000E+00  0.36543189051E+03  0.36543189051E+03  0.00000000000E+00 0.  1.
          2   -1    0    0  502    0 -0.00000000000E+00 -0.00000000000E+00 -0.69198242433E+03  0.69198242433E+03  0.00000000000E+00 0. -1.
         23    2    1    2    0    0  0.49911473026E+02 -0.52716176249E+02 -0.16808199920E+02  0.11800169397E+03  0.91497179292E+02 0.  0.
         24    2    1    2    0    0 -0.89877344918E+02 -0.24675454906E+02  0.29922192242E+03  0.32425069019E+03  0.83174130744E+02 0.  0.
        -11    1    4    4    0    0 -0.10526663760E+03 -0.25836862963E+02  0.27427546557E+03  0.29491632626E+03  0.00000000000E+00 0.  1.
         12    1    4    4    0    0  0.15389292678E+02  0.11614080563E+01  0.24946456847E+02  0.29334363928E+02  0.00000000000E+00 0. -1.
        -11    1    3    3    0    0  0.27671869647E+02 -0.73571886437E+02  0.75666957133E+01  0.78967143343E+02  0.00000000000E+00 0.  1.
         11    1    3    3    0    0  0.22239603379E+02  0.20855710188E+02 -0.24374895633E+02  0.39034550632E+02  0.00000000000E+00 0. -1.
          1    1    1    2  501    0  0.39965871892E+02  0.77391631155E+02 -0.60896425632E+03  0.61516193069E+03  0.00000000000E+00 0. -1.
<scales pt_clust_5="13000.00000" pt_clust_6="13000.00000" pt_clust_7="13000.00000" pt_clust_8="13000.00000" pt_clust_9="87.10191"></scales>
<clustering>
<clus scale="   83.174">  5  6 -1 -1</clus>
<clus scale="   87.102">  1  9  2 -1</clus>
<clus scale="   91.497">  7  8 -1 -1</clus>
<clus scale="  108.415">  1  5  2 -1</clus>
<clus scale="   87.102">  1  5  2 -1</clus>
</clustering>
</event>
<event>
 9    2  0.9254368E-005  0.1819495E+03  0.7546771E-02  0.1167321E+00
         21   -1    0    0  501  502  0.00000000000E+00  0.00000000000E+00  0.24825024549E+03  0.24825024549E+03  0.00000000000E+00 0.  1.
          4   -1    0    0  502    0 -0.00000000000E+00 -0.00000000000E+00 -0.33731339720E+03  0.33731339720E+03  0.00000000000E+00 0. -1.
         24    2    1    2    0    0 -0.25094781012E+02  0.16734449472E+03 -0.73170288330E+02  0.20052907044E+03  0.78892896080E+02 0.  0.
         23    2    1    2    0    0  0.69268563720E+02 -0.11391318207E+03  0.14048429795E+03  0.21397889466E+03  0.90976823544E+02 0.  0.
        -11    1    3    3    0    0 -0.23833382114E+02  0.87280421116E+01  0.10483221925E+01  0.25402909312E+02  0.00000000000E+00 0.  1.
         12    1    3    3    0    0 -0.12613988982E+01  0.15861645260E+03 -0.74218610523E+02  0.17512616113E+03  0.00000000000E+00 0. -1.
        -11    1    4    4    0    0  0.32892874987E+02 -0.83005485661E+02  0.30952883140E+02  0.94498321939E+02  0.00000000000E+00 0. -1.
         11    1    4    4    0    0  0.36375688733E+02 -0.30907696405E+02  0.10953141481E+03  0.11948057272E+03  0.00000000000E+00 0.  1.
          3    1    1    2  501    0 -0.44173782708E+02 -0.53431312650E+02 -0.15637716133E+03  0.17105567759E+03  0.00000000000E+00 0. -1.
<scales pt_clust_5="13000.00000" pt_clust_6="13000.00000" pt_clust_7="13000.00000" pt_clust_8="13000.00000" pt_clust_9="69.32700"></scales>
<clustering>
<clus scale="   69.327">  1  9  2 -1</clus>
<clus scale="   78.893">  5  6 -1 -1</clus>
<clus scale="   90.977">  7  8 -1 -1</clus>
<clus scale="  176.218">  2  5  1 -1</clus>
<clus scale="   69.327">  1  5  2 -1</clus>
</clustering>
</event>
<event>
 9    2  0.9254368E-005  0.8417107E+02  0.7546771E-02  0.1319733E+00
         21   -1    0    0  501  502  0.00000000000E+00  0.00000000000E+00  0.16208500700E+02  0.16208500700E+02  0.00000000000E+00 0.  1.
          2   -1    0    0  502    0 -0.00000000000E+00 -0.00000000000E+00 -0.58208404864E+03  0.58208404864E+03  0.00000000000E+00 0. -1.
         23    2    1    2    0    0  0.25306550485E+01  0.38068397480E+00 -0.31074908591E+03  0.32180658032E+03  0.83593849095E+02 0.  0.
         24    2    1    2    0    0 -0.41403083620E+01 -0.23067886185E+02 -0.19780239649E+03  0.21481467409E+03  0.80438091865E+02 0.  0.
        -11    1    4    4    0    0 -0.35741522699E+02  0.52511801833E+01 -0.54691517952E+02  0.65545354328E+02  0.00000000000E+00 0.  1.
         12    1    4    4    0    0  0.31601214337E+02 -0.28319066368E+02 -0.14311087854E+03  0.14926931977E+03  0.00000000000E+00 0. -1.
        -11    1    3    3    0    0  0.40604723588E+02 -0.19363616800E+00 -0.10528459011E+03  0.11284336927E+03  0.00000000000E+00 0. -1.
         11    1    3    3    0    0 -0.38074068539E+02  0.57432014280E+00 -0.20546449580E+03  0.20896321105E+03  0.00000000000E+00 0.  1.
          1    1    1    2  501    0  0.16096533135E+01  0.22687202210E+02 -0.57324065536E+02  0.61671294923E+02  0.00000000000E+00 0. -1.
<scales pt_clust_5="13000.00000" pt_clust_6="13000.00000" pt_clust_7="13000.00000" pt_clust_8="13000.00000" pt_clust_9="22.74423"></scales>
<clustering>
<clus scale="   22.744">  1  9  2 -1</clus>
<clus scale="   80.438">  5  6 -1 -1</clus>
<clus scale="   81.038">  1  5  2 -1</clus>
<clus scale="   83.594">  7  8 -1 -1</clus>
<clus scale="   22.744">  1  5  2 -1</clus>
</clustering>
</event>
<event>
 9    2  0.9254368E-005  0.1147330E+03  0.7546771E-02  0.1252342E+00
          2   -1    0    0  502    0 -0.00000000000E+00  0.00000000000E+00  0.11266764772E+04  0.11266764772E+04  0.00000000000E+00 0. -1.
         21   -1    0    0  501  502  0.00000000000E+00 -0.00000000000E+00 -0.54856326433E+02  0.54856326433E+02  0.00000000000E+00 0.  1.
         24    2    1    2    0    0  0.41904696360E+02  0.70876372793E+02  0.98313242045E+03  0.99064475205E+03  0.89711787609E+02 0.  0.
         23    2    1    2    0    0  0.25533520457E+01 -0.74016038375E+01  0.63163531300E+02  0.10929731010E+03  0.88853626621E+02 0.  0.
        -11    1    3    3    0    0  0.52743457237E+02  0.23736296482E+02  0.28336342236E+03  0.28920600475E+03  0.00000000000E+00 0.  1.
         12    1    3    3    0    0 -0.10838760877E+02  0.47140076311E+02  0.69976899809E+03  0.70143874731E+03  0.00000000000E+00 0. -1.
        -13    1    4    4    0    0 -0.13550560142E+02  0.36285569188E+02  0.13002669650E+02  0.40857430529E+02  0.00000000000E+00 0.  1.
         13    1    4    4    0    0  0.16103912188E+02 -0.43687173025E+02  0.50160861650E+02  0.68439879575E+02  0.00000000000E+00 0. -1.
          1    1    1    2  501    0 -0.44458048406E+02 -0.63474768956E+02  0.25524199045E+02  0.81590741503E+02  0.00000000000E+00 0. -1.
<scales pt_clust_5="13000.00000" pt_clust_6="13000.00000" pt_clust_7="13000.00000" pt_clust_8="13000.00000" pt_clust_9="77.49558"></scales>
<clustering>
<clus scale="   77.496">  2  9  1 -1</clus>
<clus scale="   88.854">  7  8 -1 -1</clus>
<clus scale="   89.712">  5  6 -1 -1</clus>
<clus scale="  114.063">  2  7  1 -1</clus>
<clus scale="   77.496">  2  5  1 -1</clus>
</clustering>
</event>
<event>
 9    2  0.9254368E-005  0.1829449E+03  0.7546771E-02  0.1166273E+00
          2   -1    0    0  502    0 -0.00000000000E+00  0.00000000000E+00  0.77746368286E+03  0.77746368286E+03  0.00000000000E+00 0. -1.
         21   -1    0    0  501  502  0.00000000000E+00 -0.00000000000E+00 -0.13077283905E+03  0.13077283905E+03  0.00000000000E+00 0. -1.
         23    2    1    2    0    0  0.16294745338E+02  0.15602033032E+03  0.66616541223E+03  0.69034089900E+03  0.90478385180E+02 0.  0.
         24    2    1    2    0    0 -0.24953304482E+02 -0.17634133547E+03 -0.19132614461E+02  0.19580420310E+03  0.79084100897E+02 0.  0.
        -13    1    4    4    0    0 -0.35038261848E+02 -0.25065569637E+02 -0.76861660559E+01  0.43761166840E+02  0.00000000000E+00 0.  1.
         14    1    4    4    0    0  0.10084957366E+02 -0.15127576583E+03 -0.11446448405E+02  0.15204303626E+03  0.00000000000E+00 0. -1.
        -13    1    3    3    0    0 -0.12141984051E+02  0.96728777380E+02  0.53279560470E+03  0.54164106246E+03  0.00000000000E+00 0. -1.
         13    1    3    3    0    0  0.28436729390E+02  0.59291552939E+02  0.13336980753E+03  0.14869983654E+03  0.00000000000E+00 0.  1.
          1    1    1    2  501    0  0.86585591435E+01  0.20321005153E+02 -0.34195395008E+00  0.22091419813E+02  0.00000000000E+00 0. -1.
<scales pt_clust_5="13000.00000" pt_clust_6="13000.00000" pt_clust_7="13000.00000" pt_clust_8="13000.00000" pt_clust_9="22.08877"></scales>
<clustering>
<clus scale="   22.089">  2  9  1 -1</clus>
<clus scale="   79.084">  5  6 -1 -1</clus>
<clus scale="   90.478">  7  8 -1 -1</clus>
<clus scale="  177.586">  2  5  1 -1</clus>
<clus scale="   22.089">  2  5  1 -1</clus>
</clustering>
</event>
<event>
 9    2  0.9254368E-005  0.2502208E+03  0.7546771E-02  0.1114592E+00
         -3   -1    0    0    0  501 -0.00000000000E+00  0.00000000000E+00  0.29147879584E+03  0.29147879584E+03  0.00000000000E+00 0.  1.
         21   -1    0    0  501  502  0.00000000000E+00 -0.00000000000E+00 -0.75615876664E+03  0.75615876664E+03  0.00000000000E+00 0.  1.
         23    2    1    2    0    0  0.14603353559E+03 -0.14301002760E+03  0.78301109813E+02  0.24232030151E+03  0.10397308889E+03 0.  0.
         24    2    1    2    0    0 -0.18292997727E+03  0.20131785964E+03 -0.27182180938E+02  0.28492351045E+03  0.80313626807E+02 0.  0.
        -11    1    4    4    0    0 -0.46299803836E+02  0.10983428117E+03 -0.11207217773E+02  0.11971985168E+03  0.00000000000E+00 0.  1.
         12    1    4    4    0    0 -0.13663017344E+03  0.91483578467E+02 -0.15974963165E+02  0.16520365877E+03  0.00000000000E+00 0. -1.
        -11    1    3    3    0    0  0.32934024892E+02 -0.19823440817E+02 -0.24908029690E+02  0.45804243738E+02  0.00000000000E+00 0. -1.
         11    1    3    3    0    0  0.11309951070E+03 -0.12318658679E+03  0.10320913950E+03  0.19651605777E+03  0.00000000000E+00 0.  1.
         -4    1    1    2    0  502  0.36896441686E+02 -0.58307832035E+02 -0.51579889967E+03  0.52039375053E+03  0.00000000000E+00 0.  1.
<scales pt_clust_5="13000.00000" pt_clust_6="13000.00000" pt_clust_7="13000.00000" pt_clust_8="13000.00000" pt_clust_9="69.00109"></scales>
<clustering>
<clus scale="   69.001">  2  9  1 -1</clus>
<clus scale="   80.314">  5  6 -1 -1</clus>
<clus scale="  103.973">  7  8 -1 -1</clus>
<clus scale="  241.351">  2  5  1 -1</clus>
<clus scale="   69.001">  2  5  1 -1</clus>
</clustering>
</event>
<event>
 9    2  0.9254368E-005  0.1936178E+03  0.7546771E-02  0.1184669E+00
         21   -1    0    0  501  502  0.00000000000E+00  0.00000000000E+00  0.12921488358E+03  0.12921488358E+03  0.00000000000E+00 0.  1.
         -1   -1    0    0    0  501 -0.00000000000E+00 -0.00000000000E+00 -0.48160313528E+03  0.48160313528E+03  0.00000000000E+00 0.  1.
         24    2    1    2    0    0  0.92161064347E+01  0.39805276799E+02 -0.17718203395E+03  0.20283953926E+03  0.89894431715E+02 0.  0.
         23    2    1    2    0    0 -0.13949257563E+03 -0.12271619658E+03 -0.61707213569E+02  0.21633244391E+03  0.92057061217E+02 0.  0.
        -13    1    3    3    0    0 -0.24481398997E+02  0.44590194047E+01 -0.13800874722E+03  0.14023421858E+03  0.00000000000E+00 0.  1.
         14    1    3    3    0    0  0.33697505432E+02  0.35346257395E+02 -0.39173286724E+02  0.62605320676E+02  0.00000000000E+00 0. -1.
        -11    1    4    4    0    0 -0.60865597239E+02 -0.38196404500E+02 -0.70362880037E+02  0.10057097559E+03  0.00000000000E+00 0. -1.
         11    1    4    4    0    0 -0.78626978392E+02 -0.84519792082E+02  0.86556664676E+01  0.11576146832E+03  0.00000000000E+00 0.  1.
         -2    1    1    2    0  502  0.13027646920E+03  0.82910919782E+02 -0.11349900419E+03  0.19164603569E+03  0.00000000000E+00 0.  1.
<scales pt_clust_5="13000.00000" pt_clust_6="13000.00000" pt_clust_7="13000.00000" pt_clust_8="13000.00000" pt_clust_9="170.33315"></scales>
<clustering>
<clus scale="   89.894">  5  6 -1 -1</clus>
<clus scale="   92.057">  7  8 -1 -1</clus>
<clus scale="   98.744">  2  5  1 -1</clus>
<clus scale="  170.333">  1  9  2 -1</clus>
<clus scale="  170.333">  1  5  2 -1</clus>
</clustering>
</event>
<event>
 9    2  0.9254368E-005  0.1438525E+03  0.7546771E-02  0.1236742E+00
         -3   -1    0    0    0  501 -0.00000000000E+00  0.00000000000E+00  0.18658983186E+03  0.18658983186E+03  0.00000000000E+00 0.  1.
         21   -1    0    0  501  502  0.00000000000E+00 -0.00000000000E+00 -0.44406470961E+03  0.44406470961E+03  0.00000000000E+00 0.  1.
         24    2    1    2    0    0  0.16963063047E+01 -0.54896396875E+01 -0.11573430611E+03  0.14027139109E+03  0.79048212818E+02 0.  0.
         23    2    1    2    0    0 -0.10490864810E+03  0.46766992681E+02  0.13055260778E+03  0.19627401600E+03  0.91030379047E+02 0.  0.
        -11    1    3    3    0    0 -0.58237356568E+01  0.29648995757E+02 -0.15851140361E+02  0.34120924623E+02  0.00000000000E+00 0.  1.
         12    1    3    3    0    0  0.75200419615E+01 -0.35138635445E+02 -0.99883165745E+02  0.10615046647E+03  0.00000000000E+00 0. -1.
        -13    1    4    4    0    0 -0.16438999613E+02 -0.19073924359E+02 -0.25511164705E+00  0.25181746974E+02  0.00000000000E+00 0. -1.
         13    1    4    4    0    0 -0.88469648489E+02  0.65840917040E+02  0.13080771942E+03  0.17109226903E+03  0.00000000000E+00 0.  1.
         -4    1    1    2    0  502  0.10321234180E+03 -0.41277352993E+02 -0.27229317942E+03  0.29410913438E+03  0.00000000000E+00 0.  1.
<scales pt_clust_5="13000.00000" pt_clust_6="13000.00000" pt_clust_7="13000.00000" pt_clust_8="13000.00000" pt_clust_9="111.38674"></scales>
<clustering>
<clus scale="   79.048">  5  6 -1 -1</clus>
<clus scale="   79.257">  1  5  2 -1</clus>
<clus scale="   91.030">  7  8 -1 -1</clus>
<clus scale="  111.387">  2  9  1 -1</clus>
<clus scale="  111.387">  2  5  1 -1</clus>
</clustering>
</event>
<event>
 9    2  0.9254368E-005  0.1401383E+03  0.7546771E-02  0.1215979E+00
         21   -1    0    0  501  502  0.00000000000E+00  0.00000000000E+00  0.35031798124E+02  0.35031798124E+02  0.00000000000E+00 0. -1.
          2   -1    0    0  502    0 -0.00000000000E+00 -0.00000000000E+00 -0.12116685978E+04  0.12116685978E+04  0.00000000000E+00 0. -1.
         24    2    1    2    0    0 -0.11149047059E+03 -0.97347429426E+01 -0.73893017755E+03  0.75140656053E+03  0.77904567608E+02 0.  0.
         23    2    1    2    0    0  0.86074552881E+02 -0.45860047170E+02 -0.14826538098E+03  0.19946790409E+03  0.91065081032E+02 0.  0.
        -13    1    3    3    0    0 -0.46966288091E+02 -0.42080921370E+02 -0.29698819352E+03  0.30360932668E+03  0.00000000000E+00 0.  1.
         14    1    3    3    0    0 -0.64524182498E+02  0.32346178428E+02 -0.44194198403E+03  0.44779723384E+03  0.00000000000E+00 0. -1.
        -13    1    4    4    0    0  0.18630531482E+02 -0.45275867307E+02 -0.11345504803E+03  0.12356799257E+03  0.00000000000E+00 0.  1.
         13    1    4    4    0    0  0.67444021399E+02 -0.58417986321E+00 -0.34810332952E+02  0.75899911521E+02  0.00000000000E+00 0. -1.
          1    1    1    2  501    0  0.25415917707E+02  0.55594790113E+02 -0.28944124115E+03  0.29582593131E+03  0.00000000000E+00 0. -1.
<scales pt_clust_5="13000.00000" pt_clust_6="13000.00000" pt_clust_7="13000.00000" pt_clust_8="13000.00000" pt_clust_9="61.12899"></scales>
<clustering>
<clus scale="   61.129">  1  9  2 -1</clus>
<clus scale="   77.905">  5  6 -1 -1</clus>
<clus scale="   91.065">  7  8 -1 -1</clus>
<clus scale="  131.966">  2  5  1 -1</clus>
<clus scale="   61.129">  1  5  2 -1</clus>
</clustering>
</event>
<event>
 9    2  0.9254368E-005  0.9449894E+02  0.7546771E-02  0.1293443E+00
         -1   -1    0    0    0  501 -0.00000000000E+00  0.00000000000E+00  0.76666793626E+02  0.76666793626E+02  0.00000000000E+00 0.  1.
         21   -1    0    0  501  502  0.00000000000E+00 -0.00000000000E+00 -0.22739908808E+03  0.22739908808E+03  0.00000000000E+00 0.  1.
         23    2    1    2    0    0 -0.10142343352E+01 -0.28030104579E+01  0.11165504257E+02  0.95046302939E+02  0.94341113403E+02 0.  0.
         24    2    1    2    0    0 -0.22040830358E+02 -0.22900776323E+02 -0.11921914942E+03  0.15412251356E+03  0.92359622342E+02 0.  0.
        -13    1    4    4    0    0 -0.14034096556E+02 -0.58495005545E+02 -0.63036494565E+02  0.87133352896E+02  0.00000000000E+00 0.  1.
         14    1    4    4    0    0 -0.80067338021E+01  0.35594229222E+02 -0.56182654858E+02  0.66989160668E+02  0.00000000000E+00 0. -1.
        -13    1    3    3    0    0 -0.30573992289E+02 -0.37742069484E+02  0.73002168513E+01  0.49117471225E+02  0.00000000000E+00 0.  1.
         13    1    3    3    0    0  0.29559757954E+02  0.34939059026E+02  0.38652874061E+01  0.45928831714E+02  0.00000000000E+00 0. -1.
         -2    1    1    2    0  502  0.23055064693E+02  0.25703786781E+02 -0.42678649285E+02  0.54897065201E+02  0.00000000000E+00 0.  1.
<scales pt_clust_5="13000.00000" pt_clust_6="13000.00000" pt_clust_7="13000.00000" pt_clust_8="13000.00000" pt_clust_9="34.52855"></scales>
<clustering>
<clus scale="   34.529">  2  9  1 -1</clus>
<clus scale="   92.360">  5  6 -1 -1</clus>
<clus scale="   92.521">  2  5  1 -1</clus>
<clus scale="   94.341">  7  8 -1 -1</clus>
<clus scale="   34.529">  2  5  1 -1</clus>
</clustering>
</event>
<event>
 9    2  0.9254368E-005  0.1258512E+03  0.7546771E-02  0.1234891E+00
         -1   -1    0    0    0  501 -0.00000000000E+00  0.00000000000E+00  0.24822399296E+02  0.24822399296E+02  0.00000000000E+00 0.  1.
         21   -1    0    0  501  502  0.00000000000E+00 -0.00000000000E+00 -0.12324403376E+04  0.12324403376E+04  0.00000000000E+00 0. -1.
         23    2    1    2    0    0 -0.20533819496E+02 -0.96998829185E+02 -0.22482338617E+03  0.26126222054E+03  0.88780528871E+02 0.  0.
         24    2    1    2    0    0 -0.11596079052E+02  0.59424621158E+02 -0.79625338398E+03  0.80301927658E+03  0.84585769523E+02 0.  0.
        -11    1    4    4    0    0  0.26742352445E+02 -0.33299833602E+01 -0.13309271997E+03  0.13579364606E+03  0.00000000000E+00 0.  1.
         12    1    4    4    0    0 -0.38338431497E+02  0.62754604518E+02 -0.66316066402E+03  0.66722563052E+03  0.00000000000E+00 0. -1.
        -11    1    3    3    0    0  0.24146019164E+02 -0.79698341316E+02 -0.16305727080E+03  0.18309158750E+03  0.00000000000E+00 0.  1.
         11    1    3    3    0    0 -0.44679838660E+02 -0.17300487870E+02 -0.61766115369E+02  0.78170633047E+02  0.00000000000E+00 0. -1.
         -2    1    1    2    0  502  0.32129898548E+02  0.37574208028E+02 -0.18654116810E+03  0.19298123973E+03  0.00000000000E+00 0.  1.
<scales pt_clust_5="13000.00000" pt_clust_6="13000.00000" pt_clust_7="13000.00000" pt_clust_8="13000.00000" pt_clust_9="49.43836"></scales>
<clustering>
<clus scale="   49.438">  2  9  1 -1</clus>
<clus scale="   84.586">  5  6 -1 -1</clus>
<clus scale="   88.781">  7  8 -1 -1</clus>
<clus scale="  122.928">  2  5  1 -1</clus>
<clus scale="   49.438">  2  5  1 -1</clus>
</clustering>
</event>
<event>
 9    2  0.9254368E-005  0.1487233E+03  0.7546771E-02  0.1203697E+00
          2   -1    0    0  502    0 -0.00000000000E+00  0.00000000000E+00  0.42259663172E+03  0.42259663172E+03  0.00000000000E+00 0. -1.
         21   -1    0    0  501  502  0.00000000000E+00 -0.00000000000E+00 -0.27713134341E+03  0.27713134341E+03  0.00000000000E+00 0. -1.
         23    2    1    2    0    0 -0.10754349994E+03 -0.49134004318E+02  0.32675660911E+03  0.35914768080E+03  0.90760235041E+02 0.  0.
         24    2    1    2    0    0  0.14301493988E+03 -0.50221298053E+02 -0.66580506580E+02  0.18473334999E+03  0.81963375576E+02 0.  0.
        -13    1    4    4    0    0  0.29300947256E+02  0.22083196361E+02 -0.22074275149E+02  0.42819232770E+02  0.00000000000E+00 0.  1.
         14    1    4    4    0    0  0.11371399262E+03 -0.72304494414E+02 -0.44506231431E+02  0.14191411722E+03  0.00000000000E+00 0. -1.
        -11    1    3    3    0    0 -0.61525487803E+02 -0.23806215713E+02  0.28357956903E+03  0.29115201103E+03  0.00000000000E+00 0. -1.
         11    1    3    3    0    0 -0.46018012140E+02 -0.25327788606E+02  0.43177040081E+02  0.67995669768E+02  0.00000000000E+00 0.  1.
          1    1    1    2  501    0 -0.35471439934E+02  0.99355302372E+02 -0.11471081423E+03  0.15584694434E+03  0.00000000000E+00 0. -1.
<scales pt_clust_5="13000.00000" pt_clust_6="13000.00000" pt_clust_7="13000.00000" pt_clust_8="13000.00000" pt_clust_9="105.49739"></scales>
<clustering>
<clus scale="   81.963">  5  6 -1 -1</clus>
<clus scale="   90.760">  7  8 -1 -1</clus>
<clus scale="  105.497">  2  9  1 -1</clus>
<clus scale="  143.524">  2  5  1 -1</clus>
<clus scale="  105.497">  2  5  1 -1</clus>
</clustering>
</event>
<event>
 9    2  0.9254368E-005  0.1959824E+03  0.7546771E-02  0.1175505E+00
          2   -1    0    0  502    0 -0.00000000000E+00  0.00000000000E+00  0.19070645754E+03  0.19070645754E+03  0.00000000000E+00 0. -1.
         21   -1    0    0  501  502  0.00000000000E+00 -0.00000000000E+00 -0.35261939615E+03  0.35261939615E+03  0.00000000000E+00 0. -1.
         23    2    1    2    0    0 -0.71933316322E+02  0.61198831686E+01 -0.10669499919E+03  0.15833730989E+03  0.92059903779E+02 0.  0.
         24    2    1    2    0    0  0.83639696342E+02  0.16828235002E+03 -0.43745806434E+02  0.20981780392E+03  0.82433410282E+02 0.  0.
        -13    1    4    4    0    0  0.65141991293E+01  0.35561376150E+02 -0.43176168012E+02  0.56313655077E+02  0.00000000000E+00 0.  1.
         14    1    4    4    0    0  0.77125497213E+02  0.13272097387E+03 -0.56963842205E+00  0.15350414885E+03  0.00000000000E+00 0. -1.
        -13    1    3    3    0    0 -0.72249395897E+02 -0.14801627917E+02 -0.31342608941E+02  0.80133778968E+02  0.00000000000E+00 0. -1.
         13    1    3    3    0    0  0.31607957442E+00  0.20921511085E+02 -0.75352390250E+02  0.78203530923E+02  0.00000000000E+00 0.  1.
          1    1    1    2  501    0 -0.11706380020E+02 -0.17440223319E+03 -0.11472132981E+02  0.17517073988E+03  0.00000000000E+00 0. -1.
<scales pt_clust_5="13000.00000" pt_clust_6="13000.00000" pt_clust_7="13000.00000" pt_clust_8="13000.00000" pt_clust_9="177.80288"></scales>
<clustering>
<clus scale="   82.433">  5  6 -1 -1</clus>
<clus scale="   92.060">  7  8 -1 -1</clus>
<clus scale="  116.991">  1  7  2 -1</clus>
<clus scale="  177.803">  2  9  1 -1</clus>
<clus scale="  177.803">  2  5  1 -1</clus>
</clustering>
</event>
<event>
 9    2  0.9254368E-005  0.1356942E+03  0.7546771E-02  0.1221492E+00
         21   -1    0    0  501  502  0.00000000000E+00  0.00000000000E+00  0.29388947417E+03  0.29388947417E+03  0.00000000000E+00 0. -1.
         -3   -1    0    0    0  501 -0.00000000000E+00 -0.00000000000E+00 -0.15858938198E+03  0.15858938198E+03  0.00000000000E+00 0.  1.
         23    2    1    2    0    0 -0.90110449314E+02  0.54777327122E+02 -0.97786389051E+02  0.16996853240E+03  0.90590703055E+02 0.  0.
         24    2    1    2    0    0  0.64032777189E+02 -0.33702181652E+02  0.22212854315E+03  0.24723592585E+03  0.80922677574E+02 0.  0.
        -11    1    4    4    0    0  0.55505570043E+02  0.71086199632E+01  0.70661957029E+02  0.90136080205E+02  0.00000000000E+00 0.  1.
         12    1    4    4    0    0  0.85272071461E+01 -0.40810801615E+02  0.15146658612E+03  0.15709984564E+03  0.00000000000E+00 0. -1.
        -13    1    3    3    0    0 -0.26317679944E+01  0.48451279718E+02 -0.51649001731E+02  0.70866579492E+02  0.00000000000E+00 0. -1.
         13    1    3    3    0    0 -0.87478681320E+02  0.63260474037E+01 -0.46137387320E+02  0.99101952907E+02  0.00000000000E+00 0.  1.
         -4    1    1    2    0  502  0.26077672125E+02 -0.21075145470E+02  0.10957938089E+02  0.35274397900E+02  0.00000000000E+00 0.  1.
<scales pt_clust_5="13000.00000" pt_clust_6="13000.00000" pt_clust_7="13000.00000" pt_clust_8="13000.00000" pt_clust_9="33.52919"></scales>
<clustering>
<clus scale="   33.529">  1  9  2 -1</clus>
<clus scale="   80.923">  5  6 -1 -1</clus>
<clus scale="   90.591">  7  8 -1 -1</clus>
<clus scale="  129.440">  1  5  2 -1</clus>
<clus scale="   33.529">  1  5  2 -1</clus>
</clustering>
</event>
<event>
 9    2  0.9254368E-005  0.9945154E+02  0.7546771E-02  0.1287331E+00
         21   -1    0    0  501  502  0.00000000000E+00  0.00000000000E+00  0.33999962205E+03  0.33999962205E+03  0.00000000000E+00 0.  1.
         -1   -1    0    0    0  501 -0.00000000000E+00 -0.00000000000E+00 -0.38538384354E+02  0.38538384354E+02  0.00000000000E+00 0.  1.
         24    2    1    2    0    0  0.40889984979E+02  0.11262427765E+01  0.10205780175E+03  0.13667877130E+03  0.81191331631E+02 0.  0.
         23    2    1    2    0    0 -0.23377168140E+02 -0.32238643063E+02  0.15537912797E+03  0.18517749291E+03  0.92532201832E+02 0.  0.
        -11    1    3    3    0    0  0.21152239702E+02 -0.36769558024E+02  0.74817486141E+02  0.86006243228E+02  0.00000000000E+00 0.  1.
         12    1    3    3    0    0  0.19737745277E+02  0.37895800801E+02  0.27240315613E+02  0.50672528076E+02  0.00000000000E+00 0. -1.
        -13    1    4    4    0    0  0.15982148325E+02 -0.28436433677E+02  0.94141735922E+01  0.33951236941E+02  0.00000000000E+00 0. -1.
         13    1    4    4    0    0 -0.39359316466E+02 -0.38022093852E+01  0.14596495437E+03  0.15122625597E+03  0.00000000000E+00 0.  1.
         -2    1    1    2    0  502 -0.17512816839E+02  0.31112400286E+02  0.44024307981E+02  0.56681742196E+02  0.00000000000E+00 0.  1.
<scales pt_clust_5="13000.00000" pt_clust_6="13000.00000" pt_clust_7="13000.00000" pt_clust_8="13000.00000" pt_clust_9="35.70268"></scales>
<clustering>
<clus scale="   35.703">  1  9  2 -1</clus>
<clus scale="   81.191">  5  6 -1 -1</clus>
<clus scale="   88.997">  2  5  1 -1</clus>
<clus scale="   92.532">  7  8 -1 -1</clus>
<clus scale="   35.703">  1  5  2 -1</clus>
</clustering>
</event>
<event>
 9    2  0.9254368E-005  0.1282426E+03  0.7546771E-02  0.1233584E+00
          2   -1    0    0  502    0 -0.00000000000E+00  0.00000000000E+00  0.71242903539E+03  0.71242903539E+03  0.00000000000E+00 0. -1.
         21   -1    0    0  501  502  0.00000000000E+00 -0.00000000000E+00 -0.13959908569E+03  0.13959908569E+03  0.00000000000E+00 0. -1.
         24    2    1    2    0    0 -0.93625101184E+02 -0.31319683220E+01  0.62353495305E+03  0.63562653577E+03  0.80310562834E+02 0.  0.
         23    2    1    2    0    0  0.40347908889E+02  0.54238660889E+02  0.16977703820E+02  0.11624519714E+03  0.93031808236E+02 0.  0.
        -13    1    3    3    0    0 -0.81133198922E+02  0.14566707959E+02  0.29277219682E+03  0.30415513176E+03  0.00000000000E+00 0.  1.
         14    1    3    3    0    0 -0.12491902261E+02 -0.17698676281E+02  0.33076275623E+03  0.33147140401E+03  0.00000000000E+00 0. -1.
        -13    1    4    4    0    0  0.16993390356E+02  0.73707516946E+02  0.32239117925E+02  0.82224899481E+02  0.00000000000E+00 0. -1.
         13    1    4    4    0    0  0.23354518533E+02 -0.19468856057E+02 -0.15261414104E+02  0.34020297655E+02  0.00000000000E+00 0.  1.
          1    1    1    2  501    0  0.53277192294E+02 -0.51106692567E+02 -0.67682707159E+02  0.10015638818E+03  0.00000000000E+00 0. -1.
<scales pt_clust_5="13000.00000" pt_clust_6="13000.00000" pt_clust_7="13000.00000" pt_clust_8="13000.00000" pt_clust_9="73.82651"></scales>
<clustering>
<clus scale="   73.827">  2  9  1 -1</clus>
<clus scale="   80.311">  5  6 -1 -1</clus>
<clus scale="   93.032">  7  8 -1 -1</clus>
<clus scale="  119.336">  1  5  2 -1</clus>
<clus scale="   73.827">  2  5  1 -1</clus>
</clustering>
</event>
<event>
 9    2  0.9254368E-005  0.1462767E+03  0.7546771E-02  0.1226609E+00
          2   -1    0    0  502    0 -0.00000000000E+00  0.00000000000E+00  0.25770042170E+02  0.25770042170E+02  0.00000000000E+00 0. -1.
         21   -1    0    0  501  502  0.00000000000E+00 -0.00000000000E+00 -0.16193065659E+04  0.16193065659E+04  0.00000000000E+00 0.  1.
         24    2    1    2    0    0 -0.91080073639E+01 -0.45105362323E+02 -0.14644125927E+03  0.17340691546E+03  0.80668868875E+02 0.  0.
         23    2    1    2    0    0  0.68284199129E+02 -0.66434414701E+02 -0.54635038435E+03  0.56211799942E+03  0.91660457600E+02 0.  0.
        -11    1    3    3    0    0  0.15668939505E+02 -0.14591412589E+02  0.38098661497E+00  0.21414250801E+02  0.00000000000E+00 0.  1.
         12    1    3    3    0    0 -0.24776946869E+02 -0.30513949734E+02 -0.14682224589E+03  0.15199266466E+03  0.00000000000E+00 0. -1.
        -11    1    4    4    0    0  0.72656304541E+02 -0.13548027547E+02 -0.23725552884E+03  0.24850085232E+03  0.00000000000E+00 0. -1.
         11    1    4    4    0    0 -0.43721054118E+01 -0.52886387153E+02 -0.30909485551E+03  0.31361714710E+03  0.00000000000E+00 0.  1.
          1    1    1    2  501    0 -0.59176191766E+02  0.11153977702E+03 -0.90074488010E+03  0.90955169318E+03  0.00000000000E+00 0. -1.
<scales pt_clust_5="13000.00000" pt_clust_6="13000.00000" pt_clust_7="13000.00000" pt_clust_8="13000.00000" pt_clust_9="113.99658"></scales>
<clustering>
<clus scale="   80.669">  5  6 -1 -1</clus>
<clus scale="   91.660">  7  8 -1 -1</clus>
<clus scale="   92.870">  1  5  2 -1</clus>
<clus scale="  113.997">  2  9  1 -1</clus>
<clus scale="  113.997">  2  5  1 -1</clus>
</clustering>
</event>
<event>
 9    2  0.9254368E-005  0.9224348E+02  0.7546771E-02  0.1301784E+00
         21   -1    0    0  501  502  0.00000000000E+00  0.00000000000E+00  0.13183517655E+03  0.13183517655E+03  0.00000000000E+00 0.  1.
         -3   -1    0    0    0  501 -0.00000000000E+00 -0.00000000000E+00 -0.91281356374E+02  0.91281356374E+02  0.00000000000E+00 0.  1.
         23    2    1    2    0    0  0.79258596875E+01 -0.93657574820E+01  0.22376125754E+02  0.95297896770E+02  0.91817544402E+02 0.  0.
         24    2    1    2    0    0  0.24817349149E+02 -0.51768670528E+01  0.23587017976E+02  0.91585137360E+02  0.84786727717E+02 0.  0.
        -11    1    4    4    0    0  0.53878485934E+02 -0.17519424493E+02  0.18533952543E+02  0.59609805217E+02  0.00000000000E+00 0.  1.
         12    1    4    4    0    0 -0.29061136785E+02  0.12342557441E+02  0.50530654327E+01  0.31975332143E+02  0.00000000000E+00 0. -1.
        -13    1    3    3    0    0 -0.36139869178E+01 -0.48511080503E+02  0.24430058850E+02  0.54435407672E+02  0.00000000000E+00 0.  1.
         13    1    3    3    0    0  0.11539846605E+02  0.39145323021E+02 -0.20539330966E+01  0.40862489098E+02  0.00000000000E+00 0. -1.
         -4    1    1    2    0  502 -0.32743208837E+02  0.14542624535E+02 -0.54093235573E+01  0.36233498791E+02  0.00000000000E+00 0.  1.
<scales pt_clust_5="13000.00000" pt_clust_6="13000.00000" pt_clust_7="13000.00000" pt_clust_8="13000.00000" pt_clust_9="35.82746"></scales>
<clustering>
<clus scale="   35.827">  1  9  2 -1</clus>
<clus scale="   84.787">  5  6 -1 -1</clus>
<clus scale="   85.248">  1  5  2 -1</clus>
<clus scale="   91.818">  7  8 -1 -1</clus>
<clus scale="   35.827">  1  5  2 -1</clus>
</clustering>
</event>
<event>
 9    2  0.9254368E-005  0.1641100E+03  0.7546771E-02  0.1185676E+00
         21   -1    0    0  501  502  0.00000000000E+00  0.00000000000E+00  0.31139800103E+02  0.31139800103E+02  0.00000000000E+00 0. -1.
          2   -1    0    0  502    0 -0.00000000000E+00 -0.00000000000E+00 -0.12888230679E+04  0.12888230679E+04  0.00000000000E+00 0. -1.
         24    2    1    2    0    0  0.12851853965E+03  0.13001231452E+02 -0.75113846019E+03  0.76647945528E+03  0.81214050129E+02 0.  0.
         23    2    1    2    0    0 -0.14817149051E+03 -0.23639365395E+02 -0.50029670334E+03  0.53027894809E+03  0.91571617966E+02 0.  0.
        -11    1    3    3    0    0  0.13273874008E+03  0.27234193461E+02 -0.70820766408E+03  0.72105434599E+03  0.00000000000E+00 0.  1.
         12    1    3    3    0    0 -0.42202004348E+01 -0.14232962009E+02 -0.42930796108E+02  0.45425109287E+02  0.00000000000E+00 0. -1.
        -13    1    4    4    0    0 -0.11872166710E+02  0.27068816799E+02 -0.10496964465E+03  0.10905180183E+03  0.00000000000E+00 0.  1.
         13    1    4    4    0    0 -0.13629932380E+03 -0.50708182194E+02 -0.39532705869E+03  0.42122714626E+03  0.00000000000E+00 0. -1.
          1    1    1    2  501    0  0.19652950861E+02  0.10638133943E+02 -0.62481042466E+01  0.23204464614E+02  0.00000000000E+00 0. -1.
<scales pt_clust_5="13000.00000" pt_clust_6="13000.00000" pt_clust_7="13000.00000" pt_clust_8="13000.00000" pt_clust_9="22.34745"></scales>
<clustering>
<clus scale="   22.347">  1  9  2 -1</clus>
<clus scale="   81.214">  5  6 -1 -1</clus>
<clus scale="   91.572">  7  8 -1 -1</clus>
<clus scale="  158.564">  2  5  1 -1</clus>
<clus scale="   22.347">  1  5  2 -1</clus>
</clustering>
</event>
<event>
 9    2  0.9254368E-005  0.1085760E+03  0.7546771E-02  0.1268645E+00
          4   -1    0    0  502    0 -0.00000000000E+00  0.00000000000E+00  0.62036573450E+03  0.62036573450E+03  0.00000000000E+00 0. -1.
         21   -1    0    0  501  502  0.00000000000E+00 -0.00000000000E+00 -0.60617561265E+02  0.60617561265E+02  0.00000000000E+00 0.  1.
         24    2    1    2    0    0  0.29957867321E+02  0.42453124362E+02  0.47313278522E+03  0.48293780174E+03  0.81697896676E+02 0.  0.
         23    2    1    2    0    0 -0.72709115453E+02 -0.23533572854E+02  0.89986597310E+02  0.15117350134E+03  0.94421370943E+02 0.  0.
        -11    1    3    3    0    0  0.54134822331E+02  0.17157810650E+02  0.21212771882E+03  0.21959767428E+03  0.00000000000E+00 0.  1.
         12    1    3    3    0    0 -0.24176955010E+02  0.25295313712E+02  0.26100506640E+03  0.26334012747E+03  0.00000000000E+00 0. -1.
        -13    1    4    4    0    0 -0.27532859541E+02 -0.23957793782E+02 -0.12976054546E+02  0.38735154950E+02  0.00000000000E+00 0.  1.
         13    1    4    4    0    0 -0.45176255912E+02  0.42422092799E+00  0.10296265186E+03  0.11243834639E+03  0.00000000000E+00 0. -1.
          3    1    1    2  501    0  0.42751248132E+02 -0.18919551508E+02 -0.33712092906E+01  0.46871992684E+02  0.00000000000E+00 0. -1.
<scales pt_clust_5="13000.00000" pt_clust_6="13000.00000" pt_clust_7="13000.00000" pt_clust_8="13000.00000" pt_clust_9="46.75060"></scales>
<clustering>
<clus scale="   46.751">  2  9  1 -1</clus>
<clus scale="   81.698">  5  6 -1 -1</clus>
<clus scale="   94.421">  7  8 -1 -1</clus>
<clus scale="   97.713">  1  5  2 -1</clus>
<clus scale="   46.751">  2  5  1 -1</clus>
</clustering>
</event>
<event>
 9    2  0.9254368E-005  0.1759186E+03  0.7546771E-02  0.1173762E+00
          2   -1    0    0  502    0 -0.00000000000E+00  0.00000000000E+00  0.17756226161E+04  0.17756226161E+04  0.00000000000E+00 0. -1.
         21   -1    0    0  501  502  0.00000000000E+00 -0.00000000000E+00 -0.32292926000E+03  0.32292926000E+03  0.00000000000E+00 0. -1.
         24    2    1    2    0    0  0.14636422308E+03 -0.62545476928E+02  0.14956024621E+04  0.15062423482E+04  0.81270316555E+02 0.  0.
         23    2    1    2    0    0 -0.87475323796E+02  0.61762695914E+02  0.25275580031E+03  0.29083605965E+03  0.96091394624E+02 0.  0.
        -11    1    3    3    0    0  0.60450058144E+02 -0.48865168857E+02  0.42036530292E+03  0.42749152291E+03  0.00000000000E+00 0.  1.
         12    1    3    3    0    0  0.85914164940E+02 -0.13680308070E+02  0.10752371592E+04  0.10787508253E+04  0.00000000000E+00 0. -1.
        -11    1    4    4    0    0 -0.15344509592E+02  0.55029140162E+02  0.17711123012E+03  0.18609687820E+03  0.00000000000E+00 0. -1.
         11    1    4    4    0    0 -0.72130814204E+02  0.67335557524E+01  0.75644570193E+02  0.10473918145E+03  0.00000000000E+00 0.  1.
          1    1    1    2  501    0 -0.58888899288E+02  0.78278101373E+00 -0.29566490634E+03  0.30147346823E+03  0.00000000000E+00 0. -1.
<scales pt_clust_5="13000.00000" pt_clust_6="13000.00000" pt_clust_7="13000.00000" pt_clust_8="13000.00000" pt_clust_9="58.89410"></scales>
<clustering>
<clus scale="   58.894">  2  9  1 -1</clus>
<clus scale="   81.270">  5  6 -1 -1</clus>
<clus scale="   96.091">  7  8 -1 -1</clus>
<clus scale="  168.281">  1  5  2 -1</clus>
<clus scale="   58.894">  2  5  1 -1</clus>
</clustering>
</event>
<event>
 9    2  0.9254368E-005  0.1091954E+03  0.7546771E-02  0.1264556E+00
         21   -1    0    0  501  502  0.00000000000E+00  0.00000000000E+00  0.93132101501E+02  0.93132101501E+02  0.00000000000E+00 0.  1.
          4   -1    0    0  502    0 -0.00000000000E+00 -0.00000000000E+00 -0.22079645902E+03  0.22079645902E+03  0.00000000000E+00 0. -1.
         23    2    1    2    0    0  0.45156413415E+02 -0.47308954012E+02 -0.61763693252E+02  0.12753703717E+03  0.90408535237E+02 0.  0.
         24    2    1    2    0    0 -0.52482180803E+02  0.22292402710E+02  0.13817542998E+02  0.10251967303E+03  0.84071566794E+02 0.  0.
        -13    1    4    4    0    0 -0.60671898593E+02 -0.15493331153E+02  0.46929642909E+01  0.62794478283E+02  0.00000000000E+00 0.  1.
         14    1    4    4    0    0  0.81897177895E+01  0.37785733863E+02  0.91245787073E+01  0.39725194746E+02  0.00000000000E+00 0. -1.
        -13    1    3    3    0    0  0.49943439323E+02  0.27190861759E+01 -0.28483657033E+01  0.50098440577E+02  0.00000000000E+00 0. -1.
         13    1    3    3    0    0 -0.47870259082E+01 -0.50028040187E+02 -0.58915327549E+02  0.77438596593E+02  0.00000000000E+00 0.  1.
          3    1    1    2  501    0  0.73257673883E+01  0.25016551302E+02 -0.79718207268E+02  0.83871850325E+02  0.00000000000E+00 0. -1.
<scales pt_clust_5="13000.00000" pt_clust_6="13000.00000" pt_clust_7="13000.00000" pt_clust_8="13000.00000" pt_clust_9="26.06713"></scales>
<clustering>
<clus scale="   26.067">  1  9  2 -1</clus>
<clus scale="   84.072">  5  6 -1 -1</clus>
<clus scale="   90.409">  7  8 -1 -1</clus>
<clus scale="  104.009">  1  5  2 -1</clus>
<clus scale="   26.067">  1  5  2 -1</clus>
</clustering>
</event>
<event>
 9    2  0.9254368E-005  0.1427006E+03  0.7546771E-02  0.1212229E+00
         21   -1    0    0  501  502  0.00000000000E+00  0.00000000000E+00  0.11075497613E+03  0.11075497613E+03  0.00000000000E+00 0. -1.
          2   -1    0    0  502    0 -0.00000000000E+00 -0.00000000000E+00 -0.23349936282E+03  0.23349936282E+03  0.00000000000E+00 0. -1.
         23    2    1    2    0    0 -0.10540317885E+03  0.51359527334E+02 -0.10696211071E+03  0.18341165307E+03  0.91931007802E+02 0.  0.
         24    2    1    2    0    0  0.77453995805E+02 -0.57391112019E+02  0.51884299366E+01  0.12538415582E+03  0.80008784024E+02 0.  0.
        -11    1    4    4    0    0  0.43376533985E+02 -0.43338685987E+01 -0.30240542280E+02  0.53054655922E+02  0.00000000000E+00 0.  1.
         12    1    4    4    0    0  0.34077461820E+02 -0.53057243420E+02  0.35428972217E+02  0.72329499900E+02  0.00000000000E+00 0. -1.
        -11    1    3    3    0    0 -0.59099995957E+02 -0.10342839869E+01 -0.95852466710E+02  0.11261249771E+03  0.00000000000E+00 0. -1.
         11    1    3    3    0    0 -0.46303182893E+02  0.52393811321E+02 -0.11109644003E+02  0.70799155367E+02  0.00000000000E+00 0.  1.
          1    1    1    2  501    0  0.27949183045E+02  0.60315846847E+01 -0.20970705911E+02  0.35458530047E+02  0.00000000000E+00 0. -1.
<scales pt_clust_5="13000.00000" pt_clust_6="13000.00000" pt_clust_7="13000.00000" pt_clust_8="13000.00000" pt_clust_9="28.59262"></scales>
<clustering>
<clus scale="   28.593">  1  9  2 -1</clus>
<clus scale="   80.009">  5  6 -1 -1</clus>
<clus scale="   91.931">  7  8 -1 -1</clus>
<clus scale="  135.328">  1  5  2 -1</clus>
<clus scale="   28.593">  1  5  2 -1</clus>
</clustering>
</event>
<event>
 9    2  0.9254368E-005  0.9685113E+02  0.7546771E-02  0.1293799E+00
          2   -1    0    0  502    0 -0.00000000000E+00  0.00000000000E+00  0.31961218806E+03  0.31961218806E+03  0.00000000000E+00 0. -1.
         21   -1    0    0  501  502  0.00000000000E+00 -0.00000000000E+00 -0.75146422949E+02  0.75146422949E+02  0.00000000000E+00 0. -1.
         23    2    1    2    0    0 -0.34855650656E+02  0.81451913295E+01  0.86522607860E+02  0.13059622610E+03  0.91038190208E+02 0.  0.
         24    2    1    2    0    0  0.11652540770E+02 -0.40103537981E+02 -0.11797367622E+02  0.89887986292E+02  0.78718464999E+02 0.  0.
        -11    1    4    4    0    0 -0.65678548622E+01 -0.52497585604E+02  0.15192360450E+02  0.55044900107E+02  0.00000000000E+00 0.  1.
         12    1    4    4    0    0  0.18220395632E+02  0.12394047623E+02 -0.26989728072E+02  0.34843086185E+02  0.00000000000E+00 0. -1.
        -11    1    3    3    0    0 -0.55233774856E+02  0.33650219326E+02  0.51129171856E+02  0.82445735852E+02  0.00000000000E+00 0. -1.
         11    1    3    3    0    0  0.20378124200E+02 -0.25505027996E+02  0.35393436004E+02  0.48150490248E+02  0.00000000000E+00 0.  1.
          1    1    1    2  501    0  0.23203109886E+02  0.31958346652E+02  0.16974052487E+03  0.17427439861E+03  0.00000000000E+00 0. -1.
<scales pt_clust_5="13000.00000" pt_clust_6="13000.00000" pt_clust_7="13000.00000" pt_clust_8="13000.00000" pt_clust_9="39.49331"></scales>
<clustering>
<clus scale="   39.493">  2  9  1 -1</clus>
<clus scale="   78.718">  5  6 -1 -1</clus>
<clus scale="   85.374">  2  5  1 -1</clus>
<clus scale="   91.038">  7  8 -1 -1</clus>
<clus scale="   39.493">  2  5  1 -1</clus>
</clustering>
</event>
<event>
 9    2  0.9254368E-005  0.1765346E+03  0.7546771E-02  0.1173936E+00
          2   -1    0    0  502    0 -0.00000000000E+00  0.00000000000E+00  0.43956119879E+03  0.43956119879E+03  0.00000000000E+00 0. -1.
         21   -1    0    0  501  502  0.00000000000E+00 -0.00000000000E+00 -0.79544785398E+02  0.79544785398E+02  0.00000000000E+00 0. -1.
         24    2    1    2    0    0  0.90557224991E+02 -0.12110142312E+03  0.19260518745E+03  0.25618557900E+03  0.75286964173E+02 0.  0.
         23    2    1    2    0    0 -0.65275357915E+02  0.12878661137E+03  0.12923276231E+03  0.21648948869E+03  0.96538739592E+02 0.  0.
        -11    1    3    3    0    0 -0.12051578062E+02 -0.26355528995E+02  0.27746065286E+02  0.40121049104E+02  0.00000000000E+00 0.  1.
         12    1    3    3    0    0  0.10260880305E+03 -0.94745894121E+02  0.16485912217E+03  0.21606452990E+03  0.00000000000E+00 0. -1.
        -11    1    4    4    0    0 -0.88563831126E+02  0.79034460070E+02  0.85891725364E+02  0.14651752983E+03  0.00000000000E+00 0. -1.
         11    1    4    4    0    0  0.23288473211E+02  0.49752151301E+02  0.43341036945E+02  0.69971958862E+02  0.00000000000E+00 0.  1.
          1    1    1    2  501    0 -0.25281867076E+02 -0.76851882551E+01  0.38178463630E+02  0.46430916495E+02  0.00000000000E+00 0. -1.
<scales pt_clust_5="13000.00000" pt_clust_6="13000.00000" pt_clust_7="13000.00000" pt_clust_8="13000.00000" pt_clust_9="26.42415"></scales>
<clustering>
<clus scale="   26.424">  2  9  1 -1</clus>
<clus scale="   75.287">  5  6 -1 -1</clus>
<clus scale="   96.539">  7  8 -1 -1</clus>
<clus scale="  165.870">  1  5  2 -1</clus>
<clus scale="   26.424">  2  5  1 -1</clus>
</clustering>
</event>
<event>
 9    2  0.9254368E-005  0.1293210E+03  0.7546771E-02  0.1228621E+00
         -1   -1    0    0    0  501 -0.00000000000E+00  0.00000000000E+00  0.33976430151E+03  0.33976430151E+03  0.00000000000E+00 0.  1.
         21   -1    0    0  501  502  0.00000000000E+00 -0.00000000000E+00 -0.14851205163E+03  0.14851205163E+03  0.00000000000E+00 0.  1.
         23    2    1    2    0    0 -0.37923829171E+02  0.98253330773E+02  0.18825337945E+03  0.23433047363E+03  0.91539620770E+02 0.  0.
         24    2    1    2    0    0 -0.69630214974E+02 -0.74410110951E+02  0.31443232909E+02  0.14016779155E+03  0.90956590982E+02 0.  0.
        -13    1    4    4    0    0 -0.69755611114E+02 -0.19427392025E+02  0.42674045469E+02  0.84049646040E+02  0.00000000000E+00 0.  1.
         14    1    4    4    0    0  0.12539614056E+00 -0.54982718926E+02 -0.11230812559E+02  0.56118145509E+02  0.00000000000E+00 0. -1.
        -13    1    3    3    0    0 -0.50336498080E+02  0.34037997587E+02  0.14131795273E+03  0.15382819014E+03  0.00000000000E+00 0.  1.
         13    1    3    3    0    0  0.12412668909E+02  0.64215333186E+02  0.46935426724E+02  0.80502283492E+02  0.00000000000E+00 0. -1.
         -2    1    1    2    0  502  0.10755404414E+03 -0.23843219822E+02 -0.28444362479E+02  0.11377808796E+03  0.00000000000E+00 0.  1.
<scales pt_clust_5="13000.00000" pt_clust_6="13000.00000" pt_clust_7="13000.00000" pt_clust_8="13000.00000" pt_clust_9="110.16520"></scales>
<clustering>
<clus scale="   90.957">  5  6 -1 -1</clus>
<clus scale="   91.540">  7  8 -1 -1</clus>
<clus scale="  110.165">  2  9  1 -1</clus>
<clus scale="  128.909">  2  5  1 -1</clus>
<clus scale="  110.165">  2  5  1 -1</clus>
</clustering>
</event>
<event>
 9    2  0.9254368E-005  0.9761507E+02  0.7546771E-02  0.1290804E+00
         21   -1    0    0  501  502  0.00000000000E+00  0.00000000000E+00  0.24965660504E+02  0.24965660504E+02  0.00000000000E+00 0. -1.
          2   -1    0    0  502    0 -0.00000000000E+00 -0.00000000000E+00 -0.75950418179E+03  0.75950418179E+03  0.00000000000E+00 0. -1.
         24    2    1    2    0    0 -0.21847194693E+02 -0.18510581786E+02 -0.39633909412E+03  0.40560082533E+03  0.81285979301E+02 0.  0.
         23    2    1    2    0    0  0.59682031355E+02 -0.17648232487E+02 -0.27745383726E+03  0.29868821247E+03  0.91436379431E+02 0.  0.
        -13    1    3    3    0    0  0.22369844862E+02 -0.32512354067E+02 -0.16448507726E+03  0.16915319615E+03  0.00000000000E+00 0.  1.
         14    1    3    3    0    0 -0.44217039554E+02  0.14001772280E+02 -0.23185401686E+03  0.23644762918E+03  0.00000000000E+00 0. -1.
        -13    1    4    4    0    0  0.75247458022E+02 -0.38261052294E+02 -0.20173182785E+03  0.21868200299E+03  0.00000000000E+00 0. -1.
         13    1    4    4    0    0 -0.15565426667E+02  0.20612819807E+02 -0.75722009404E+02  0.80006209484E+02  0.00000000000E+00 0.  1.
          1    1    1    2  501    0 -0.37834836662E+02  0.36158814273E+02 -0.60745589910E+02  0.80180804489E+02  0.00000000000E+00 0. -1.
<scales pt_clust_5="13000.00000" pt_clust_6="13000.00000" pt_clust_7="13000.00000" pt_clust_8="13000.00000" pt_clust_9="52.33483"></scales>
<clustering>
<clus scale="   52.335">  1  9  2 -1</clus>
<clus scale="   81.286">  5  6 -1 -1</clus>
<clus scale="   88.179">  2  5  1 -1</clus>
<clus scale="   91.436">  7  8 -1 -1</clus>
<clus scale="   52.335">  1  5  2 -1</clus>
</clustering>
</event>
<event>
 9    2  0.9254368E-005  0.9526392E+02  0.7546771E-02  0.1296957E+00
         21   -1    0    0  501  502  0.00000000000E+00  0.00000000000E+00  0.17159625751E+03  0.17159625751E+03  0.00000000000E+00 0. -1.
          4   -1    0    0  502    0 -0.00000000000E+00 -0.00000000000E+00 -0.69158682781E+03  0.69158682781E+03  0.00000000000E+00 0. -1.
         24    2    1    2    0    0 -0.12783609263E+02  0.24140359302E+02 -0.62269493895E+03  0.62836627528E+03  0.79680683338E+02 0.  0.
         23    2    1    2    0    0  0.42297963456E+02 -0.75406928256E+02  0.11955684016E+03  0.17330775386E+03  0.90919838190E+02 0.  0.
        -13    1    3    3    0    0 -0.16223194338E+02 -0.23748468300E+02 -0.12064463477E+03  0.12402543965E+03  0.00000000000E+00 0.  1.
         14    1    3    3    0    0  0.34395850744E+01  0.47888827602E+02 -0.50205030418E+03  0.50434083563E+03  0.00000000000E+00 0. -1.
        -11    1    4    4    0    0  0.31695673500E+02  0.12988198480E+02  0.48617121073E+02  0.59472123552E+02  0.00000000000E+00 0.  1.
         11    1    4    4    0    0  0.10602289955E+02 -0.88395126735E+02  0.70939719090E+02  0.11383563031E+03  0.00000000000E+00 0. -1.
          3    1    1    2  501    0 -0.29514354192E+02  0.51266568954E+02 -0.16852471512E+02  0.61509056177E+02  0.00000000000E+00 0. -1.
<scales pt_clust_5="13000.00000" pt_clust_6="13000.00000" pt_clust_7="13000.00000" pt_clust_8="13000.00000" pt_clust_9="59.15537"></scales>
<clustering>
<clus scale="   59.155">  1  9  2 -1</clus>
<clus scale="   79.681">  5  6 -1 -1</clus>
<clus scale="   84.604">  2  5  1 -1</clus>
<clus scale="   90.920">  7  8 -1 -1</clus>
<clus scale="   59.155">  1  5  2 -1</clus>
</clustering>
</event>
<event>
 9    2  0.9254368E-005  0.1467185E+03  0.7546771E-02  0.1222789E+00
         -1   -1    0    0    0  501 -0.00000000000E+00  0.00000000000E+00  0.54815839374E+03  0.54815839374E+03  0.00000000000E+00 0.  1.
         21   -1    0    0  501  502  0.00000000000E+00 -0.00000000000E+00 -0.18700401559E+03  0.18700401559E+03  0.00000000000E+00 0.  1.
         23    2    1    2    0    0 -0.10372409397E+02 -0.40353471683E+02  0.43930299871E+03  0.45046525270E+03  0.90530821625E+02 0.  0.
         24    2    1    2    0    0  0.19009173577E+01 -0.97456553876E+02 -0.22481379540E+01  0.12714001595E+03  0.81597402843E+02 0.  0.
        -13    1    4    4    0    0  0.30782404842E+02 -0.90118288240E+02  0.81502270339E+01  0.95578703297E+02  0.00000000000E+00 0.  1.
         14    1    4    4    0    0 -0.28881487484E+02 -0.73382656358E+01 -0.10398364988E+02  0.31561312651E+02  0.00000000000E+00 0. -1.
        -13    1    3    3    0    0 -0.85446276230E+01  0.28737259043E+02  0.11189962518E+03  0.11584630695E+03  0.00000000000E+00 0. -1.
         13    1    3    3    0    0 -0.18277817744E+01 -0.69090730726E+02  0.32740337353E+03  0.33461894575E+03  0.00000000000E+00 0.  1.
         -2    1    1    2    0  502  0.84714920397E+01  0.13781002556E+03 -0.75900482606E+02  0.15755714069E+03  0.00000000000E+00 0.  1.
<scales pt_clust_5="13000.00000" pt_clust_6="13000.00000" pt_clust_7="13000.00000" pt_clust_8="13000.00000" pt_clust_9="121.93510"></scales>
<clustering>
<clus scale="   81.597">  5  6 -1 -1</clus>
<clus scale="   90.531">  7  8 -1 -1</clus>
<clus scale="   99.659">  1  7  2 -1</clus>
<clus scale="  121.935">  2  9  1 -1</clus>
<clus scale="  121.935">  2  5  1 -1</clus>
</clustering>
</event>
<event>
 9    2  0.9254368E-005  0.1649389E+03  0.7546771E-02  0.1204345E+00
         -3   -1    0    0    0  501 -0.00000000000E+00  0.00000000000E+00  0.18765319271E+03  0.18765319271E+03  0.00000000000E+00 0.  1.
         21   -1    0    0  501  502  0.00000000000E+00 -0.00000000000E+00 -0.35067063220E+03  0.35067063220E+03  0.00000000000E+00 0.  1.
         23    2    1    2    0    0  0.19944031140E+02 -0.42228920847E+02 -0.17001694035E+03  0.19917665102E+03  0.92652750464E+02 0.  0.
         24    2    1    2    0    0 -0.94406628987E+00 -0.11285062530E+03  0.87044652854E+02  0.16359692281E+03  0.80318283537E+02 0.  0.
        -13    1    4    4    0    0  0.53485647514E+01 -0.55956278753E+02  0.90185908766E+02  0.10626951782E+03  0.00000000000E+00 0.  1.
         14    1    4    4    0    0 -0.62926310412E+01 -0.56894346551E+02 -0.31412559118E+01  0.57327404996E+02  0.00000000000E+00 0. -1.
        -11    1    3    3    0    0 -0.33157713232E+02 -0.52400075455E+01 -0.91283790312E+02  0.97260588110E+02  0.00000000000E+00 0.  1.
         11    1    3    3    0    0  0.53101744372E+02 -0.36988913301E+02 -0.78733150042E+02  0.10191606291E+03  0.00000000000E+00 0. -1.
         -4    1    1    2    0  502 -0.18999964850E+02  0.15507954615E+03 -0.80045151994E+02  0.17555025109E+03  0.00000000000E+00 0.  1.
<scales pt_clust_5="13000.00000" pt_clust_6="13000.00000" pt_clust_7="13000.00000" pt_clust_8="13000.00000" pt_clust_9="144.06187"></scales>
<clustering>
<clus scale="   80.318">  5  6 -1 -1</clus>
<clus scale="   92.653">  7  8 -1 -1</clus>
<clus scale="  103.757">  1  7  2 -1</clus>
<clus scale="  144.062">  2  9  1 -1</clus>
<clus scale="  144.062">  2  5  1 -1</clus>
</clustering>
</event>
<event>
 9    2  0.9254368E-005  0.1627777E+03  0.7546771E-02  0.1187274E+00
         21   -1    0    0  501  502  0.00000000000E+00  0.00000000000E+00  0.29510832469E+03  0.29510832469E+03  0.00000000000E+00 0.  1.
         -3   -1    0    0    0  501 -0.00000000000E+00 -0.00000000000E+00 -0.21705989491E+03  0.21705989491E+03  0.00000000000E+00 0.  1.
         24    2    1    2    0    0 -0.12928671497E+03 -0.90371981586E+02 -0.58419836045E+02  0.18642626903E+03  0.80372425722E+02 0.  0.
         23    2    1    2    0    0  0.72438023643E+02  0.50748077897E+01  0.17984742502E+03  0.21443546821E+03  0.91457382423E+02 0.  0.
        -13    1    3    3    0    0 -0.76575604116E+02 -0.72462890909E+01 -0.38445533566E+02  0.85990644273E+02  0.00000000000E+00 0.  1.
         14    1    3    3    0    0 -0.52711110853E+02 -0.83125692495E+02 -0.19974302479E+02  0.10043562475E+03  0.00000000000E+00 0. -1.
        -11    1    4    4    0    0  0.79739463235E+02 -0.15866213367E+02  0.17311910587E+03  0.19125988482E+03  0.00000000000E+00 0.  1.
         11    1    4    4    0    0 -0.73014395929E+01  0.20941021157E+02  0.67283191487E+01  0.23175583397E+02  0.00000000000E+00 0. -1.
         -4    1    1    2    0  502  0.56848691327E+02  0.85297173796E+02 -0.43379159188E+02  0.11130648236E+03  0.00000000000E+00 0.  1.
<scales pt_clust_5="13000.00000" pt_clust_6="13000.00000" pt_clust_7="13000.00000" pt_clust_8="13000.00000" pt_clust_9="102.50557"></scales>
<clustering>
<clus scale="   80.372">  5  6 -1 -1</clus>
<clus scale="   91.457">  7  8 -1 -1</clus>
<clus scale="  102.506">  1  9  2 -1</clus>
<clus scale="  156.818">  2  5  1 -1</clus>
<clus scale="  102.506">  1  5  2 -1</clus>
</clustering>
</event>
<event>
 9    2  0.9254368E-005  0.9907518E+02  0.7546771E-02  0.1285387E+00
          2   -1    0    0  502    0 -0.00000000000E+00  0.00000000000E+00  0.11952686558E+03  0.11952686558E+03  0.00000000000E+00 0. -1.
         21   -1    0    0  501  502  0.00000000000E+00 -0.00000000000E+00 -0.38138782198E+03  0.38138782198E+03  0.00000000000E+00 0.  1.
         24    2    1    2    0    0  0.16446104831E+02 -0.35260528836E+02  0.74440319360E+02  0.11799622231E+03  0.82873204814E+02 0.  0.
         23    2    1    2    0    0 -0.13556694387E+02  0.90197086043E+02 -0.22188659559E+03  0.25596535166E+03  0.89248538651E+02 0.  0.
        -13    1    3    3    0    0  0.54489783254E+01  0.26724069360E+02  0.13713354387E+02  0.30527419421E+02  0.00000000000E+00 0.  1.
         14    1    3    3    0    0  0.10997126505E+02 -0.61984598195E+02  0.60726964973E+02  0.87468802893E+02  0.00000000000E+00 0. -1.
        -13    1    4    4    0    0 -0.51562642669E+02  0.46105965527E+02 -0.12811674957E+03  0.14559659232E+03  0.00000000000E+00 0.  1.
         13    1    4    4    0    0  0.38005948282E+02  0.44091120516E+02 -0.93769846028E+02  0.11036875934E+03  0.00000000000E+00 0. -1.
          1    1    1    2  501    0 -0.28894104437E+01 -0.54936557207E+02 -0.11441468017E+03  0.12695311358E+03  0.00000000000E+00 0. -1.
<scales pt_clust_5="13000.00000" pt_clust_6="13000.00000" pt_clust_7="13000.00000" pt_clust_8="13000.00000" pt_clust_9="55.01249"></scales>
<clustering>
<clus scale="   55.012">  2  9  1 -1</clus>
<clus scale="   82.873">  5  6 -1 -1</clus>
<clus scale="   89.249">  7  8 -1 -1</clus>
<clus scale="   93.373">  1  5  2 -1</clus>
<clus scale="   55.012">  2  5  1 -1</clus>
</clustering>
</event>
<event>
 9    2  0.9254368E-005  0.1518771E+03  0.7546771E-02  0.1220800E+00
         21   -1    0    0  501  502  0.00000000000E+00  0.00000000000E+00  0.50175081786E+02  0.50175081786E+02  0.00000000000E+00 0.  1.
          2   -1    0    0  502    0 -0.00000000000E+00 -0.00000000000E+00 -0.81951747078E+03  0.81951747078E+03  0.00000000000E+00 0. -1.
         23    2    1    2    0    0  0.21591932598E+02  0.17541511530E+02 -0.11267775240E+03  0.14652334531E+03  0.89436562183E+02 0.  0.
         24    2    1    2    0    0 -0.13361760007E+03  0.53729232915E+02 -0.45200508541E+03  0.47921265154E+03  0.67791405365E+02 0.  0.
        -11    1    4    4    0    0 -0.19182796888E+02  0.38668621815E+02 -0.14209799168E+03  0.14850953252E+03  0.00000000000E+00 0.  1.
         12    1    4    4    0    0 -0.11443480318E+03  0.15060611100E+02 -0.30990709372E+03  0.33070311901E+03  0.00000000000E+00 0. -1.
        -13    1    3    3    0    0 -0.74975999649E+01  0.33788538591E+02 -0.64675537776E+01  0.35209495839E+02  0.00000000000E+00 0.  1.
         13    1    3    3    0    0  0.29089532563E+02 -0.16247027061E+02 -0.10621019862E+03  0.11131384947E+03  0.00000000000E+00 0. -1.
          1    1    1    2  501    0  0.11202566747E+03 -0.71270744445E+02 -0.20465955119E+03  0.24395655572E+03  0.00000000000E+00 0. -1.
<scales pt_clust_5="13000.00000" pt_clust_6="13000.00000" pt_clust_7="13000.00000" pt_clust_8="13000.00000" pt_clust_9="135.90802"></scales>
<clustering>
<clus scale="   67.791">  5  6 -1 -1</clus>
<clus scale="   89.437">  7  8 -1 -1</clus>
<clus scale="   93.663">  2  7  1 -1</clus>
<clus scale="  135.908">  1  9  2 -1</clus>
<clus scale="  135.908">  1  5  2 -1</clus>
</clustering>
</event>
<event>
 9    2  0.9254368E-005  0.1163120E+03  0.7546771E-02  0.1251282E+00
          2   -1    0    0  502    0 -0.00000000000E+00  0.00000000000E+00  0.48124502221E+03  0.48124502221E+03  0.00000000000E+00 0. -1.
         21   -1    0    0  501  502  0.00000000000E+00 -0.00000000000E+00 -0.59562008490E+02  0.59562008490E+02  0.00000000000E+00 0. -1.
         24    2    1    2    0    0  0.11288065124E+02 -0.33418506499E+02  0.93791719561E+02  0.13126288794E+03  0.84787039696E+02 0.  0.
         23    2    1    2    0    0 -0.21911754501E+02  0.12345557245E+03  0.20476750117E+03  0.25664219895E+03  0.90631591570E+02 0.  0.
        -13    1    3    3    0    0 -0.29356346882E+02 -0.14091781389E+01  0.66644767482E+02  0.72837530971E+02  0.00000000000E+00 0.  1.
         14    1    3    3    0    0  0.40644412006E+02 -0.32009328360E+02  0.27146952079E+02  0.58425356966E+02  0.00000000000E+00 0. -1.
        -13    1    4    4    0    0 -0.54235190612E+02  0.92686232558E+02  0.16499457792E+03  0.19686392344E+03  0.00000000000E+00 0. -1.
         13    1    4    4    0    0  0.32323436111E+02  0.30769339897E+02  0.39772923245E+02  0.59778275512E+02  0.00000000000E+00 0.  1.
          1    1    1    2  501    0  0.10623689377E+02 -0.90037065956E+02  0.12312379299E+03  0.15290194381E+03  0.00000000000E+00 0. -1.
<scales pt_clust_5="13000.00000" pt_clust_6="13000.00000" pt_clust_7="13000.00000" pt_clust_8="13000.00000" pt_clust_9="90.66170"></scales>
<clustering>
<clus scale="   84.787">  5  6 -1 -1</clus>
<clus scale="   90.632">  7  8 -1 -1</clus>
<clus scale="   90.662">  2  9  1 -1</clus>
<clus scale="  111.818">  1  5  2 -1</clus>
<clus scale="   90.662">  2  5  1 -1</clus>
</clustering>
</event>
<event>
 9    2  0.9254368E-005  0.1039207E+03  0.7546771E-02  0.1275137E+00
         21   -1    0    0  501  502  0.00000000000E+00  0.00000000000E+00  0.49230238070E+02  0.49230238070E+02  0.00000000000E+00 0. -1.
         -1   -1    0    0    0  501 -0.00000000000E+00 -0.00000000000E+00 -0.42747880441E+03  0.42747880441E+03  0.00000000000E+00 0.  1.
         24    2    1    2    0    0 -0.53345447290E+02 -0.31366571152E+02 -0.32369845767E+03  0.33936218945E+03  0.80971634539E+02 0.  0.
         23    2    1    2    0    0  0.34012036052E+02  0.73503744374E+01 -0.47951707620E+02  0.10581754300E+03  0.87676333987E+02 0.  0.
        -13    1    3    3    0    0 -0.43095750913E+02 -0.53659535727E+02 -0.28756098084E+03  0.29568210501E+03  0.00000000000E+00 0.  1.
         14    1    3    3    0    0 -0.10249696378E+02  0.22292964575E+02 -0.36137476832E+02  0.43680084445E+02  0.00000000000E+00 0. -1.
        -11    1    4    4    0    0  0.14919954696E+02  0.45120830761E+02 -0.41329272262E+02  0.62980974606E+02  0.00000000000E+00 0.  1.
         11    1    4    4    0    0  0.19092081356E+02 -0.37770456323E+02 -0.66224353582E+01  0.42836568390E+02  0.00000000000E+00 0. -1.
         -2    1    1    2    0  502  0.19333411238E+02  0.24016196715E+02 -0.65984010540E+01  0.31529310034E+02  0.00000000000E+00 0.  1.
<scales pt_clust_5="13000.00000" pt_clust_6="13000.00000" pt_clust_7="13000.00000" pt_clust_8="13000.00000" pt_clust_9="30.83113"></scales>
<clustering>
<clus scale="   30.831">  1  9  2 -1</clus>
<clus scale="   80.972">  5  6 -1 -1</clus>
<clus scale="   87.676">  7  8 -1 -1</clus>
<clus scale="   98.330">  2  5  1 -1</clus>
<clus scale="   30.831">  1  5  2 -1</clus>
</clustering>
</event>
<event>
 9    2  0.9254368E-005  0.1009907E+03  0.7546771E-02  0.1284680E+00
         -3   -1    0    0    0  501 -0.00000000000E+00  0.00000000000E+00  0.43416679938E+03  0.43416679938E+03  0.00000000000E+00 0.  1.
         21   -1    0    0  501  502  0.00000000000E+00 -0.00000000000E+00 -0.89499552050E+02  0.89499552050E+02  0.00000000000E+00 0. -1.
         23    2    1    2    0    0 -0.60205984781E+01  0.34348942096E+02  0.33689289113E+03  0.35118695841E+03  0.92840520435E+02 0.  0.
         24    2    1    2    0    0  0.53681620651E+02 -0.63438972094E+02  0.14364542483E+02  0.11625454589E+03  0.80015997047E+02 0.  0.
        -13    1    4    4    0    0  0.12607878153E+02 -0.18066757830E+02 -0.32435139388E+02  0.39209751301E+02  0.00000000000E+00 0.  1.
         14    1    4    4    0    0  0.41073742498E+02 -0.45372214265E+02  0.46799681871E+02  0.77044794589E+02  0.00000000000E+00 0. -1.
        -11    1    3    3    0    0 -0.26510629361E+02  0.45644077982E+02  0.31416447612E+03  0.31856791016E+03  0.00000000000E+00 0.  1.
         11    1    3    3    0    0  0.20490030883E+02 -0.11295135886E+02  0.22728415006E+02  0.32619048253E+02  0.00000000000E+00 0. -1.
         -4    1    1    2    0  502 -0.47661022173E+02  0.29090029998E+02 -0.65901862788E+01  0.56224847133E+02  0.00000000000E+00 0.  1.
<scales pt_clust_5="13000.00000" pt_clust_6="13000.00000" pt_clust_7="13000.00000" pt_clust_8="13000.00000" pt_clust_9="55.83729"></scales>
<clustering>
<clus scale="   55.837">  2  9  1 -1</clus>
<clus scale="   80.016">  5  6 -1 -1</clus>
<clus scale="   89.344">  2  5  1 -1</clus>
<clus scale="   92.841">  7  8 -1 -1</clus>
<clus scale="   55.837">  2  5  1 -1</clus>
</clustering>
</event>
<event>
 9    2  0.9254368E-005  0.2076383E+03  0.7546771E-02  0.1179053E+00
         21   -1    0    0  501  502  0.00000000000E+00  0.00000000000E+00  0.70414086284E+03  0.70414086284E+03  0.00000000000E+00 0.  1.
         -1   -1    0    0    0  501 -0.00000000000E+00 -0.00000000000E+00 -0.13160581701E+03  0.13160581701E+03  0.00000000000E+00 0.  1.
         24    2    1    2    0    0 -0.99801146858E+01 -0.38518177061E+02 -0.11880218199E+02  0.91571537983E+02  0.81614669827E+02 0.  0.
         23    2    1    2    0    0  0.15303954789E+03 -0.99174720761E+02  0.47577244905E+03  0.51783779014E+03  0.92411174448E+02 0.  0.
        -13    1    3    3    0    0  0.92529377246E+01  0.23566279244E+02  0.89097497777E+00  0.25333381345E+02  0.00000000000E+00 0.  1.
         14    1    3    3    0    0 -0.19233052410E+02 -0.62084456305E+02 -0.12771193177E+02  0.66238156639E+02  0.00000000000E+00 0. -1.
        -13    1    4    4    0    0  0.10232988819E+03 -0.10677345754E+03  0.29591021123E+03  0.33080935652E+03  0.00000000000E+00 0. -1.
         13    1    4    4    0    0  0.50709659703E+02  0.75987367755E+01  0.17986223783E+03  0.18702843362E+03  0.00000000000E+00 0.  1.
         -2    1    1    2    0  502 -0.14305943321E+03  0.13769289782E+03  0.10864281498E+03  0.22633735172E+03  0.00000000000E+00 0.  1.
<scales pt_clust_5="13000.00000" pt_clust_6="13000.00000" pt_clust_7="13000.00000" pt_clust_8="13000.00000" pt_clust_9="185.94050"></scales>
<clustering>
<clus scale="   81.615">  5  6 -1 -1</clus>
<clus scale="   90.798">  2  5  1 -1</clus>
<clus scale="   92.411">  7  8 -1 -1</clus>
<clus scale="  185.940">  1  9  2 -1</clus>
<clus scale="  185.940">  1  5  2 -1</clus>
</clustering>
</event>
<event>
 9    2  0.9254368E-005  0.3275320E+03  0.7546771E-02  0.1072620E+00
          4   -1    0    0  502    0 -0.00000000000E+00  0.00000000000E+00  0.17254984429E+04  0.17254984429E+04  0.00000000000E+00 0. -1.
         21   -1    0    0  501  502  0.00000000000E+00 -0.00000000000E+00 -0.11376482110E+03  0.11376482110E+03  0.00000000000E+00 0. -1.
         24    2    1    2    0    0 -0.28233772027E+03 -0.10999509568E+03  0.78499839975E+03  0.84510551823E+03  0.78532413499E+02 0.  0.
         23    2    1    2    0    0  0.23996748751E+03  0.25310971429E+03  0.73568650812E+03  0.81932382748E+03  0.91695002633E+02 0.  0.
        -13    1    3    3    0    0 -0.33975360473E+02 -0.33771604184E+01  0.16909274608E+03  0.17250532487E+03  0.00000000000E+00 0.  1.
         14    1    3    3    0    0 -0.24836235980E+03 -0.10661793526E+03  0.61590565368E+03  0.67260019336E+03  0.00000000000E+00 0. -1.
        -13    1    4    4    0    0  0.61099905708E+02  0.93113152346E+02  0.15377067501E+03  0.18986489436E+03  0.00000000000E+00 0.  1.
         13    1    4    4    0    0  0.17886758181E+03  0.15999656194E+03  0.58191583311E+03  0.62945893311E+03  0.00000000000E+00 0. -1.
          3    1    1    2  501    0  0.42370232756E+02 -0.14311461861E+03  0.91048713945E+02  0.17483391832E+03  0.00000000000E+00 0. -1.
<scales pt_clust_5="13000.00000" pt_clust_6="13000.00000" pt_clust_7="13000.00000" pt_clust_8="13000.00000" pt_clust_9="149.25492"></scales>
<clustering>
<clus scale="   78.532">  5  6 -1 -1</clus>
<clus scale="   91.695">  7  8 -1 -1</clus>
<clus scale="  149.255">  2  9  1 -1</clus>
<clus scale="  324.093">  1  5  2 -1</clus>
<clus scale="  149.255">  2  5  1 -1</clus>
</clustering>
</event>
<event>
 9    2  0.9254368E-005  0.1130930E+03  0.7546771E-02  0.1258716E+00
         21   -1    0    0  501  502  0.00000000000E+00  0.00000000000E+00  0.56176538499E+03  0.56176538499E+03  0.00000000000E+00 0.  1.
         -3   -1    0    0    0  501 -0.00000000000E+00 -0.00000000000E+00 -0.56133302681E+02  0.56133302681E+02  0.00000000000E+00 0.  1.
         24    2    1    2    0    0  0.34467784268E+02  0.56651351421E+02  0.14305207698E+03  0.17770602491E+03  0.81964204329E+02 0.  0.
         23    2    1    2    0    0 -0.85368788316E+02 -0.99441340837E+01  0.34728894784E+03  0.36943750179E+03  0.92128923914E+02 0.  0.
        -13    1    3    3    0    0  0.50767440448E+02  0.66934755710E+01  0.86397827470E+02  0.10043266509E+03  0.00000000000E+00 0.  1.
         14    1    3    3    0    0 -0.16299656180E+02  0.49957875850E+02  0.56654249508E+02  0.77273359823E+02  0.00000000000E+00 0. -1.
        -13    1    4    4    0    0  0.97796706650E+01 -0.27469940431E+02  0.86311635487E+02  0.91103995554E+02  0.00000000000E+00 0. -1.
         13    1    4    4    0    0 -0.95148458981E+02  0.17525806347E+02  0.26097731235E+03  0.27833350624E+03  0.00000000000E+00 0.  1.
         -4    1    1    2    0  502  0.50901004047E+02 -0.46707217337E+02  0.15291057497E+02  0.70755160969E+02  0.00000000000E+00 0.  1.
<scales pt_clust_5="13000.00000" pt_clust_6="13000.00000" pt_clust_7="13000.00000" pt_clust_8="13000.00000" pt_clust_9="69.08315"></scales>
<clustering>
<clus scale="   69.083">  1  9  2 -1</clus>
<clus scale="   81.964">  5  6 -1 -1</clus>
<clus scale="   92.129">  7  8 -1 -1</clus>
<clus scale="  104.978">  2  5  1 -1</clus>
<clus scale="   69.083">  1  5  2 -1</clus>
</clustering>
</event>
<event>
 9    2  0.9254368E-005  0.1458946E+03  0.7546771E-02  0.1224304E+00
         21   -1    0    0  501  502  0.00000000000E+00  0.00000000000E+00  0.24192367380E+03  0.24192367380E+03  0.00000000000E+00 0. -1.
          2   -1    0    0  502    0 -0.00000000000E+00 -0.00000000000E+00 -0.31860979431E+03  0.31860979431E+03  0.00000000000E+00 0. -1.
         23    2    1    2    0    0  0.29306203824E+02  0.32436368712E+02 -0.24792192371E+02  0.10128198607E+03  0.87934158901E+02 0.  0.
         24    2    1    2    0    0  0.17894942070E+02  0.11585462400E+03  0.14832139263E+03  0.20566847520E+03  0.80980018072E+02 0.  0.
        -11    1    4    4    0    0 -0.71651725430E+01  0.88925767304E+02  0.53653764736E+02  0.10410503474E+03  0.00000000000E+00 0.  1.
         12    1    4    4    0    0  0.25060114613E+02  0.26928856693E+02  0.94667627890E+02  0.10156344046E+03  0.00000000000E+00 0. -1.
        -11    1    3    3    0    0  0.55025364809E+02  0.31901629472E+02  0.26606684493E+01  0.63659908042E+02  0.00000000000E+00 0.  1.
         11    1    3    3    0    0 -0.25719160985E+02  0.53473923991E+00 -0.27452860820E+02  0.37622078026E+02  0.00000000000E+00 0. -1.
          1    1    1    2  501    0 -0.47201145894E+02 -0.14829099271E+03 -0.20021532077E+03  0.25358300685E+03  0.00000000000E+00 0. -1.
<scales pt_clust_5="13000.00000" pt_clust_6="13000.00000" pt_clust_7="13000.00000" pt_clust_8="13000.00000" pt_clust_9="121.35687"></scales>
<clustering>
<clus scale="   80.980">  5  6 -1 -1</clus>
<clus scale="   87.934">  7  8 -1 -1</clus>
<clus scale="   98.201">  2  7  1 -1</clus>
<clus scale="  121.357">  1  9  2 -1</clus>
<clus scale="  121.357">  1  5  2 -1</clus>
</clustering>
</event>
<event>
 9    2  0.9254368E-005  0.1246788E+03  0.7546771E-02  0.1257607E+00
         21   -1    0    0  501  502  0.00000000000E+00  0.00000000000E+00  0.57191043832E+02  0.57191043832E+02  0.00000000000E+00 0.  1.
          2   -1    0    0  502    0 -0.00000000000E+00 -0.00000000000E+00 -0.58375290993E+03  0.58375290993E+03  0.00000000000E+00 0. -1.
         23    2    1    2    0    0  0.16009099115E+02 -0.19070650440E+02 -0.32879595451E+03  0.33840721360E+03  0.76109667925E+02 0.  0.
         24    2    1    2    0    0  0.50665444604E+02 -0.60211244445E+02 -0.15301651959E+03  0.18969338980E+03  0.79857032461E+02 0.  0.
        -11    1    4    4    0    0  0.34712069149E+02 -0.14467189892E+02 -0.10318946282E+02  0.38996255979E+02  0.00000000000E+00 0.  1.
         12    1    4    4    0    0  0.15953375455E+02 -0.45744054553E+02 -0.14269757331E+03  0.15069713382E+03  0.00000000000E+00 0. -1.
        -11    1    3    3    0    0 -0.28842577350E+02  0.48449064453E+01 -0.11866975735E+03  0.12222061486E+03  0.00000000000E+00 0.  1.
         11    1    3    3    0    0  0.44851676465E+02 -0.23915556885E+02 -0.21012619715E+03  0.21618659874E+03  0.00000000000E+00 0. -1.
          1    1    1    2  501    0 -0.66674543719E+02  0.79281894884E+02 -0.44749392004E+02  0.11284335036E+03  0.00000000000E+00 0. -1.
<scales pt_clust_5="13000.00000" pt_clust_6="13000.00000" pt_clust_7="13000.00000" pt_clust_8="13000.00000" pt_clust_9="95.74790"></scales>
<clustering>
<clus scale="   76.110">  7  8 -1 -1</clus>
<clus scale="   79.857">  5  6 -1 -1</clus>
<clus scale="   80.079">  2  7  1 -1</clus>
<clus scale="   95.748">  1  9  2 -1</clus>
<clus scale="   95.748">  1  5  2 -1</clus>
</clustering>
</event>
<event>
 9    2  0.9254368E-005  0.1238979E+03  0.7546771E-02  0.1240783E+00
         -1   -1    0    0    0  501 -0.00000000000E+00  0.00000000000E+00  0.23974632625E+03  0.23974632625E+03  0.00000000000E+00 0.  1.
         21   -1    0    0  501  502  0.00000000000E+00 -0.00000000000E+00 -0.17881752369E+03  0.17881752369E+03  0.00000000000E+00 0.  1.
         24    2    1    2    0    0  0.26878425348E+01 -0.85423428985E+02  0.74986523793E+02  0.13911931387E+03  0.80167437434E+02 0.  0.
         23    2    1    2    0    0 -0.22631248675E+02  0.61957666225E+02 -0.12199295558E+03  0.16720195821E+03  0.93398542802E+02 0.  0.
        -13    1    3    3    0    0 -0.11773008843E+02 -0.94067223536E+02  0.45489414732E+02  0.10515005056E+03  0.00000000000E+00 0.  1.
         14    1    3    3    0    0  0.14460851377E+02  0.86437945507E+01  0.29497109061E+02  0.33969263309E+02  0.00000000000E+00 0. -1.
        -13    1    4    4    0    0 -0.39051281217E+01  0.79375718665E+02 -0.58289784209E+02  0.98556855075E+02  0.00000000000E+00 0.  1.
         13    1    4    4    0    0 -0.18726120553E+02 -0.17418052440E+02 -0.63703171367E+02  0.68645103132E+02  0.00000000000E+00 0. -1.
         -2    1    1    2    0  502  0.19943406140E+02  0.23465762760E+02  0.10793523435E+03  0.11224257786E+03  0.00000000000E+00 0.  1.
<scales pt_clust_5="13000.00000" pt_clust_6="13000.00000" pt_clust_7="13000.00000" pt_clust_8="13000.00000" pt_clust_9="30.79582"></scales>
<clustering>
<clus scale="   30.796">  2  9  1 -1</clus>
<clus scale="   80.167">  5  6 -1 -1</clus>
<clus scale="   93.399">  7  8 -1 -1</clus>
<clus scale="  114.255">  1  5  2 -1</clus>
<clus scale="   30.796">  2  5  1 -1</clus>
</clustering>
</event>
<event>
 9    2  0.9254368E-005  0.1044992E+03  0.7546771E-02  0.1275248E+00
         21   -1    0    0  501  502  0.00000000000E+00  0.00000000000E+00  0.62257905881E+02  0.62257905881E+02  0.00000000000E+00 0.  1.
          2   -1    0    0  502    0 -0.00000000000E+00 -0.00000000000E+00 -0.31933066067E+03  0.31933066067E+03  0.00000000000E+00 0. -1.
         23    2    1    2    0    0  0.46406643704E+02  0.39459428137E+02 -0.13886437263E+03  0.17634194091E+03  0.90014127159E+02 0.  0.
         24    2    1    2    0    0 -0.24092055718E+01 -0.48189967823E+02 -0.18251961834E+02  0.95687131079E+02  0.80590419239E+02 0.  0.
        -13    1    4    4    0    0 -0.13261098887E+01 -0.71016217123E+02 -0.15140459596E+02  0.72624342880E+02  0.00000000000E+00 0.  1.
         14    1    4    4    0    0 -0.10830956831E+01  0.22826249300E+02 -0.31115022380E+01  0.23062788200E+02  0.00000000000E+00 0. -1.
        -11    1    3    3    0    0  0.48307173482E+02 -0.17736843347E+02 -0.65631573341E+02  0.83400731657E+02  0.00000000000E+00 0.  1.
         11    1    3    3    0    0 -0.19005297778E+01  0.57196271484E+02 -0.73232799294E+02  0.92941209253E+02  0.00000000000E+00 0. -1.
          1    1    1    2  501    0 -0.43997438132E+02  0.87305396862E+01 -0.99956420324E+02  0.10955949457E+03  0.00000000000E+00 0. -1.
<scales pt_clust_5="13000.00000" pt_clust_6="13000.00000" pt_clust_7="13000.00000" pt_clust_8="13000.00000" pt_clust_9="44.85531"></scales>
<clustering>
<clus scale="   44.855">  1  9  2 -1</clus>
<clus scale="   80.590">  5  6 -1 -1</clus>
<clus scale="   90.014">  7  8 -1 -1</clus>
<clus scale="   96.501">  1  5  2 -1</clus>
<clus scale="   44.855">  1  5  2 -1</clus>
</clustering>
</event>
<event>
 9    2  0.9254368E-005  0.1079304E+03  0.7546771E-02  0.1271275E+00
         21   -1    0    0  501  502  0.00000000000E+00  0.00000000000E+00  0.11292593479E+03  0.11292593479E+03  0.00000000000E+00 0.  1.
          2   -1    0    0  502    0 -0.00000000000E+00 -0.00000000000E+00 -0.50008648533E+03  0.50008648533E+03  0.00000000000E+00 0. -1.
         24    2    1    2    0    0  0.38268975314E+02  0.30460791314E+02 -0.44354820662E+03  0.45349931103E+03  0.80834641282E+02 0.  0.
         23    2    1    2    0    0 -0.24547749397E+02 -0.49721858099E+02  0.15214239919E+02  0.11203141858E+03  0.96149417466E+02 0.  0.
        -13    1    3    3    0    0  0.40137116951E+02 -0.18783275787E+02 -0.17928376882E+03  0.18467936909E+03  0.00000000000E+00 0.  1.
         14    1    3    3    0    0 -0.18681416371E+01  0.49244067101E+02 -0.26426443780E+03  0.26881994194E+03  0.00000000000E+00 0. -1.
        -13    1    4    4    0    0 -0.10631309272E+01 -0.74542929088E+02  0.20822616802E+02  0.77403875192E+02  0.00000000000E+00 0.  1.
         13    1    4    4    0    0 -0.23484618470E+02  0.24821070988E+02 -0.56083768831E+01  0.34627543386E+02  0.00000000000E+00 0. -1.
          1    1    1    2  501    0 -0.13721225917E+02  0.19261066785E+02  0.41173416162E+02  0.47481690501E+02  0.00000000000E+00 0. -1.
<scales pt_clust_5="13000.00000" pt_clust_6="13000.00000" pt_clust_7="13000.00000" pt_clust_8="13000.00000" pt_clust_9="23.64869"></scales>
<clustering>
<clus scale="   23.649">  1  9  2 -1</clus>
<clus scale="   80.835">  5  6 -1 -1</clus>
<clus scale="   94.544">  2  5  1 -1</clus>
<clus scale="   96.149">  7  8 -1 -1</clus>
<clus scale="   23.649">  1  5  2 -1</clus>
</clustering>
</event>
<event>
 9    2  0.9254368E-005  0.1435777E+03  0.7546771E-02  0.1212499E+00
         21   -1    0    0  501  502  0.00000000000E+00  0.00000000000E+00  0.83929053536E+02  0.83929053536E+02  0.00000000000E+00 0.  1.
          2   -1    0    0  502    0 -0.00000000000E+00 -0.00000000000E+00 -0.11366649329E+04  0.11366649329E+04  0.00000000000E+00 0. -1.
         23    2    1    2    0    0  0.10731346649E+03 -0.27531332147E+02 -0.69290745802E+03  0.70873218032E+03  0.99530918328E+02 0.  0.
         24    2    1    2    0    0 -0.33073988242E+02  0.17578338268E+02  0.44516920856E+02  0.10063714978E+03  0.82116947085E+02 0.  0.
        -13    1    4    4    0    0 -0.34083697849E+02 -0.29964893427E+01  0.63815926680E+02  0.72409598159E+02  0.00000000000E+00 0.  1.
         14    1    4    4    0    0  0.10097096074E+01  0.20574827610E+02 -0.19299005824E+02  0.28227551620E+02  0.00000000000E+00 0. -1.
        -13    1    3    3    0    0  0.40062803981E+02 -0.61251550364E+02 -0.31241365067E+03  0.32087235750E+03  0.00000000000E+00 0. -1.
         13    1    3    3    0    0  0.67250662514E+02  0.33720218217E+02 -0.38049380735E+03  0.38785982282E+03  0.00000000000E+00 0.  1.
          1    1    1    2  501    0 -0.74239478252E+02  0.99529938797E+01 -0.40434534216E+03  0.41122465630E+03  0.00000000000E+00 0. -1.
<scales pt_clust_5="13000.00000" pt_clust_6="13000.00000" pt_clust_7="13000.00000" pt_clust_8="13000.00000" pt_clust_9="74.90372"></scales>
<clustering>
<clus scale="   74.904">  1  9  2 -1</clus>
<clus scale="   82.117">  5  6 -1 -1</clus>
<clus scale="   99.531">  7  8 -1 -1</clus>
<clus scale="  132.104">  1  5  2 -1</clus>
<clus scale="   74.904">  1  5  2 -1</clus>
</clustering>
</event>
<event>
 9    2  0.9254368E-005  0.9564722E+02  0.7546771E-02  0.1292363E+00
         -3   -1    0    0    0  501 -0.00000000000E+00  0.00000000000E+00  0.43759894262E+03  0.43759894262E+03  0.00000000000E+00 0.  1.
         21   -1    0    0  501  502  0.00000000000E+00 -0.00000000000E+00 -0.68648411838E+02  0.68648411838E+02  0.00000000000E+00 0.  1.
         23    2    1    2    0    0  0.16805280772E+02  0.59370221625E+01  0.26825201914E+03  0.28420037338E+03  0.92157695071E+02 0.  0.
         24    2    1    2    0    0 -0.44970210414E+02  0.52680366396E+02  0.10967735077E+03  0.15639729673E+03  0.87369630445E+02 0.  0.
        -11    1    4    4    0    0  0.18155867203E+02  0.11201542281E+02 -0.21593700705E+01  0.21442316630E+02  0.00000000000E+00 0.  1.
         12    1    4    4    0    0 -0.63126077616E+02  0.41478824115E+02  0.11183672084E+03  0.13495498010E+03  0.00000000000E+00 0. -1.
        -11    1    3    3    0    0  0.42416534916E+02  0.28657367773E+02  0.21409012904E+03  0.22012494296E+03  0.00000000000E+00 0.  1.
         11    1    3    3    0    0 -0.25611254144E+02 -0.22720345611E+02  0.54161890100E+02  0.64075430414E+02  0.00000000000E+00 0. -1.
         -4    1    1    2    0  502  0.28164929642E+02 -0.58617388559E+02 -0.89788391313E+01  0.65649684351E+02  0.00000000000E+00 0.  1.
<scales pt_clust_5="13000.00000" pt_clust_6="13000.00000" pt_clust_7="13000.00000" pt_clust_8="13000.00000" pt_clust_9="65.03277"></scales>
<clustering>
<clus scale="   65.033">  2  9  1 -1</clus>
<clus scale="   87.370">  5  6 -1 -1</clus>
<clus scale="   91.043">  2  5  1 -1</clus>
<clus scale="   92.158">  7  8 -1 -1</clus>
<clus scale="   65.033">  2  5  1 -1</clus>
</clustering>
</event>
<event>
 9    2  0.9254368E-005  0.1659011E+03  0.7546771E-02  0.1183412E+00
         21   -1    0    0  501  502  0.00000000000E+00  0.00000000000E+00  0.82214600877E+02  0.82214600877E+02  0.00000000000E+00 0. -1.
          2   -1    0    0  502    0 -0.00000000000E+00 -0.00000000000E+00 -0.14778957638E+04  0.14778957638E+04  0.00000000000E+00 0. -1.
         24    2    1    2    0    0 -0.88277754671E+02 -0.90313614261E+02 -0.92166321006E+03  0.93388972204E+03  0.82081844911E+02 0.  0.
         23    2    1    2    0    0  0.14163372055E+03  0.10992584265E+03 -0.51719965516E+03  0.55483326280E+03  0.90557520550E+02 0.  0.
        -13    1    3    3    0    0 -0.61919544020E+02 -0.84097486479E+02 -0.47216567815E+03  0.48357713426E+03  0.00000000000E+00 0.  1.
         14    1    3    3    0    0 -0.26358210652E+02 -0.62161277821E+01 -0.44949753191E+03  0.45031258777E+03  0.00000000000E+00 0. -1.
        -13    1    4    4    0    0  0.69681993786E+02  0.91261664196E+02 -0.21629489165E+03  0.24488313900E+03  0.00000000000E+00 0.  1.
         13    1    4    4    0    0  0.71951726764E+02  0.18664178453E+02 -0.30090476351E+03  0.30995012380E+03  0.00000000000E+00 0. -1.
          1    1    1    2  501    0 -0.53355965879E+02 -0.19612228388E+02  0.43181702254E+02  0.71387379884E+02  0.00000000000E+00 0. -1.
<scales pt_clust_5="13000.00000" pt_clust_6="13000.00000" pt_clust_7="13000.00000" pt_clust_8="13000.00000" pt_clust_9="56.84627"></scales>
<clustering>
<clus scale="   56.846">  1  9  2 -1</clus>
<clus scale="   82.082">  5  6 -1 -1</clus>
<clus scale="   90.558">  7  8 -1 -1</clus>
<clus scale="  161.431">  2  5  1 -1</clus>
<clus scale="   56.846">  1  5  2 -1</clus>
</clustering>
</event>
<event>
 9    2  0.9254368E-005  0.2574687E+03  0.7546771E-02  0.1109298E+00
         21   -1    0    0  501  502  0.00000000000E+00  0.00000000000E+00  0.18219999825E+03  0.18219999825E+03  0.00000000000E+00 0. -1.
          2   -1    0    0  502    0 -0.00000000000E+00 -0.00000000000E+00 -0.13644020657E+04  0.13644020657E+04  0.00000000000E+00 0. -1.
         23    2    1    2    0    0  0.91323943944E+02  0.25746824894E+03 -0.11424319466E+04  0.11783223877E+04  0.93074888286E+02 0.  0.
         24    2    1    2    0    0  0.10695737859E+02 -0.15863019669E+03 -0.11015801181E+03  0.20975071606E+03  0.81133453092E+02 0.  0.
        -11    1    4    4    0    0 -0.29678655626E+02 -0.10386243145E+03 -0.50423202378E+02  0.11920875222E+03  0.00000000000E+00 0.  1.
         12    1    4    4    0    0  0.40374393485E+02 -0.54767765237E+02 -0.59734809431E+02  0.90541963841E+02  0.00000000000E+00 0. -1.
        -11    1    3    3    0    0  0.69836237852E+02  0.66604835188E+02 -0.39017012871E+03  0.40192789593E+03  0.00000000000E+00 0.  1.
         11    1    3    3    0    0  0.21487706091E+02  0.19086341375E+03 -0.75226181784E+03  0.77639449174E+03  0.00000000000E+00 0. -1.
          1    1    1    2  501    0 -0.10201968180E+03 -0.98838052250E+02  0.70387890904E+02  0.15852896024E+03  0.00000000000E+00 0. -1.
<scales pt_clust_5="13000.00000" pt_clust_6="13000.00000" pt_clust_7="13000.00000" pt_clust_8="13000.00000" pt_clust_9="142.04568"></scales>
<clustering>
<clus scale="   81.133">  5  6 -1 -1</clus>
<clus scale="   93.075">  7  8 -1 -1</clus>
<clus scale="  142.046">  1  9  2 -1</clus>
<clus scale="  253.397">  1  5  2 -1</clus>
<clus scale="  142.046">  1  5  2 -1</clus>
</clustering>
</event>
<event>
 9    2  0.9254368E-005  0.1605629E+03  0.7546771E-02  0.1214217E+00
         21   -1    0    0  501  502  0.00000000000E+00  0.00000000000E+00  0.30780421557E+02  0.30780421557E+02  0.00000000000E+00 0.  1.
          2   -1    0    0  502    0 -0.00000000000E+00 -0.00000000000E+00 -0.13499524718E+04  0.13499524718E+04  0.00000000000E+00 0. -1.
         23    2    1    2    0    0  0.26631705395E+02  0.83330482616E+01 -0.45916455237E+03  0.46810945703E+03  0.86693080358E+02 0.  0.
         24    2    1    2    0    0 -0.13042880396E+03  0.74703226189E+02 -0.53583088035E+03  0.56225314663E+03  0.80135033926E+02 0.  0.
        -13    1    4    4    0    0 -0.12530281940E+03  0.77374865817E+02 -0.39916177102E+03  0.42546185006E+03  0.00000000000E+00 0.  1.
         14    1    4    4    0    0 -0.51259845684E+01 -0.26716396280E+01 -0.13666910932E+03  0.13679129658E+03  0.00000000000E+00 0. -1.
        -13    1    3    3    0    0 -0.15093006447E+02 -0.29436661771E+02 -0.12851363981E+03  0.13270294464E+03  0.00000000000E+00 0.  1.
         13    1    3    3    0    0  0.41724711843E+02  0.37769710033E+02 -0.33065091256E+03  0.33540651239E+03  0.00000000000E+00 0. -1.
          1    1    1    2  501    0  0.10379709857E+03 -0.83036274451E+02 -0.32417661750E+03  0.35037028966E+03  0.00000000000E+00 0. -1.
<scales pt_clust_5="13000.00000" pt_clust_6="13000.00000" pt_clust_7="13000.00000" pt_clust_8="13000.00000" pt_clust_9="139.13597"></scales>
<clustering>
<clus scale="   80.135">  5  6 -1 -1</clus>
<clus scale="   86.693">  7  8 -1 -1</clus>
<clus scale="   91.073">  2  7  1 -1</clus>
<clus scale="  139.136">  1  9  2 -1</clus>
<clus scale="  139.136">  1  5  2 -1</clus>
</clustering>
</event>
<event>
 9    2  0.9254368E-005  0.1045204E+03  0.7546771E-02  0.1277748E+00
         21   -1    0    0  501  502  0.00000000000E+00  0.00000000000E+00  0.14196953120E+03  0.14196953120E+03  0.00000000000E+00 0. -1.
          2   -1    0    0  502    0 -0.00000000000E+00 -0.00000000000E+00 -0.22213876401E+03  0.22213876401E+03  0.00000000000E+00 0. -1.
         24    2    1    2    0    0  0.11162974752E+02 -0.50440761011E+02 -0.16340985488E+03  0.18797292426E+03  0.77215006348E+02 0.  0.
         23    2    1    2    0    0  0.88268749875E+01  0.43935823789E+02  0.13236917410E+02  0.10304346327E+03  0.91839365228E+02 0.  0.
        -13    1    3    3    0    0  0.27712285351E+02 -0.37326702886E+02 -0.35928452873E+02  0.58754635847E+02  0.00000000000E+00 0.  1.
         14    1    3    3    0    0 -0.16549310599E+02 -0.13114058125E+02 -0.12748140201E+03  0.12921828841E+03  0.00000000000E+00 0. -1.
        -11    1    4    4    0    0  0.38834119009E+02  0.28142732858E+02  0.37888788986E+02  0.61120066612E+02  0.00000000000E+00 0.  1.
         11    1    4    4    0    0 -0.30007244021E+02  0.15793090931E+02 -0.24651871575E+02  0.41923396655E+02  0.00000000000E+00 0. -1.
          1    1    1    2  501    0 -0.19989849739E+02  0.65049372226E+01  0.70003704669E+02  0.73091907680E+02  0.00000000000E+00 0. -1.
<scales pt_clust_5="13000.00000" pt_clust_6="13000.00000" pt_clust_7="13000.00000" pt_clust_8="13000.00000" pt_clust_9="21.02162"></scales>
<clustering>
<clus scale="   21.022">  1  9  2 -1</clus>
<clus scale="   77.215">  5  6 -1 -1</clus>
<clus scale="   91.839">  7  8 -1 -1</clus>
<clus scale="   91.936">  2  5  1 -1</clus>
<clus scale="   21.022">  1  5  2 -1</clus>
</clustering>
</event>
<event>
 9    2  0.9254368E-005  0.1034729E+03  0.7546771E-02  0.1278196E+00
         21   -1    0    0  501  502  0.00000000000E+00  0.00000000000E+00  0.23517629128E+02  0.23517629128E+02  0.00000000000E+00 0. -1.
          2   -1    0    0  502    0 -0.00000000000E+00 -0.00000000000E+00 -0.82153723066E+03  0.82153723066E+03  0.00000000000E+00 0. -1.
         24    2    1    2    0    0  0.13245035584E+02  0.56866944585E+02 -0.54105653780E+03  0.55002162672E+03  0.79826890268E+02 0.  0.
         23    2    1    2    0    0 -0.31937912773E+02 -0.19238283975E+02 -0.21117300372E+03  0.23288768332E+03  0.90843236967E+02 0.  0.
        -13    1    3    3    0    0 -0.19138247289E+02  0.97399703071E+01 -0.37375981867E+02  0.43105725274E+02  0.00000000000E+00 0.  1.
         14    1    3    3    0    0  0.32383282873E+02  0.47126974278E+02 -0.50368055593E+03  0.50691590145E+03  0.00000000000E+00 0. -1.
        -13    1    4    4    0    0  0.26419365733E+02 -0.23366367878E+02 -0.48154594304E+02  0.59689488071E+02  0.00000000000E+00 0. -1.
         13    1    4    4    0    0 -0.58357278507E+02  0.41280839031E+01 -0.16301840941E+03  0.17319819525E+03  0.00000000000E+00 0.  1.
          1    1    1    2  501    0  0.18692877189E+02 -0.37628660609E+02 -0.45790060015E+02  0.62145549745E+02  0.00000000000E+00 0. -1.
<scales pt_clust_5="13000.00000" pt_clust_6="13000.00000" pt_clust_7="13000.00000" pt_clust_8="13000.00000" pt_clust_9="42.01595"></scales>
<clustering>
<clus scale="   42.016">  1  9  2 -1</clus>
<clus scale="   79.827">  5  6 -1 -1</clus>
<clus scale="   90.843">  7  8 -1 -1</clus>
<clus scale="   93.949">  2  5  1 -1</clus>
<clus scale="   42.016">  1  5  2 -1</clus>
</clustering>
</event>
<event>
 9    2  0.9254368E-005  0.1058394E+03  0.7546771E-02  0.1276127E+00
         21   -1    0    0  501  502  0.00000000000E+00  0.00000000000E+00  0.54773328461E+02  0.54773328461E+02  0.00000000000E+00 0.  1.
          2   -1    0    0  502    0 -0.00000000000E+00 -0.00000000000E+00 -0.74172425650E+03  0.74172425650E+03  0.00000000000E+00 0. -1.
         24    2    1    2    0    0  0.11548411529E+02  0.62262640546E+02 -0.36814467840E+02  0.98470353741E+02  0.65811118414E+02 0.  0.
         23    2    1    2    0    0  0.93908349256E+00  0.45525748905E+02 -0.11549019951E+03  0.15248080927E+03  0.88537762127E+02 0.  0.
        -11    1    3    3    0    0 -0.54591990115E+01  0.31329107881E+02  0.15486023161E+02  0.35371355188E+02  0.00000000000E+00 0.  1.
         12    1    3    3    0    0  0.17007610541E+02  0.30933532665E+02 -0.52300491002E+02  0.63098998553E+02  0.00000000000E+00 0. -1.
        -11    1    4    4    0    0  0.10759591624E+02  0.71039944994E+02 -0.89355023772E+02  0.11465933399E+03  0.00000000000E+00 0.  1.
         11    1    4    4    0    0 -0.98205081317E+01 -0.25514196090E+02 -0.26135175741E+02  0.37821475289E+02  0.00000000000E+00 0. -1.
          1    1    1    2  501    0 -0.12487495022E+02 -0.10778838945E+03 -0.53464626069E+03  0.54554642195E+03  0.00000000000E+00 0. -1.
<scales pt_clust_5="13000.00000" pt_clust_6="13000.00000" pt_clust_7="13000.00000" pt_clust_8="13000.00000" pt_clust_9="57.99184"></scales>
<clustering>
<clus scale="   65.811">  5  6 -1 -1</clus>
<clus scale="   88.538">  7  8 -1 -1</clus>
<clus scale="   91.330">  2  5  1 -1</clus>
<clus scale="   57.992">  1  9  2 -1</clus>
<clus scale="   57.992">  1  5  2 -1</clus>
</clustering>
</event>
<event>
 9    2  0.9254368E-005  0.1477586E+03  0.7546771E-02  0.1205074E+00
         -1   -1    0    0    0  501 -0.00000000000E+00  0.00000000000E+00  0.19923002211E+03  0.19923002211E+03  0.00000000000E+00 0.  1.
         21   -1    0    0  501  502  0.00000000000E+00 -0.00000000000E+00 -0.16385380160E+03  0.16385380160E+03  0.00000000000E+00 0.  1.
         24    2    1    2    0    0 -0.42648534715E+02  0.11036434927E+03  0.67881160568E+02  0.15848068062E+03  0.80678913405E+02 0.  0.
         23    2    1    2    0    0 -0.37631114209E+01 -0.12041884765E+03 -0.41683815275E+02  0.15623594775E+03  0.90317611985E+02 0.  0.
        -13    1    3    3    0    0 -0.30148277849E+02  0.68389069765E+02  0.83424510720E+02  0.11200728775E+03  0.00000000000E+00 0.  1.
         14    1    3    3    0    0 -0.12500256866E+02  0.41975279503E+02 -0.15543350152E+02  0.46473392872E+02  0.00000000000E+00 0. -1.
        -13    1    4    4    0    0 -0.34401235461E+02 -0.83470566839E+02  0.34536431587E+01  0.90347707113E+02  0.00000000000E+00 0. -1.
         13    1    4    4    0    0  0.30638124040E+02 -0.36948280815E+02 -0.45137458434E+02  0.65888240633E+02  0.00000000000E+00 0.  1.
         -2    1    1    2    0  502  0.46411646136E+02  0.10054498386E+02  0.91788752110E+01  0.48367195339E+02  0.00000000000E+00 0.  1.
<scales pt_clust_5="13000.00000" pt_clust_6="13000.00000" pt_clust_7="13000.00000" pt_clust_8="13000.00000" pt_clust_9="47.48827"></scales>
<clustering>
<clus scale="   47.488">  2  9  1 -1</clus>
<clus scale="   80.679">  5  6 -1 -1</clus>
<clus scale="   90.318">  7  8 -1 -1</clus>
<clus scale="  142.072">  1  5  2 -1</clus>
<clus scale="   47.488">  2  5  1 -1</clus>
</clustering>
</event>
<event>
 9    2  0.9254368E-005  0.1356142E+03  0.7546771E-02  0.1232810E+00
          2   -1    0    0  502    0 -0.00000000000E+00  0.00000000000E+00  0.41002649256E+03  0.41002649256E+03  0.00000000000E+00 0. -1.
         21   -1    0    0  501  502  0.00000000000E+00 -0.00000000000E+00 -0.15826419508E+03  0.15826419508E+03  0.00000000000E+00 0. -1.
         23    2    1    2    0    0 -0.44063116484E+02 -0.15991858491E+02 -0.73103000014E+02  0.12592186996E+03  0.91186462549E+02 0.  0.
         24    2    1    2    0    0  0.54812909648E+02 -0.95511966693E+02  0.29767698182E+03  0.32709581306E+03  0.79076510849E+02 0.  0.
        -11    1    4    4    0    0 -0.19842371891E+02 -0.13752247872E+02  0.41386845091E+02  0.47913620093E+02  0.00000000000E+00 0.  1.
         12    1    4    4    0    0  0.74655281540E+02 -0.81759718820E+02  0.25629013673E+03  0.27918219297E+03  0.00000000000E+00 0. -1.
        -13    1    3    3    0    0 -0.11853920420E+02  0.35469691191E+02 -0.10788903915E+02  0.38923191933E+02  0.00000000000E+00 0.  1.
         13    1    3    3    0    0 -0.32209196064E+02 -0.51461549682E+02 -0.62314096099E+02  0.86998678032E+02  0.00000000000E+00 0. -1.
          1    1    1    2  501    0 -0.10749793165E+02  0.11150382518E+03  0.27188315677E+02  0.11527300462E+03  0.00000000000E+00 0. -1.
<scales pt_clust_5="13000.00000" pt_clust_6="13000.00000" pt_clust_7="13000.00000" pt_clust_8="13000.00000" pt_clust_9="110.17316"></scales>
<clustering>
<clus scale="   79.077">  5  6 -1 -1</clus>
<clus scale="   91.186">  7  8 -1 -1</clus>
<clus scale="  102.529">  1  7  2 -1</clus>
<clus scale="  110.173">  2  9  1 -1</clus>
<clus scale="  110.173">  2  5  1 -1</clus>
</clustering>
</event>
<event>
 9    2  0.9254368E-005  0.1965233E+03  0.7546771E-02  0.1156434E+00
         21   -1    0    0  501  502  0.00000000000E+00  0.00000000000E+00  0.30115083776E+03  0.30115083776E+03  0.00000000000E+00 0. -1.
          2   -1    0    0  502    0 -0.00000000000E+00 -0.00000000000E+00 -0.23437763139E+03  0.23437763139E+03  0.00000000000E+00 0. -1.
         23    2    1    2    0    0 -0.15427431939E+03  0.14176461010E+03 -0.79807180499E+02  0.25152835190E+03  0.11401559301E+03 0.  0.
         24    2    1    2    0    0  0.85215477118E+02 -0.54450293577E+02  0.63448630027E+02  0.14506199231E+03  0.82405952149E+02 0.  0.
        -13    1    4    4    0    0  0.64393757745E+02  0.74940154524E+01  0.26919019999E+02  0.70195084884E+02  0.00000000000E+00 0.  1.
         14    1    4    4    0    0  0.20821719373E+02 -0.61944309029E+02  0.36529610028E+02  0.74866907426E+02  0.00000000000E+00 0. -1.
        -13    1    3    3    0    0 -0.14373480516E+03  0.10572837072E+03 -0.18168966132E+02  0.17935521715E+03  0.00000000000E+00 0. -1.
         13    1    3    3    0    0 -0.10539514236E+02  0.36036239384E+02 -0.61638214367E+02  0.72173134750E+02  0.00000000000E+00 0.  1.
          1    1    1    2  501    0  0.69058842275E+02 -0.87314316527E+02  0.83131756840E+02  0.13893812494E+03  0.00000000000E+00 0. -1.
<scales pt_clust_5="13000.00000" pt_clust_6="13000.00000" pt_clust_7="13000.00000" pt_clust_8="13000.00000" pt_clust_9="111.32346"></scales>
<clustering>
<clus scale="   82.406">  5  6 -1 -1</clus>
<clus scale="  111.323">  1  9  2 -1</clus>
<clus scale="  114.016">  7  8 -1 -1</clus>
<clus scale="  180.035">  1  5  2 -1</clus>
<clus scale="  111.323">  1  5  2 -1</clus>
</clustering>
</event>
<event>
 9    2  0.9254368E-005  0.3969826E+03  0.7546771E-02  0.1044830E+00
         21   -1    0    0  501  502  0.00000000000E+00  0.00000000000E+00  0.12634793511E+03  0.12634793511E+03  0.00000000000E+00 0. -1.
          2   -1    0    0  502    0 -0.00000000000E+00 -0.00000000000E+00 -0.10228646944E+04  0.10228646944E+04  0.00000000000E+00 0. -1.
         24    2    1    2    0    0 -0.13304932049E+03 -0.10784591316E+03 -0.33993668358E+03  0.38893023854E+03  0.79855613079E+02 0.  0.
         23    2    1    2    0    0 -0.17431005506E+03  0.18241768777E+02 -0.19709682266E+03  0.27890219025E+03  0.90678094381E+02 0.  0.
        -11    1    3    3    0    0 -0.35840432479E+02  0.97483492450E+00 -0.11796581676E+03  0.12329404214E+03  0.00000000000E+00 0.  1.
         12    1    3    3    0    0 -0.97208888006E+02 -0.10882074808E+03 -0.22197086682E+03  0.26563619640E+03  0.00000000000E+00 0. -1.
        -11    1    4    4    0    0 -0.14398945177E+02 -0.26474503455E+02 -0.20179351653E+02  0.36268928693E+02  0.00000000000E+00 0.  1.
         11    1    4    4    0    0 -0.15991110989E+03  0.44716272232E+02 -0.17691747100E+03  0.24263326156E+03  0.00000000000E+00 0. -1.
          1    1    1    2  501    0  0.30735937555E+03  0.89604144380E+02 -0.35948325305E+03  0.48138020073E+03  0.00000000000E+00 0. -1.
<scales pt_clust_5="13000.00000" pt_clust_6="13000.00000" pt_clust_7="13000.00000" pt_clust_8="13000.00000" pt_clust_9="320.15416"></scales>
<clustering>
<clus scale="   79.856">  5  6 -1 -1</clus>
<clus scale="   90.678">  7  8 -1 -1</clus>
<clus scale="  183.107">  5  7 -1 -1</clus>
<clus scale="  320.154">  1  9  2 -1</clus>
<clus scale="  320.154">  1  5  2 -1</clus>
</clustering>
</event>
<event>
 9    2  0.9254368E-005  0.1211443E+03  0.7546771E-02  0.1244862E+00
          2   -1    0    0  502    0 -0.00000000000E+00  0.00000000000E+00  0.56141295945E+03  0.56141295945E+03  0.00000000000E+00 0. -1.
         21   -1    0    0  501  502  0.00000000000E+00 -0.00000000000E+00 -0.94703160985E+02  0.94703160985E+02  0.00000000000E+00 0.  1.
         23    2    1    2    0    0 -0.79190614005E+02  0.26143025491E+02  0.44801938600E+03  0.46489820563E+03  0.91947595066E+02 0.  0.
         24    2    1    2    0    0  0.52925298442E+02 -0.42089524011E+02  0.73664386853E+02  0.12823938293E+03  0.80288742661E+02 0.  0.
        -11    1    4    4    0    0  0.16141565109E+02  0.19722354674E+02  0.28704848300E+00  0.25487326162E+02  0.00000000000E+00 0.  1.
         12    1    4    4    0    0  0.36783733334E+02 -0.61811878685E+02  0.73377338370E+02  0.10275205677E+03  0.00000000000E+00 0. -1.
        -11    1    3    3    0    0 -0.73615699979E+02  0.57508455807E+01  0.43228221366E+03  0.43854333396E+03  0.00000000000E+00 0. -1.
         11    1    3    3    0    0 -0.55749140256E+01  0.20392179910E+02  0.15737172341E+02  0.26354871678E+02  0.00000000000E+00 0.  1.
          1    1    1    2  501    0  0.26265315563E+02  0.15946498521E+02 -0.54973974388E+02  0.62978531871E+02  0.00000000000E+00 0. -1.
<scales pt_clust_5="13000.00000" pt_clust_6="13000.00000" pt_clust_7="13000.00000" pt_clust_8="13000.00000" pt_clust_9="30.72715"></scales>
<clustering>
<clus scale="   30.727">  2  9  1 -1</clus>
<clus scale="   80.289">  5  6 -1 -1</clus>
<clus scale="   91.948">  7  8 -1 -1</clus>
<clus scale="  112.552">  2  5  1 -1</clus>
<clus scale="   30.727">  2  5  1 -1</clus>
</clustering>
</event>
<event>
 9    2  0.9254368E-005  0.1351796E+03  0.7546771E-02  0.1235937E+00
          2   -1    0    0  502    0 -0.00000000000E+00  0.00000000000E+00  0.74003050081E+03  0.74003050081E+03  0.00000000000E+00 0. -1.
         21   -1    0    0  501  502  0.00000000000E+00 -0.00000000000E+00 -0.45845582184E+02  0.45845582184E+02  0.00000000000E+00 0. -1.
         24    2    1    2    0    0  0.54533479257E+02 -0.30391913161E+01  0.34791960516E+03  0.36121363548E+03  0.80275162801E+02 0.  0.
         23    2    1    2    0    0  0.48903883559E+02 -0.47445665820E+02  0.24876540342E+03  0.27381735715E+03  0.91918649389E+02 0.  0.
        -11    1    3    3    0    0  0.32472467073E+02  0.94497889908E+01  0.40557544788E+02  0.52807897790E+02  0.00000000000E+00 0.  1.
         12    1    3    3    0    0  0.22061012183E+02 -0.12488980307E+02  0.30736206037E+03  0.30840573769E+03  0.00000000000E+00 0. -1.
        -13    1    4    4    0    0 -0.72241694821E+01 -0.31810395156E+02  0.21182929700E+02  0.38894811677E+02  0.00000000000E+00 0. -1.
         13    1    4    4    0    0  0.56128053041E+02 -0.15635270664E+02  0.22758247372E+03  0.23492254548E+03  0.00000000000E+00 0.  1.
          1    1    1    2  501    0 -0.10343736282E+03  0.50484857137E+02  0.97499910047E+02  0.15084509036E+03  0.00000000000E+00 0. -1.
<scales pt_clust_5="13000.00000" pt_clust_6="13000.00000" pt_clust_7="13000.00000" pt_clust_8="13000.00000" pt_clust_9="99.11859"></scales>
<clustering>
<clus scale="   80.275">  5  6 -1 -1</clus>
<clus scale="   91.919">  7  8 -1 -1</clus>
<clus scale="   97.094">  1  5  2 -1</clus>
<clus scale="   99.119">  2  9  1 -1</clus>
<clus scale="   99.119">  2  5  1 -1</clus>
</clustering>
</event>
<event>
 9    2  0.9254368E-005  0.1262496E+03  0.7546771E-02  0.1238702E+00
         21   -1    0    0  501  502  0.00000000000E+00  0.00000000000E+00  0.30967585206E+03  0.30967585206E+03  0.00000000000E+00 0.  1.
         -1   -1    0    0    0  501 -0.00000000000E+00 -0.00000000000E+00 -0.23223035871E+03  0.23223035871E+03  0.00000000000E+00 0.  1.
         23    2    1    2    0    0  0.62321803141E+02  0.31486795098E+02 -0.14198127653E+03  0.18207573093E+03  0.90096967183E+02 0.  0.
         24    2    1    2    0    0 -0.39993141764E+02 -0.53219915086E+02 -0.12051989334E+02  0.12626397198E+03  0.10660923705E+03 0.  0.
        -13    1    4    4    0    0 -0.54745955678E+02 -0.17232359312E+02 -0.46840453422E+02  0.74081724787E+02  0.00000000000E+00 0.  1.
         14    1    4    4    0    0  0.14752813914E+02 -0.35987555774E+02  0.34788464088E+02  0.52182247197E+02  0.00000000000E+00 0. -1.
        -11    1    3    3    0    0  0.54261059833E+02 -0.10525037759E+02 -0.31537856299E+02  0.63637060067E+02  0.00000000000E+00 0. -1.
         11    1    3    3    0    0  0.80607433074E+01  0.42011832857E+02 -0.11044342023E+03  0.11843867086E+03  0.00000000000E+00 0.  1.
         -2    1    1    2    0  502 -0.22328661377E+02  0.21733119988E+02  0.23147875921E+03  0.23356650785E+03  0.00000000000E+00 0.  1.
<scales pt_clust_5="13000.00000" pt_clust_6="13000.00000" pt_clust_7="13000.00000" pt_clust_8="13000.00000" pt_clust_9="31.15923"></scales>
<clustering>
<clus scale="   31.159">  1  9  2 -1</clus>
<clus scale="   90.097">  7  8 -1 -1</clus>
<clus scale="  106.609">  5  6 -1 -1</clus>
<clus scale="  112.654">  2  7  1 -1</clus>
<clus scale="   31.159">  1  5  2 -1</clus>
</clustering>
</event>
<event>
 9    2  0.9254368E-005  0.1695933E+03  0.7546771E-02  0.1181811E+00
          4   -1    0    0  502    0 -0.00000000000E+00  0.00000000000E+00  0.69692137561E+03  0.69692137561E+03  0.00000000000E+00 0. -1.
         21   -1    0    0  501  502  0.00000000000E+00 -0.00000000000E+00 -0.48608146679E+02  0.48608146679E+02  0.00000000000E+00 0. -1.
         24    2    1    2    0    0 -0.11975967893E+03  0.42979760156E+02  0.21842953529E+03  0.26296404782E+03  0.72449900466E+02 0.  0.
         23    2    1    2    0    0  0.14921051591E+03 -0.30207376609E+02  0.31367326834E+03  0.36200284125E+03  0.97359509778E+02 0.  0.
        -11    1    3    3    0    0 -0.93678256139E+02 -0.12577015874E+01  0.12325958091E+03  0.15482287225E+03  0.00000000000E+00 0.  1.
         12    1    3    3    0    0 -0.26081422796E+02  0.44237461743E+02  0.95169954376E+02  0.10814117556E+03  0.00000000000E+00 0. -1.
        -11    1    4    4    0    0  0.38258713044E+02 -0.46537936221E+01  0.13293640840E+02  0.40768956397E+02  0.00000000000E+00 0.  1.
         11    1    4    4    0    0  0.11095180286E+03 -0.25553582987E+02  0.30037962750E+03  0.32123388485E+03  0.00000000000E+00 0. -1.
          3    1    1    2  501    0 -0.29450836972E+02 -0.12772383546E+02  0.11621042530E+03  0.12056263322E+03  0.00000000000E+00 0. -1.
<scales pt_clust_5="13000.00000" pt_clust_6="13000.00000" pt_clust_7="13000.00000" pt_clust_8="13000.00000" pt_clust_9="32.10119"></scales>
<clustering>
<clus scale="   32.101">  2  9  1 -1</clus>
<clus scale="   72.450">  5  6 -1 -1</clus>
<clus scale="   97.360">  7  8 -1 -1</clus>
<clus scale="  156.627">  1  5  2 -1</clus>
<clus scale="   32.101">  2  5  1 -1</clus>
</clustering>
</event>
<event>
 9    2  0.9254368E-005  0.1074634E+03  0.7546771E-02  0.1277960E+00
          2   -1    0    0  502    0 -0.00000000000E+00  0.00000000000E+00  0.79598746734E+02  0.79598746734E+02  0.00000000000E+00 0. -1.
         21   -1    0    0  501  502  0.00000000000E+00 -0.00000000000E+00 -0.31355555426E+03  0.31355555426E+03  0.00000000000E+00 0.  1.
         24    2    1    2    0    0 -0.36074039049E+02 -0.16468142594E+02 -0.42075042388E+02  0.99363069270E+02  0.80809494052E+02 0.  0.
         23    2    1    2    0    0 -0.14663518008E+02 -0.29806717714E+02 -0.19629307859E+03  0.22497900840E+03  0.10479085045E+03 0.  0.
        -11    1    3    3    0    0 -0.15994966088E+02 -0.29111916164E+02 -0.60702655749E+02  0.69196495706E+02  0.00000000000E+00 0.  1.
         12    1    3    3    0    0 -0.20079072961E+02  0.12643773570E+02  0.18627613362E+02  0.30166573564E+02  0.00000000000E+00 0. -1.
        -11    1    4    4    0    0  0.38032749664E+02  0.10162179717E+02 -0.44567406875E+02  0.59464390178E+02  0.00000000000E+00 0. -1.
         11    1    4    4    0    0 -0.52696267672E+02 -0.39968897431E+02 -0.15172567171E+03  0.16551461822E+03  0.00000000000E+00 0.  1.
          1    1    1    2  501    0  0.50737557057E+02  0.46274860308E+02  0.44113134499E+01  0.68812223325E+02  0.00000000000E+00 0. -1.
<scales pt_clust_5="13000.00000" pt_clust_6="13000.00000" pt_clust_7="13000.00000" pt_clust_8="13000.00000" pt_clust_9="68.67072"></scales>
<clustering>
<clus scale="   68.671">  2  9  1 -1</clus>
<clus scale="   80.809">  5  6 -1 -1</clus>
<clus scale="   84.246">  1  5  2 -1</clus>
<clus scale="  104.791">  7  8 -1 -1</clus>
<clus scale="   68.671">  2  5  1 -1</clus>
</clustering>
</event>
<event>
 9    2  0.9254368E-005  0.1640268E+03  0.7546771E-02  0.1216775E+00
          2   -1    0    0  502    0 -0.00000000000E+00  0.00000000000E+00  0.36271310238E+02  0.36271310238E+02  0.00000000000E+00 0. -1.
         21   -1    0    0  501  502  0.00000000000E+00 -0.00000000000E+00 -0.11785418270E+04  0.11785418270E+04  0.00000000000E+00 0. -1.
         24    2    1    2    0    0  0.32675099122E+01  0.14342220869E+02 -0.94190316538E+02  0.12418025559E+03  0.79577284620E+02 0.  0.
         23    2    1    2    0    0  0.13354508092E+03 -0.28481150545E+02 -0.54084728302E+03  0.56508285869E+03  0.90318265365E+02 0.  0.
        -13    1    3    3    0    0 -0.29094808418E+02 -0.16865444891E+02 -0.55362630766E+02  0.64776322785E+02  0.00000000000E+00 0.  1.
         14    1    3    3    0    0  0.32362318330E+02  0.31207665760E+02 -0.38827685772E+02  0.59403932801E+02  0.00000000000E+00 0. -1.
        -13    1    4    4    0    0  0.65892001369E+02 -0.42550425237E+02 -0.16205293306E+03  0.18003735070E+03  0.00000000000E+00 0.  1.
         13    1    4    4    0    0  0.67653079553E+02  0.14069274693E+02 -0.37879434997E+03  0.38504550800E+03  0.00000000000E+00 0. -1.
          1    1    1    2  501    0 -0.13681259083E+03  0.14138929676E+02 -0.50723291722E+03  0.52555002298E+03  0.00000000000E+00 0. -1.
<scales pt_clust_5="13000.00000" pt_clust_6="13000.00000" pt_clust_7="13000.00000" pt_clust_8="13000.00000" pt_clust_9="136.92117"></scales>
<clustering>
<clus scale="   79.577">  5  6 -1 -1</clus>
<clus scale="   80.925">  1  5  2 -1</clus>
<clus scale="   90.318">  7  8 -1 -1</clus>
<clus scale="  136.921">  2  9  1 -1</clus>
<clus scale="  136.921">  2  5  1 -1</clus>
</clustering>
</event>
<event>
 9    2  0.9254368E-005  0.1242760E+03  0.7546771E-02  0.1250511E+00
         -1   -1    0    0    0  501 -0.00000000000E+00  0.00000000000E+00  0.42980116840E+03  0.42980116840E+03  0.00000000000E+00 0.  1.
         21   -1    0    0  501  502  0.00000000000E+00 -0.00000000000E+00 -0.76977858093E+02  0.76977858093E+02  0.00000000000E+00 0. -1.
         23    2    1    2    0    0 -0.49755404222E+01  0.13305395023E+02  0.28770777800E+01  0.93132446276E+02  0.91997746894E+02 0.  0.
         24    2    1    2    0    0 -0.59673099333E+02  0.63441992702E+02  0.21629186623E+03  0.24651460310E+03  0.80009455203E+02 0.  0.
        -13    1    4    4    0    0 -0.44927114421E+02  0.80163592263E+02  0.19553869008E+03  0.21605560963E+03  0.00000000000E+00 0.  1.
         14    1    4    4    0    0 -0.14745984911E+02 -0.16721599561E+02  0.20753176155E+02  0.30458993473E+02  0.00000000000E+00 0. -1.
        -13    1    3    3    0    0  0.34686385818E+02 -0.21033378919E+02 -0.41733262811E+00  0.40567506165E+02  0.00000000000E+00 0.  1.
         13    1    3    3    0    0 -0.39661926241E+02  0.34338773942E+02  0.32944104081E+01  0.52564940111E+02  0.00000000000E+00 0. -1.
         -2    1    1    2    0  502  0.64648639755E+02 -0.76747387725E+02  0.13365436629E+03  0.16713197711E+03  0.00000000000E+00 0.  1.
<scales pt_clust_5="13000.00000" pt_clust_6="13000.00000" pt_clust_7="13000.00000" pt_clust_8="13000.00000" pt_clust_9="95.09481"></scales>
<clustering>
<clus scale="   80.009">  5  6 -1 -1</clus>
<clus scale="   91.998">  7  8 -1 -1</clus>
<clus scale="   93.088">  1  7  2 -1</clus>
<clus scale="   95.095">  2  9  1 -1</clus>
<clus scale="   95.095">  2  5  1 -1</clus>
</clustering>
</event>
<event>
 9    2  0.9254368E-005  0.1591420E+03  0.7546771E-02  0.1191808E+00
         21   -1    0    0  501  502  0.00000000000E+00  0.00000000000E+00  0.78121290949E+02  0.78121290949E+02  0.00000000000E+00 0.  1.
          2   -1    0    0  502    0 -0.00000000000E+00 -0.00000000000E+00 -0.70382165091E+03  0.70382165091E+03  0.00000000000E+00 0. -1.
         24    2    1    2    0    0  0.12401967664E+03 -0.22202600786E+02 -0.29601426186E+03  0.33166352496E+03  0.80637552588E+02 0.  0.
         23    2    1    2    0    0 -0.14133829593E+03 -0.72395467423E+02 -0.12113910238E+03  0.22062624687E+03  0.93721081300E+02 0.  0.
        -11    1    3    3    0    0  0.57945044433E+02  0.30093971467E+02 -0.13236338592E+03  0.14759180609E+03  0.00000000000E+00 0.  1.
         12    1    3    3    0    0  0.66074632207E+02 -0.52296572253E+02 -0.16365087595E+03  0.18407171887E+03  0.00000000000E+00 0. -1.
        -11    1    4    4    0    0 -0.10138502248E+03 -0.11632209727E+02 -0.34978362053E+02  0.10787825034E+03  0.00000000000E+00 0.  1.
         11    1    4    4    0    0 -0.39953273458E+02 -0.60763257696E+02 -0.86160740329E+02  0.11274799652E+03  0.00000000000E+00 0. -1.
          1    1    1    2  501    0  0.17318619293E+02  0.94598068209E+02 -0.20854699572E+03  0.22965317003E+03  0.00000000000E+00 0. -1.
<scales pt_clust_5="13000.00000" pt_clust_6="13000.00000" pt_clust_7="13000.00000" pt_clust_8="13000.00000" pt_clust_9="96.17036"></scales>
<clustering>
<clus scale="   80.638">  5  6 -1 -1</clus>
<clus scale="   93.721">  7  8 -1 -1</clus>
<clus scale="   96.170">  1  9  2 -1</clus>
<clus scale="  151.806">  2  5  1 -1</clus>
<clus scale="   96.170">  1  5  2 -1</clus>
</clustering>
</event>
<event>
 9    2  0.9254368E-005  0.2334458E+03  0.7546771E-02  0.1160491E+00
          2   -1    0    0  502    0 -0.00000000000E+00  0.00000000000E+00  0.25848280203E+03  0.25848280203E+03  0.00000000000E+00 0. -1.
         21   -1    0    0  501  502  0.00000000000E+00 -0.00000000000E+00 -0.61885447125E+03  0.61885447125E+03  0.00000000000E+00 0. -1.
         24    2    1    2    0    0 -0.35952786672E+02 -0.45592016113E+02 -0.46300078208E+02  0.10811942004E+03  0.78580385238E+02 0.  0.
         23    2    1    2    0    0  0.10232315295E+03 -0.18276135193E+03 -0.44239595089E+03  0.49900048231E+03  0.97033832203E+02 0.  0.
        -13    1    3    3    0    0 -0.58899457222E+02 -0.45077685010E+02 -0.30195459511E+02  0.80080643866E+02  0.00000000000E+00 0.  1.
         14    1    3    3    0    0  0.22946670550E+02 -0.51433110366E+00 -0.16104618697E+02  0.28038776171E+02  0.00000000000E+00 0. -1.
        -13    1    4    4    0    0 -0.10931967336E+02 -0.70558620385E+02 -0.13952485767E+03  0.15673293441E+03  0.00000000000E+00 0.  1.
         13    1    4    4    0    0  0.11325512029E+03 -0.11220273154E+03 -0.30287109322E+03  0.34226754790E+03  0.00000000000E+00 0. -1.
          1    1    1    2  501    0 -0.66370366282E+02  0.22835336804E+03  0.12832435989E+03  0.27021737094E+03  0.00000000000E+00 0. -1.
<scales pt_clust_5="13000.00000" pt_clust_6="13000.00000" pt_clust_7="13000.00000" pt_clust_8="13000.00000" pt_clust_9="212.32389"></scales>
<clustering>
<clus scale="   78.580">  5  6 -1 -1</clus>
<clus scale="   97.034">  7  8 -1 -1</clus>
<clus scale="   97.704">  1  5  2 -1</clus>
<clus scale="  212.324">  2  9  1 -1</clus>
<clus scale="  212.324">  2  5  1 -1</clus>
</clustering>
</event>
<event>
 9    2  0.9254368E-005  0.1337459E+03  0.7546771E-02  0.1224514E+00
         21   -1    0    0  501  502  0.00000000000E+00  0.00000000000E+00  0.17158986575E+03  0.17158986575E+03  0.00000000000E+00 0. -1.
          4   -1    0    0  502    0 -0.00000000000E+00 -0.00000000000E+00 -0.20653112196E+03  0.20653112196E+03  0.00000000000E+00 0. -1.
         24    2    1    2    0    0  0.68941058507E+02  0.58202741972E+02  0.20579166300E+02  0.12214355712E+03  0.79718992343E+02 0.  0.
         23    2    1    2    0    0 -0.18292753011E+02 -0.12129655603E+03  0.89449300651E+01  0.15252762679E+03  0.90206351452E+02 0.  0.
        -11    1    3    3    0    0  0.27375993014E+02  0.22660507699E+02  0.48984147233E+02  0.60517685703E+02  0.00000000000E+00 0.  1.
         12    1    3    3    0    0  0.41565065493E+02  0.35542234274E+02 -0.28404980933E+02  0.61625871422E+02  0.00000000000E+00 0. -1.
        -11    1    4    4    0    0 -0.19288477711E+02 -0.26454626174E+02 -0.35059726467E+02  0.47969542820E+02  0.00000000000E+00 0.  1.
         11    1    4    4    0    0  0.99572469928E+00 -0.94841929860E+02  0.44004656533E+02  0.10455808397E+03  0.00000000000E+00 0. -1.
          3    1    1    2  501    0 -0.50648305496E+02  0.63093814062E+02 -0.64465352580E+02  0.10344980380E+03  0.00000000000E+00 0. -1.
<scales pt_clust_5="13000.00000" pt_clust_6="13000.00000" pt_clust_7="13000.00000" pt_clust_8="13000.00000" pt_clust_9="80.90789"></scales>
<clustering>
<clus scale="   79.719">  5  6 -1 -1</clus>
<clus scale="   80.908">  1  9  2 -1</clus>
<clus scale="   90.206">  7  8 -1 -1</clus>
<clus scale="  126.909">  2  5  1 -1</clus>
<clus scale="   80.908">  1  5  2 -1</clus>
</clustering>
</event>
<event>
 9    2  0.9254368E-005  0.1956449E+03  0.7546771E-02  0.1162975E+00
         -1   -1    0    0    0  501 -0.00000000000E+00  0.00000000000E+00  0.47720756354E+03  0.47720756354E+03  0.00000000000E+00 0.  1.
         21   -1    0    0  501  502  0.00000000000E+00 -0.00000000000E+00 -0.32447239966E+03  0.32447239966E+03  0.00000000000E+00 0.  1.
         24    2    1    2    0    0  0.24480613062E+01 -0.13463477445E+03  0.12413409747E+03  0.19989964771E+03  0.80112917235E+02 0.  0.
         23    2    1    2    0    0 -0.17407307496E+03  0.14062611527E+03  0.23235926263E+03  0.33530621918E+03  0.91445579269E+02 0.  0.
        -11    1    3    3    0    0  0.16662062419E+02 -0.45294076980E+02  0.25182887572E+01  0.48327212953E+02  0.00000000000E+00 0.  1.
         12    1    3    3    0    0 -0.14214001113E+02 -0.89340697466E+02  0.12161580871E+03  0.15157243476E+03  0.00000000000E+00 0. -1.
        -11    1    4    4    0    0 -0.21231204990E+02  0.53369620986E+02  0.23182123170E+02  0.61939416725E+02  0.00000000000E+00 0. -1.
         11    1    4    4    0    0 -0.15284186997E+03  0.87256494282E+02  0.20917713946E+03  0.27336680246E+03  0.00000000000E+00 0.  1.
         -2    1    1    2    0  502  0.17162501366E+03 -0.59913408229E+01 -0.20375819621E+03  0.26647409630E+03  0.00000000000E+00 0.  1.
<scales pt_clust_5="13000.00000" pt_clust_6="13000.00000" pt_clust_7="13000.00000" pt_clust_8="13000.00000" pt_clust_9="172.95844"></scales>
<clustering>
<clus scale="   80.113">  5  6 -1 -1</clus>
<clus scale="   91.446">  7  8 -1 -1</clus>
<clus scale="  156.686">  1  5  2 -1</clus>
<clus scale="  172.958">  2  9  1 -1</clus>
<clus scale="  172.958">  2  5  1 -1</clus>
</clustering>
</event>
<event>
 9    2  0.9254368E-005  0.2177731E+03  0.7546771E-02  0.1135554E+00
          2   -1    0    0  502    0 -0.00000000000E+00  0.00000000000E+00  0.16116828497E+04  0.16116828497E+04  0.00000000000E+00 0. -1.
         21   -1    0    0  501  502  0.00000000000E+00 -0.00000000000E+00 -0.18068014810E+02  0.18068014810E+02  0.00000000000E+00 0. -1.
         24    2    1    2    0    0 -0.47320118965E+02  0.70403914679E+02  0.76969240016E+03  0.77850046647E+03  0.80253850831E+02 0.  0.
         23    2    1    2    0    0 -0.21195479444E+02  0.25279231658E+02  0.40021885552E+03  0.41150686511E+03  0.89858109347E+02 0.  0.
        -11    1    3    3    0    0 -0.61797490642E+02  0.24169986873E+02  0.37247481883E+03  0.37833927734E+03  0.00000000000E+00 0.  1.
         12    1    3    3    0    0  0.14477371677E+02  0.46233927806E+02  0.39721758133E+03  0.40016118914E+03  0.00000000000E+00 0. -1.
        -13    1    4    4    0    0 -0.46894547533E+02 -0.11061846684E+02  0.15621291081E+03  0.16347457461E+03  0.00000000000E+00 0. -1.
         13    1    4    4    0    0  0.25699068089E+02  0.36341078342E+02  0.24400594471E+03  0.24803229050E+03  0.00000000000E+00 0.  1.
          1    1    1    2  501    0  0.68515598409E+02 -0.95683146337E+02  0.42370357924E+03  0.43974353296E+03  0.00000000000E+00 0. -1.
<scales pt_clust_5="13000.00000" pt_clust_6="13000.00000" pt_clust_7="13000.00000" pt_clust_8="13000.00000" pt_clust_9="117.68454"></scales>
<clustering>
<clus scale="   80.254">  5  6 -1 -1</clus>
<clus scale="   89.858">  7  8 -1 -1</clus>
<clus scale="   93.597">  5  7 -1 -1</clus>
<clus scale="  117.685">  2  9  1 -1</clus>
<clus scale="  117.685">  2  5  1 -1</clus>
</clustering>
</event>
<event>
 9    2  0.9254368E-005  0.1356653E+03  0.7546771E-02  0.1230918E+00
          2   -1    0    0  502    0 -0.00000000000E+00  0.00000000000E+00  0.46810364552E+03  0.46810364552E+03  0.00000000000E+00 0. -1.
         21   -1    0    0  501  502  0.00000000000E+00 -0.00000000000E+00 -0.12849931820E+03  0.12849931820E+03  0.00000000000E+00 0. -1.
         23    2    1    2    0    0  0.14449263296E+02  0.54907499513E+02  0.47586386985E+02  0.11663238489E+03  0.90083484975E+02 0.  0.
         24    2    1    2    0    0 -0.81339748711E+02  0.34384045732E+02  0.33838506042E+03  0.35915159475E+03  0.81774088659E+02 0.  0.
        -11    1    4    4    0    0 -0.18482109882E+02  0.20661334318E+02  0.19628959119E+02  0.33967265971E+02  0.00000000000E+00 0.  1.
         12    1    4    4    0    0 -0.62857638829E+02  0.13722711415E+02  0.31875610130E+03  0.32518432878E+03  0.00000000000E+00 0. -1.
        -11    1    3    3    0    0  0.14399767382E+02  0.75655354894E+02  0.54959786679E+02  0.94613234680E+02  0.00000000000E+00 0.  1.
         11    1    3    3    0    0  0.49495913793E-01 -0.20747855381E+02 -0.73733996941E+01  0.22019150206E+02  0.00000000000E+00 0. -1.
          1    1    1    2  501    0  0.66890485415E+02 -0.89291545246E+02 -0.46367120087E+02  0.12081898409E+03  0.00000000000E+00 0. -1.
<scales pt_clust_5="13000.00000" pt_clust_6="13000.00000" pt_clust_7="13000.00000" pt_clust_8="13000.00000" pt_clust_9="108.25000"></scales>
<clustering>
<clus scale="   81.774">  5  6 -1 -1</clus>
<clus scale="   90.083">  7  8 -1 -1</clus>
<clus scale="  106.483">  1  7  2 -1</clus>
<clus scale="  108.250">  2  9  1 -1</clus>
<clus scale="  108.250">  2  5  1 -1</clus>
</clustering>
</event>
<event>
 9    2  0.9254368E-005  0.2293698E+03  0.7546771E-02  0.1161550E+00
          2   -1    0    0  502    0 -0.00000000000E+00  0.00000000000E+00  0.54751531509E+03  0.54751531509E+03  0.00000000000E+00 0. -1.
         21   -1    0    0  501  502  0.00000000000E+00 -0.00000000000E+00 -0.20387017226E+03  0.20387017226E+03  0.00000000000E+00 0.  1.
         23    2    1    2    0    0 -0.67504551932E+01  0.42765545472E+02  0.22276799542E+03  0.24439015647E+03  0.90700100727E+02 0.  0.
         24    2    1    2    0    0  0.47906415176E+02  0.19146194501E+03 -0.36689344329E+02  0.22171734425E+03  0.94126360555E+02 0.  0.
        -11    1    4    4    0    0  0.71169581973E+02  0.16747050008E+03 -0.16589338294E+02  0.18272023408E+03  0.00000000000E+00 0.  1.
         12    1    4    4    0    0 -0.23263166797E+02  0.23991444928E+02 -0.20100006035E+02  0.38997110172E+02  0.00000000000E+00 0. -1.
        -13    1    3    3    0    0 -0.12621252107E+02 -0.26564788566E+02  0.48166179109E+02  0.56435492434E+02  0.00000000000E+00 0.  1.
         13    1    3    3    0    0  0.58707969140E+01  0.69330334038E+02  0.17460181631E+03  0.18795466403E+03  0.00000000000E+00 0. -1.
          1    1    1    2  501    0 -0.41155959983E+02 -0.23422749048E+03  0.15756649174E+03  0.28527798663E+03  0.00000000000E+00 0. -1.
<scales pt_clust_5="13000.00000" pt_clust_6="13000.00000" pt_clust_7="13000.00000" pt_clust_8="13000.00000" pt_clust_9="209.16683"></scales>
<clustering>
<clus scale="   90.700">  7  8 -1 -1</clus>
<clus scale="   94.126">  5  6 -1 -1</clus>
<clus scale="  100.504">  1  7  2 -1</clus>
<clus scale="  209.167">  2  9  1 -1</clus>
<clus scale="  209.167">  2  5  1 -1</clus>
</clustering>
</event>
<event>
 9    2  0.9254368E-005  0.1616757E+03  0.7546771E-02  0.1199720E+00
         21   -1    0    0  501  502  0.00000000000E+00  0.00000000000E+00  0.23712531783E+02  0.23712531783E+02  0.00000000000E+00 0.  1.
          2   -1    0    0  502    0 -0.00000000000E+00 -0.00000000000E+00 -0.24011799231E+04  0.24011799231E+04  0.00000000000E+00 0. -1.
         23    2    1    2    0    0 -0.58160486883E+02 -0.55327092230E+02 -0.29441130527E+03  0.31859929925E+03  0.91562915223E+02 0.  0.
         24    2    1    2    0    0 -0.50468010341E+02  0.14319363240E+03 -0.11194715919E+04  0.11326321486E+04  0.81163430798E+02 0.  0.
        -13    1    4    4    0    0 -0.53518213449E+02  0.67289189624E+02 -0.39848940346E+03  0.40765897376E+03  0.00000000000E+00 0.  1.
         14    1    4    4    0    0  0.30502031083E+01  0.75904442774E+02 -0.72098218845E+03  0.72497317483E+03  0.00000000000E+00 0. -1.
        -11    1    3    3    0    0 -0.52650532617E+02  0.68040868558E+01 -0.18700749684E+03  0.19439696000E+03  0.00000000000E+00 0. -1.
         11    1    3    3    0    0 -0.55099542658E+01 -0.62131179086E+02 -0.10740380844E+03  0.12420233926E+03  0.00000000000E+00 0.  1.
          1    1    1    2  501    0  0.10862849722E+03 -0.87866540167E+02 -0.96358449410E+03  0.97366100700E+03  0.00000000000E+00 0. -1.
<scales pt_clust_5="13000.00000" pt_clust_6="13000.00000" pt_clust_7="13000.00000" pt_clust_8="13000.00000" pt_clust_9="139.82684"></scales>
<clustering>
<clus scale="   81.163">  5  6 -1 -1</clus>
<clus scale="   91.563">  7  8 -1 -1</clus>
<clus scale="  121.768">  2  7  1 -1</clus>
<clus scale="  139.827">  1  9  2 -1</clus>
<clus scale="  139.827">  1  5  2 -1</clus>
</clustering>
</event>
<event>
 9    2  0.9254368E-005  0.2324759E+03  0.7546771E-02  0.1125537E+00
         -3   -1    0    0    0  501 -0.00000000000E+00  0.00000000000E+00  0.28165483845E+03  0.28165483845E+03  0.00000000000E+00 0.  1.
         21   -1    0    0  501  502  0.00000000000E+00 -0.00000000000E+00 -0.65944510156E+03  0.65944510156E+03  0.00000000000E+00 0.  1.
         23    2    1    2    0    0 -0.21096211577E+03 -0.59547272484E+02  0.17865906119E+03  0.29680995287E+03  0.90145416004E+02 0.  0.
         24    2    1    2    0    0  0.16451315929E+03  0.11194000846E+03 -0.24793745505E+03  0.32793247132E+03  0.80446125203E+02 0.  0.
        -11    1    4    4    0    0  0.16885621782E+03  0.11850831057E+03 -0.24243628846E+03  0.31832686964E+03  0.00000000000E+00 0.  1.
         12    1    4    4    0    0 -0.43430585334E+01 -0.65683021040E+01 -0.55011665845E+01  0.96056016857E+01  0.00000000000E+00 0. -1.
        -11    1    3    3    0    0 -0.79388552644E+02  0.59227650499E+01  0.10683853265E+03  0.13323698246E+03  0.00000000000E+00 0.  1.
         11    1    3    3    0    0 -0.13157356313E+03 -0.65470037534E+02  0.71820528541E+02  0.16357297041E+03  0.00000000000E+00 0. -1.
         -4    1    1    2    0  502  0.46448956479E+02 -0.52392735979E+02 -0.30851186926E+03  0.31635751582E+03  0.00000000000E+00 0.  1.
<scales pt_clust_5="13000.00000" pt_clust_6="13000.00000" pt_clust_7="13000.00000" pt_clust_8="13000.00000" pt_clust_9="70.01789"></scales>
<clustering>
<clus scale="   70.018">  2  9  1 -1</clus>
<clus scale="   80.446">  5  6 -1 -1</clus>
<clus scale="   90.145">  7  8 -1 -1</clus>
<clus scale="  228.890">  2  5  1 -1</clus>
<clus scale="   70.018">  2  5  1 -1</clus>
</clustering>
</event>
<event>
 9    2  0.9254368E-005  0.1586008E+03  0.7546771E-02  0.1191938E+00
         21   -1    0    0  501  502  0.00000000000E+00  0.00000000000E+00  0.57720411396E+02  0.57720411396E+02  0.00000000000E+00 0.  1.
          2   -1    0    0  502    0 -0.00000000000E+00 -0.00000000000E+00 -0.84402198480E+03  0.84402198480E+03  0.00000000000E+00 0. -1.
         24    2    1    2    0    0 -0.71182336198E+01 -0.14774271280E+03 -0.62470160283E+03  0.64701103213E+03  0.80576700674E+02 0.  0.
         23    2    1    2    0    0  0.28110826512E+02  0.85479472831E+02 -0.12794289633E+03  0.18090590331E+03  0.90887855570E+02 0.  0.
        -13    1    3    3    0    0  0.22961921071E+02 -0.32791818483E+02 -0.79481896745E+02  0.88993960968E+02  0.00000000000E+00 0.  1.
         14    1    3    3    0    0 -0.30080154691E+02 -0.11495089432E+03 -0.54521970608E+03  0.55801707116E+03  0.00000000000E+00 0. -1.
        -13    1    4    4    0    0 -0.20805269150E+02  0.47129251929E+02 -0.10055189457E+03  0.11298101218E+03  0.00000000000E+00 0. -1.
         13    1    4    4    0    0  0.48916095662E+02  0.38350220902E+02 -0.27391001759E+02  0.67924891133E+02  0.00000000000E+00 0.  1.
          1    1    1    2  501    0 -0.20992592892E+02  0.62263239969E+02 -0.33657074247E+02  0.73825460748E+02  0.00000000000E+00 0. -1.
<scales pt_clust_5="13000.00000" pt_clust_6="13000.00000" pt_clust_7="13000.00000" pt_clust_8="13000.00000" pt_clust_9="65.70693"></scales>
<clustering>
<clus scale="   65.707">  1  9  2 -1</clus>
<clus scale="   80.577">  5  6 -1 -1</clus>
<clus scale="   90.888">  7  8 -1 -1</clus>
<clus scale="  152.925">  2  5  1 -1</clus>
<clus scale="   65.707">  1  5  2 -1</clus>
</clustering>
</event>
<event>
 9    2  0.9254368E-005  0.1244224E+03  0.7546771E-02  0.1251745E+00
          2   -1    0    0  502    0 -0.00000000000E+00  0.00000000000E+00  0.86262938643E+03  0.86262938643E+03  0.00000000000E+00 0. -1.
         21   -1    0    0  501  502  0.00000000000E+00 -0.00000000000E+00 -0.59033651455E+02  0.59033651455E+02  0.00000000000E+00 0. -1.
         24    2    1    2    0    0 -0.37470423903E+02  0.43577796086E+02  0.55930638980E+03  0.56784869586E+03  0.79532677137E+02 0.  0.
         23    2    1    2    0    0 -0.88237627098E+01 -0.95705064224E+01  0.26728921547E+03  0.29193832487E+03  0.11668336402E+03 0.  0.
        -13    1    3    3    0    0 -0.61586243176E+02  0.21396101742E+02  0.35653576089E+03  0.36244779943E+03  0.00000000000E+00 0.  1.
         14    1    3    3    0    0  0.24115819272E+02  0.22181694344E+02  0.20277062891E+03  0.20540089643E+03  0.00000000000E+00 0. -1.
        -11    1    4    4    0    0  0.24801507017E+02 -0.45751482947E+02  0.20973463876E+03  0.21609472839E+03  0.00000000000E+00 0.  1.
         11    1    4    4    0    0 -0.33625269727E+02  0.36180976524E+02  0.57554576714E+02  0.75843596481E+02  0.00000000000E+00 0. -1.
          1    1    1    2  501    0  0.46294186613E+02 -0.34007289664E+02 -0.22999870307E+02  0.61876017152E+02  0.00000000000E+00 0. -1.
<scales pt_clust_5="13000.00000" pt_clust_6="13000.00000" pt_clust_7="13000.00000" pt_clust_8="13000.00000" pt_clust_9="57.44256"></scales>
<clustering>
<clus scale="   57.443">  2  9  1 -1</clus>
<clus scale="   79.533">  5  6 -1 -1</clus>
<clus scale="   90.506">  1  5  2 -1</clus>
<clus scale="  116.683">  7  8 -1 -1</clus>
<clus scale="   57.443">  2  5  1 -1</clus>
</clustering>
</event>
<event>
 9    2  0.9254368E-005  0.1089149E+03  0.7546771E-02  0.1267074E+00
         -1   -1    0    0    0  501 -0.00000000000E+00  0.00000000000E+00  0.89137958767E+02  0.89137958767E+02  0.00000000000E+00 0.  1.
         21   -1    0    0  501  502  0.00000000000E+00 -0.00000000000E+00 -0.29133022188E+03  0.29133022188E+03  0.00000000000E+00 0.  1.
         24    2    1    2    0    0  0.55510201774E+02 -0.23121806420E+02 -0.35689720625E+02  0.10637358271E+03  0.80159731211E+02 0.  0.
         23    2    1    2    0    0 -0.65734551162E+02 -0.18427451055E+02 -0.19273169017E+03  0.22390648873E+03  0.91257926404E+02 0.  0.
        -13    1    3    3    0    0  0.45769718365E+02 -0.43014773337E+02  0.17925698142E+01  0.62835906542E+02  0.00000000000E+00 0.  1.
         14    1    3    3    0    0  0.97404834089E+01  0.19892966917E+02 -0.37482290439E+02  0.43537676171E+02  0.00000000000E+00 0. -1.
        -13    1    4    4    0    0 -0.27955155344E+02 -0.20234545568E+02 -0.81094823511E+01  0.35449841307E+02  0.00000000000E+00 0. -1.
         13    1    4    4    0    0 -0.37779395818E+02  0.18070945135E+01 -0.18462220782E+03  0.18845664742E+03  0.00000000000E+00 0.  1.
         -2    1    1    2    0  502  0.10224349389E+02  0.41549257475E+02  0.26229147682E+02  0.50188109202E+02  0.00000000000E+00 0.  1.
<scales pt_clust_5="13000.00000" pt_clust_6="13000.00000" pt_clust_7="13000.00000" pt_clust_8="13000.00000" pt_clust_9="42.78878"></scales>
<clustering>
<clus scale="   42.789">  2  9  1 -1</clus>
<clus scale="   80.160">  5  6 -1 -1</clus>
<clus scale="   91.258">  7  8 -1 -1</clus>
<clus scale="   99.800">  1  5  2 -1</clus>
<clus scale="   42.789">  2  5  1 -1</clus>
</clustering>
</event>
<event>
 9    2  0.9254368E-005  0.1578406E+03  0.7546771E-02  0.1194342E+00
         21   -1    0    0  501  502  0.00000000000E+00  0.00000000000E+00  0.10793648192E+03  0.10793648192E+03  0.00000000000E+00 0.  1.
         -1   -1    0    0    0  501 -0.00000000000E+00 -0.00000000000E+00 -0.60553564711E+03  0.60553564711E+03  0.00000000000E+00 0.  1.
         23    2    1    2    0    0  0.14583273978E+03  0.49952575187E+02 -0.41759890766E+03  0.45613774446E+03  0.99550723164E+02 0.  0.
         24    2    1    2    0    0 -0.82340122933E+02 -0.20241669673E+02 -0.12685462549E+03  0.17301723271E+03  0.81567430826E+02 0.  0.
        -11    1    4    4    0    0 -0.16542095261E+02  0.24618045032E+02 -0.94046289825E+01  0.31114885555E+02  0.00000000000E+00 0.  1.
         12    1    4    4    0    0 -0.65798027673E+02 -0.44859714705E+02 -0.11744999651E+03  0.14190234716E+03  0.00000000000E+00 0. -1.
        -11    1    3    3    0    0  0.28423701934E+02 -0.16048210816E+02 -0.18072258090E+03  0.18364668020E+03  0.00000000000E+00 0.  1.
         11    1    3    3    0    0  0.11740903785E+03  0.66000786003E+02 -0.23687632676E+03  0.27249106426E+03  0.00000000000E+00 0. -1.
         -2    1    1    2    0  502 -0.63492616850E+02 -0.29710905514E+02  0.46854367963E+02  0.84317151862E+02  0.00000000000E+00 0.  1.
<scales pt_clust_5="13000.00000" pt_clust_6="13000.00000" pt_clust_7="13000.00000" pt_clust_8="13000.00000" pt_clust_9="70.10029"></scales>
<clustering>
<clus scale="   70.100">  1  9  2 -1</clus>
<clus scale="   81.567">  5  6 -1 -1</clus>
<clus scale="   99.551">  7  8 -1 -1</clus>
<clus scale="  147.162">  1  5  2 -1</clus>
<clus scale="   70.100">  1  5  2 -1</clus>
</clustering>
</event>
<event>
 9    2  0.9254368E-005  0.9513618E+02  0.7546771E-02  0.1310641E+00
         21   -1    0    0  501  502  0.00000000000E+00  0.00000000000E+00  0.42775591827E+02  0.42775591827E+02  0.00000000000E+00 0.  1.
          4   -1    0    0  502    0 -0.00000000000E+00 -0.00000000000E+00 -0.33048213259E+03  0.33048213259E+03  0.00000000000E+00 0. -1.
         24    2    1    2    0    0  0.26230506992E+01 -0.16511754093E+02 -0.69043005658E+02  0.93135221076E+02  0.60230510180E+02 0.  0.
         23    2    1    2    0    0  0.44509706752E+02  0.40416221615E+02 -0.91673742237E+02  0.14257495562E+03  0.91153485880E+02 0.  0.
        -13    1    3    3    0    0  0.28215391286E+02 -0.19193468881E+02 -0.52255331168E+02  0.62410873961E+02  0.00000000000E+00 0.  1.
         14    1    3    3    0    0 -0.25592340586E+02  0.26817147883E+01 -0.16787674490E+02  0.30724347116E+02  0.00000000000E+00 0. -1.
        -11    1    4    4    0    0  0.18986741062E+02  0.57521302927E+02 -0.93929723603E+02  0.11176756955E+03  0.00000000000E+00 0. -1.
         11    1    4    4    0    0  0.25522965690E+02 -0.17105081313E+02  0.22559813660E+01  0.30807386067E+02  0.00000000000E+00 0.  1.
          3    1    1    2  501    0 -0.47132757451E+02 -0.23904467522E+02 -0.12698979287E+03  0.13754754772E+03  0.00000000000E+00 0. -1.
<scales pt_clust_5="13000.00000" pt_clust_6="13000.00000" pt_clust_7="13000.00000" pt_clust_8="13000.00000" pt_clust_9="52.84811"></scales>
<clustering>
<clus scale="   52.848">  1  9  2 -1</clus>
<clus scale="   60.231">  5  6 -1 -1</clus>
<clus scale="   66.103">  2  5  1 -1</clus>
<clus scale="   91.153">  7  8 -1 -1</clus>
<clus scale="   52.848">  1  5  2 -1</clus>
</clustering>
</event>
<event>
 9    2  0.9254368E-005  0.1411607E+03  0.7546771E-02  0.1213589E+00
         21   -1    0    0  501  502  0.00000000000E+00  0.00000000000E+00  0.22959274803E+03  0.22959274803E+03  0.00000000000E+00 0.  1.
          2   -1    0    0  502    0 -0.00000000000E+00 -0.00000000000E+00 -0.99397156769E+02  0.99397156769E+02  0.00000000000E+00 0. -1.
         24    2    1    2    0    0  0.84406426498E+02  0.52366649661E+02  0.49794303685E+02  0.13819088135E+03  0.82161646633E+02 0.  0.
         23    2    1    2    0    0 -0.99286874171E+02 -0.67172786838E+02  0.78843544441E+02  0.16974965328E+03  0.90711485563E+02 0.  0.
        -13    1    3    3    0    0  0.49915317193E+02 -0.15929009924E+02  0.19906511443E+02  0.56049455354E+02  0.00000000000E+00 0.  1.
         14    1    3    3    0    0  0.34491109305E+02  0.68295659585E+02  0.29887792241E+02  0.82141425994E+02  0.00000000000E+00 0. -1.
        -13    1    4    4    0    0 -0.19906175901E+02  0.18172462173E+02  0.37284721482E+02  0.46007006819E+02  0.00000000000E+00 0.  1.
         13    1    4    4    0    0 -0.79380698269E+02 -0.85345249011E+02  0.41558822959E+02  0.12374264646E+03  0.00000000000E+00 0. -1.
          1    1    1    2  501    0  0.14880447673E+02  0.14806137177E+02  0.15577431340E+01  0.21049370174E+02  0.00000000000E+00 0. -1.
<scales pt_clust_5="13000.00000" pt_clust_6="13000.00000" pt_clust_7="13000.00000" pt_clust_8="13000.00000" pt_clust_9="20.99166"></scales>
<clustering>
<clus scale="   20.992">  1  9  2 -1</clus>
<clus scale="   82.162">  5  6 -1 -1</clus>
<clus scale="   90.711">  7  8 -1 -1</clus>
<clus scale="  135.825">  2  5  1 -1</clus>
<clus scale="   20.992">  1  5  2 -1</clus>
</clustering>
</event>
<event>
 9    2  0.9254368E-005  0.9350762E+02  0.7546771E-02  0.1298549E+00
         -1   -1    0    0    0  501 -0.00000000000E+00  0.00000000000E+00  0.46029576101E+03  0.46029576101E+03  0.00000000000E+00 0.  1.
         21   -1    0    0  501  502  0.00000000000E+00 -0.00000000000E+00 -0.29825303866E+02  0.29825303866E+02  0.00000000000E+00 0. -1.
         24    2    1    2    0    0  0.17263730206E+01  0.19802363473E+01  0.27106157048E+03  0.28460539944E+03  0.86711917875E+02 0.  0.
         23    2    1    2    0    0  0.24215091072E+02 -0.26443941835E+01  0.92151205152E+02  0.13342546924E+03  0.93365667000E+02 0.  0.
        -11    1    3    3    0    0 -0.26577848278E+02  0.32548624994E+02  0.98551989131E+02  0.10713677972E+03  0.00000000000E+00 0.  1.
         12    1    3    3    0    0  0.28304221298E+02 -0.30568388647E+02  0.17250958134E+03  0.17746861971E+03  0.00000000000E+00 0. -1.
        -13    1    4    4    0    0  0.18690571253E+02  0.30260503494E+02  0.15722029337E+00  0.35567685386E+02  0.00000000000E+00 0. -1.
         13    1    4    4    0    0  0.55245198188E+01 -0.32904897678E+02  0.91993984858E+02  0.97857783853E+02  0.00000000000E+00 0.  1.
         -2    1    1    2    0  502 -0.25941464092E+02  0.66415783622E+00  0.67257681517E+02  0.72090196198E+02  0.00000000000E+00 0.  1.
<scales pt_clust_5="13000.00000" pt_clust_6="13000.00000" pt_clust_7="13000.00000" pt_clust_8="13000.00000" pt_clust_9="25.94998"></scales>
<clustering>
<clus scale="   25.950">  2  9  1 -1</clus>
<clus scale="   86.712">  5  6 -1 -1</clus>
<clus scale="   86.865">  1  5  2 -1</clus>
<clus scale="   93.366">  7  8 -1 -1</clus>
<clus scale="   25.950">  2  5  1 -1</clus>
</clustering>
</event>
<event>
 9    2  0.9254368E-005  0.9967959E+02  0.7546771E-02  0.1286302E+00
         21   -1    0    0  501  502  0.00000000000E+00  0.00000000000E+00  0.20463411958E+03  0.20463411958E+03  0.00000000000E+00 0. -1.
          2   -1    0    0  502    0 -0.00000000000E+00 -0.00000000000E+00 -0.95086630153E+02  0.95086630153E+02  0.00000000000E+00 0. -1.
         23    2    1    2    0    0  0.26285004011E+02 -0.15491747049E+02 -0.30284273051E+02  0.10213659925E+03  0.92649080132E+02 0.  0.
         24    2    1    2    0    0 -0.36644024170E+02  0.39541413388E+02  0.63977353895E+02  0.11733711284E+03  0.82271430991E+02 0.  0.
        -11    1    4    4    0    0 -0.34510161122E+02  0.57298144332E+02  0.71522688257E+02  0.97926112452E+02  0.00000000000E+00 0.  1.
         12    1    4    4    0    0 -0.21338630484E+01 -0.17756730944E+02 -0.75453343617E+01  0.19411000385E+02  0.00000000000E+00 0. -1.
        -11    1    3    3    0    0  0.40151151961E+00 -0.22358121950E+02 -0.58865886968E+02  0.62970147508E+02  0.00000000000E+00 0. -1.
         11    1    3    3    0    0  0.25883492491E+02  0.68663749004E+01  0.28581613917E+02  0.39166451741E+02  0.00000000000E+00 0.  1.
          1    1    1    2  501    0  0.10359020159E+02 -0.24049666339E+02  0.75854408578E+02  0.80247037642E+02  0.00000000000E+00 0. -1.
<scales pt_clust_5="13000.00000" pt_clust_6="13000.00000" pt_clust_7="13000.00000" pt_clust_8="13000.00000" pt_clust_9="26.18579"></scales>
<clustering>
<clus scale="   26.186">  1  9  2 -1</clus>
<clus scale="   82.271">  5  6 -1 -1</clus>
<clus scale="   90.115">  1  5  2 -1</clus>
<clus scale="   92.649">  7  8 -1 -1</clus>
<clus scale="   26.186">  1  5  2 -1</clus>
</clustering>
</event>
<event>
 9    2  0.9254368E-005  0.1989244E+03  0.7546771E-02  0.1170096E+00
          2   -1    0    0  502    0 -0.00000000000E+00  0.00000000000E+00  0.20570365521E+04  0.20570365521E+04  0.00000000000E+00 0. -1.
         21   -1    0    0  501  502  0.00000000000E+00 -0.00000000000E+00 -0.86277347751E+02  0.86277347751E+02  0.00000000000E+00 0. -1.
         24    2    1    2    0    0  0.76805596887E+02  0.58627579010E+02  0.97060989208E+03  0.97882277425E+03  0.81695581653E+02 0.  0.
         23    2    1    2    0    0 -0.18503726481E+03 -0.18472863314E+03  0.95178871100E+03  0.99141796895E+03  0.92975166067E+02 0.  0.
        -13    1    3    3    0    0  0.74473373729E+02  0.24686343118E+02  0.42692531640E+03  0.43407479161E+03  0.00000000000E+00 0.  1.
         14    1    3    3    0    0  0.23322231576E+01  0.33941235892E+02  0.54368457568E+03  0.54474798264E+03  0.00000000000E+00 0. -1.
        -11    1    4    4    0    0 -0.12951073510E+02 -0.62142732936E+02  0.28374256819E+03  0.29075641792E+03  0.00000000000E+00 0.  1.
         11    1    4    4    0    0 -0.17208619130E+03 -0.12258590020E+03  0.66804614281E+03  0.70066155103E+03  0.00000000000E+00 0. -1.
          1    1    1    2  501    0  0.10823166792E+03  0.12610105413E+03  0.48360601260E+02  0.17307315664E+03  0.00000000000E+00 0. -1.
<scales pt_clust_5="13000.00000" pt_clust_6="13000.00000" pt_clust_7="13000.00000" pt_clust_8="13000.00000" pt_clust_9="175.85945"></scales>
<clustering>
<clus scale="   81.696">  5  6 -1 -1</clus>
<clus scale="   92.975">  7  8 -1 -1</clus>
<clus scale="  126.532">  1  5  2 -1</clus>
<clus scale="  175.859">  2  9  1 -1</clus>
<clus scale="  175.859">  2  5  1 -1</clus>
</clustering>
</event>
<event>
 9    2  0.9254368E-005  0.9950665E+02  0.7546771E-02  0.1286485E+00
          2   -1    0    0  502    0 -0.00000000000E+00  0.00000000000E+00  0.11785518723E+04  0.11785518723E+04  0.00000000000E+00 0. -1.
         21   -1    0    0  501  502  0.00000000000E+00 -0.00000000000E+00 -0.54053431936E+02  0.54053431936E+02  0.00000000000E+00 0. -1.
         24    2    1    2    0    0 -0.21541884264E+02 -0.40052032666E+02  0.96320145964E+03  0.96761075137E+03  0.80282602138E+02 0.  0.
         23    2    1    2    0    0  0.28238077745E+02  0.69110385698E+01  0.19518959179E+03  0.21712103631E+03  0.90539583478E+02 0.  0.
        -13    1    3    3    0    0 -0.20830905534E+02 -0.58514456509E+01  0.60350997984E+02  0.64112471480E+02  0.00000000000E+00 0.  1.
         14    1    3    3    0    0 -0.71097872960E+00 -0.34200587015E+02  0.90285046166E+03  0.90349827989E+03  0.00000000000E+00 0. -1.
        -13    1    4    4    0    0  0.47169831671E+02 -0.25248455017E+02  0.81753957801E+02  0.97704591074E+02  0.00000000000E+00 0.  1.
         13    1    4    4    0    0 -0.18931753927E+02  0.32159493587E+02  0.11343563399E+03  0.11941644524E+03  0.00000000000E+00 0. -1.
          1    1    1    2  501    0 -0.66961934807E+01  0.33140994096E+02 -0.33892611104E+02  0.47873516523E+02  0.00000000000E+00 0. -1.
<scales pt_clust_5="13000.00000" pt_clust_6="13000.00000" pt_clust_7="13000.00000" pt_clust_8="13000.00000" pt_clust_9="33.81072"></scales>
<clustering>
<clus scale="   33.811">  2  9  1 -1</clus>
<clus scale="   80.283">  5  6 -1 -1</clus>
<clus scale="   90.274">  1  5  2 -1</clus>
<clus scale="   90.540">  7  8 -1 -1</clus>
<clus scale="   33.811">  2  5  1 -1</clus>
</clustering>
</event>
<event>
 9    2  0.9254368E-005  0.1336070E+03  0.7546771E-02  0.1224843E+00
          2   -1    0    0  502    0 -0.00000000000E+00  0.00000000000E+00  0.25272236057E+03  0.25272236057E+03  0.00000000000E+00 0. -1.
         21   -1    0    0  501  502  0.00000000000E+00 -0.00000000000E+00 -0.23183912133E+03  0.23183912133E+03  0.00000000000E+00 0. -1.
         24    2    1    2    0    0 -0.80003780030E+02 -0.78074216444E+02  0.18104248143E+03  0.22775170793E+03  0.81229750033E+02 0.  0.
         23    2    1    2    0    0  0.41376074095E+02 -0.12083478166E+02 -0.94726034352E+02  0.13890297072E+03  0.91994694086E+02 0.  0.
        -13    1    3    3    0    0 -0.21952108199E+02  0.11281147587E+02  0.68296677467E+02  0.72619525599E+02  0.00000000000E+00 0.  1.
         14    1    3    3    0    0 -0.58051671831E+02 -0.89355364031E+02  0.11274580396E+03  0.15513218233E+03  0.00000000000E+00 0. -1.
        -13    1    4    4    0    0  0.95800111592E+01  0.39028281206E+02 -0.48627847566E+02  0.63084474371E+02  0.00000000000E+00 0.  1.
         13    1    4    4    0    0  0.31796062936E+02 -0.51111759373E+02 -0.46098186785E+02  0.75818496354E+02  0.00000000000E+00 0. -1.
          1    1    1    2  501    0  0.38627705935E+02  0.90157694610E+02 -0.65433207842E+02  0.11790680325E+03  0.00000000000E+00 0. -1.
<scales pt_clust_5="13000.00000" pt_clust_6="13000.00000" pt_clust_7="13000.00000" pt_clust_8="13000.00000" pt_clust_9="98.08420"></scales>
<clustering>
<clus scale="   81.230">  5  6 -1 -1</clus>
<clus scale="   91.995">  7  8 -1 -1</clus>
<clus scale="   98.084">  2  9  1 -1</clus>
<clus scale="  126.436">  1  5  2 -1</clus>
<clus scale="   98.084">  2  5  1 -1</clus>
</clustering>
</event>
<event>
 9    2  0.9254368E-005  0.9756307E+02  0.7546771E-02  0.1291178E+00
         21   -1    0    0  501  502  0.00000000000E+00  0.00000000000E+00  0.11219951411E+03  0.11219951411E+03  0.00000000000E+00 0.  1.
          4   -1    0    0  502    0 -0.00000000000E+00 -0.00000000000E+00 -0.29425158922E+03  0.29425158922E+03  0.00000000000E+00 0. -1.
         24    2    1    2    0    0  0.68456818830E+01 -0.24390982217E+02 -0.15929565738E+03  0.18088997127E+03  0.81879740302E+02 0.  0.
         23    2    1    2    0    0 -0.56900113688E+02  0.19569159446E+02 -0.89502077994E+02  0.14199272126E+03  0.92361983451E+02 0.  0.
        -13    1    3    3    0    0 -0.61089374123E+01  0.25717931872E+02 -0.22788645199E+02  0.34900623004E+02  0.00000000000E+00 0.  1.
         14    1    3    3    0    0  0.12954619295E+02 -0.50108914089E+02 -0.13650701219E+03  0.14598934827E+03  0.00000000000E+00 0. -1.
        -13    1    4    4    0    0 -0.80389481380E+02  0.51479548601E+01 -0.77989598711E+02  0.11212202131E+03  0.00000000000E+00 0.  1.
         13    1    4    4    0    0  0.23489367692E+02  0.14421204586E+02 -0.11512479283E+02  0.29870699951E+02  0.00000000000E+00 0. -1.
          3    1    1    2  501    0  0.50054431805E+02  0.48218227704E+01  0.66745660271E+02  0.83568410797E+02  0.00000000000E+00 0. -1.
<scales pt_clust_5="13000.00000" pt_clust_6="13000.00000" pt_clust_7="13000.00000" pt_clust_8="13000.00000" pt_clust_9="50.28614"></scales>
<clustering>
<clus scale="   50.286">  1  9  2 -1</clus>
<clus scale="   81.880">  5  6 -1 -1</clus>
<clus scale="   87.705">  2  5  1 -1</clus>
<clus scale="   92.362">  7  8 -1 -1</clus>
<clus scale="   50.286">  1  5  2 -1</clus>
</clustering>
</event>
<event>
 9    2  0.9254368E-005  0.1234391E+03  0.7546771E-02  0.1239363E+00
          2   -1    0    0  502    0 -0.00000000000E+00  0.00000000000E+00  0.38573090577E+03  0.38573090577E+03  0.00000000000E+00 0. -1.
         21   -1    0    0  501  502  0.00000000000E+00 -0.00000000000E+00 -0.25261102312E+03  0.25261102312E+03  0.00000000000E+00 0. -1.
         23    2    1    2    0    0  0.75024067832E+01  0.71361744442E+02  0.24746331776E+03  0.27300558410E+03  0.90250599065E+02 0.  0.
         24    2    1    2    0    0  0.24764724768E+02 -0.17614777759E+03  0.13204659408E+02  0.19714063457E+03  0.83956748547E+02 0.  0.
        -11    1    4    4    0    0 -0.23404017349E+02 -0.22040104343E+02 -0.10782438276E+02  0.33908335298E+02  0.00000000000E+00 0.  1.
         12    1    4    4    0    0  0.48168742117E+02 -0.15410767324E+03  0.23987097685E+02  0.16323229927E+03  0.00000000000E+00 0. -1.
        -11    1    3    3    0    0 -0.24739004773E+02 -0.93656104557E+01  0.38796766606E+02  0.46956598210E+02  0.00000000000E+00 0.  1.
         11    1    3    3    0    0  0.32241411556E+02  0.80727354898E+02  0.20866655116E+03  0.22604898589E+03  0.00000000000E+00 0. -1.
          1    1    1    2  501    0 -0.32267131551E+02  0.10478603314E+03 -0.12754809452E+03  0.16819571022E+03  0.00000000000E+00 0. -1.
<scales pt_clust_5="13000.00000" pt_clust_6="13000.00000" pt_clust_7="13000.00000" pt_clust_8="13000.00000" pt_clust_9="109.64160"></scales>
<clustering>
<clus scale="   83.957">  5  6 -1 -1</clus>
<clus scale="   90.251">  7  8 -1 -1</clus>
<clus scale="  109.642">  2  9  1 -1</clus>
<clus scale="  118.915">  2  5  1 -1</clus>
<clus scale="  109.642">  2  5  1 -1</clus>
</clustering>
</event>
<event>
 9    2  0.9254368E-005  0.1323639E+03  0.7546771E-02  0.1239016E+00
         21   -1    0    0  501  502  0.00000000000E+00  0.00000000000E+00  0.15159646161E+03  0.15159646161E+03  0.00000000000E+00 0.  1.
          2   -1    0    0  502    0 -0.00000000000E+00 -0.00000000000E+00 -0.19070676244E+03  0.19070676244E+03  0.00000000000E+00 0. -1.
         23    2    1    2    0    0  0.19677155752E+02  0.26909825947E+02 -0.20465240907E+02  0.99262038425E+02  0.91229364768E+02 0.  0.
         24    2    1    2    0    0 -0.62443864573E+02  0.69737958462E+02  0.18980440618E+02  0.13085623162E+03  0.89445386432E+02 0.  0.
        -11    1    4    4    0    0 -0.84384733879E+02  0.49051699655E+02  0.53174463918E+01  0.97750333948E+02  0.00000000000E+00 0.  1.
         12    1    4    4    0    0  0.21940869306E+02  0.20686258807E+02  0.13662994226E+02  0.33105897670E+02  0.00000000000E+00 0. -1.
        -11    1    3    3    0    0  0.36709733282E+02 -0.20932012633E+02  0.48197409134E+01  0.42532147524E+02  0.00000000000E+00 0.  1.
         11    1    3    3    0    0 -0.17032577530E+02  0.47841838580E+02 -0.25284981820E+02  0.56729890901E+02  0.00000000000E+00 0. -1.
          1    1    1    2  501    0  0.42766708821E+02 -0.96647784409E+02 -0.37625500535E+02  0.11218495400E+03  0.00000000000E+00 0. -1.
<scales pt_clust_5="13000.00000" pt_clust_6="13000.00000" pt_clust_7="13000.00000" pt_clust_8="13000.00000" pt_clust_9="97.56917"></scales>
<clustering>
<clus scale="   89.445">  5  6 -1 -1</clus>
<clus scale="   91.229">  7  8 -1 -1</clus>
<clus scale="   97.129">  2  7  1 -1</clus>
<clus scale="   97.569">  1  9  2 -1</clus>
<clus scale="   97.569">  1  5  2 -1</clus>
</clustering>
</event>
<event>
 9    2  0.9254368E-005  0.1423893E+03  0.7546771E-02  0.1226933E+00
          2   -1    0    0  502    0 -0.00000000000E+00  0.00000000000E+00  0.11042826868E+04  0.11042826868E+04  0.00000000000E+00 0. -1.
         21   -1    0    0  501  502  0.00000000000E+00 -0.00000000000E+00 -0.10884758820E+03  0.10884758820E+03  0.00000000000E+00 0. -1.
         23    2    1    2    0    0 -0.39722912898E+02 -0.82895178859E+01  0.39648429912E+03  0.40890345943E+03  0.91409046428E+02 0.  0.
         24    2    1    2    0    0 -0.56177804539E+02  0.78321315141E+02  0.65919612813E+03  0.67106939043E+03  0.80649967758E+02 0.  0.
        -11    1    4    4    0    0  0.26002600365E+01  0.54580593416E+02  0.19310488974E+03  0.20068707226E+03  0.00000000000E+00 0.  1.
         12    1    4    4    0    0 -0.58778064575E+02  0.23740721725E+02  0.46609123839E+03  0.47038231817E+03  0.00000000000E+00 0. -1.
        -13    1    3    3    0    0 -0.39513378057E+02 -0.45520875374E+02  0.19856736917E+03  0.20751495666E+03  0.00000000000E+00 0.  1.
         13    1    3    3    0    0 -0.20953484158E+00  0.37231357488E+02  0.19791692995E+03  0.20138850277E+03  0.00000000000E+00 0. -1.
          1    1    1    2  501    0  0.95900717437E+02 -0.70031797255E+02 -0.60245328692E+02  0.13315742511E+03  0.00000000000E+00 0. -1.
<scales pt_clust_5="13000.00000" pt_clust_6="13000.00000" pt_clust_7="13000.00000" pt_clust_8="13000.00000" pt_clust_9="117.34685"></scales>
<clustering>
<clus scale="   80.650">  5  6 -1 -1</clus>
<clus scale="   91.409">  7  8 -1 -1</clus>
<clus scale="  100.011">  1  7  2 -1</clus>
<clus scale="  117.347">  2  9  1 -1</clus>
<clus scale="  117.347">  2  5  1 -1</clus>
</clustering>
</event>
<event>
 9    2  0.9254368E-005  0.9557508E+02  0.7546771E-02  0.1292552E+00
         21   -1    0    0  501  502  0.00000000000E+00  0.00000000000E+00  0.35536138988E+02  0.35536138988E+02  0.00000000000E+00 0. -1.
          4   -1    0    0  502    0 -0.00000000000E+00 -0.00000000000E+00 -0.38363286687E+03  0.38363286687E+03  0.00000000000E+00 0. -1.
         23    2    1    2    0    0  0.12701363056E+02 -0.53462064580E+02 -0.20947109789E+03  0.23136105150E+03  0.81426521032E+02 0.  0.
         24    2    1    2    0    0 -0.34367004605E+02  0.33763885080E+02 -0.12847954932E+03  0.15681825845E+03  0.75920225555E+02 0.  0.
        -13    1    4    4    0    0 -0.34536566712E+02  0.16606450145E+02 -0.13353963225E+03  0.13892941377E+03  0.00000000000E+00 0.  1.
         14    1    4    4    0    0  0.16956210641E+00  0.17157434934E+02  0.50600829336E+01  0.17888844684E+02  0.00000000000E+00 0. -1.
        -13    1    3    3    0    0 -0.18216258327E+02 -0.44316311557E+02 -0.52353545511E+02  0.70969438951E+02  0.00000000000E+00 0. -1.
         13    1    3    3    0    0  0.30917621383E+02 -0.91457530225E+01 -0.15711755238E+03  0.16039161255E+03  0.00000000000E+00 0.  1.
          3    1    1    2  501    0  0.21665641549E+02  0.19698179500E+02 -0.10146080668E+02  0.30989695905E+02  0.00000000000E+00 0. -1.
<scales pt_clust_5="13000.00000" pt_clust_6="13000.00000" pt_clust_7="13000.00000" pt_clust_8="13000.00000" pt_clust_9="29.28171"></scales>
<clustering>
<clus scale="   29.282">  1  9  2 -1</clus>
<clus scale="   75.920">  5  6 -1 -1</clus>
<clus scale="   81.427">  7  8 -1 -1</clus>
<clus scale="   90.930">  1  5  2 -1</clus>
<clus scale="   29.282">  1  5  2 -1</clus>
</clustering>
</event>
<event>
 9    2  0.9254368E-005  0.1502454E+03  0.7546771E-02  0.1216272E+00
         -1   -1    0    0    0  501 -0.00000000000E+00  0.00000000000E+00  0.71023433031E+02  0.71023433031E+02  0.00000000000E+00 0.  1.
         21   -1    0    0  501  502  0.00000000000E+00 -0.00000000000E+00 -0.70055746780E+03  0.70055746780E+03  0.00000000000E+00 0.  1.
         23    2    1    2    0    0 -0.54244813088E+02  0.25957885579E+01 -0.56461627892E+02  0.12047280742E+03  0.91523461685E+02 0.  0.
         24    2    1    2    0    0  0.53400064004E+02 -0.12800911561E+03 -0.19354898975E+03  0.25139914886E+03  0.80637584910E+02 0.  0.
        -11    1    4    4    0    0  0.70882113547E+02 -0.11204169277E+03 -0.13981792829E+03  0.19268281712E+03  0.00000000000E+00 0.  1.
         12    1    4    4    0    0 -0.17482049543E+02 -0.15967422838E+02 -0.53731061453E+02  0.58716331741E+02  0.00000000000E+00 0. -1.
        -11    1    3    3    0    0  0.10134218139E+02 -0.28812332959E+02 -0.22235071283E+01  0.30623469623E+02  0.00000000000E+00 0.  1.
         11    1    3    3    0    0 -0.64379031227E+02  0.31408121517E+02 -0.54238120763E+02  0.89849337798E+02  0.00000000000E+00 0. -1.
         -2    1    1    2    0  502  0.84474908348E+00  0.12541332705E+03 -0.37952341713E+03  0.39970894455E+03  0.00000000000E+00 0.  1.
<scales pt_clust_5="13000.00000" pt_clust_6="13000.00000" pt_clust_7="13000.00000" pt_clust_8="13000.00000" pt_clust_9="126.77249"></scales>
<clustering>
<clus scale="   80.638">  5  6 -1 -1</clus>
<clus scale="   91.523">  7  8 -1 -1</clus>
<clus scale="  106.423">  1  7  2 -1</clus>
<clus scale="  126.772">  2  9  1 -1</clus>
<clus scale="  126.772">  2  5  1 -1</clus>
</clustering>
</event>
<event>
 9    2  0.9254368E-005  0.9547593E+02  0.7546771E-02  0.1295598E+00
          2   -1    0    0  502    0 -0.00000000000E+00  0.00000000000E+00  0.34369391624E+03  0.34369391624E+03  0.00000000000E+00 0. -1.
         21   -1    0    0  501  502  0.00000000000E+00 -0.00000000000E+00 -0.59377027663E+02  0.59377027663E+02  0.00000000000E+00 0.  1.
         24    2    1    2    0    0  0.33209773897E+02  0.31328231689E+01  0.19828256686E+03  0.21648295218E+03  0.80225859916E+02 0.  0.
         23    2    1    2    0    0 -0.21858286637E+02  0.35908935457E+02  0.94777747036E+01  0.99904544226E+02  0.90132421488E+02 0.  0.
        -13    1    3    3    0    0 -0.18301537362E+02 -0.20549901849E+02  0.41783718944E+02  0.50031229293E+02  0.00000000000E+00 0.  1.
         14    1    3    3    0    0  0.51511311258E+02  0.23682725018E+02  0.15649884792E+03  0.16645172289E+03  0.00000000000E+00 0. -1.
        -13    1    4    4    0    0 -0.60147227012E+01 -0.28929011303E+02  0.14609129864E+02  0.32961966863E+02  0.00000000000E+00 0. -1.
         13    1    4    4    0    0 -0.15843563936E+02  0.64837946760E+02 -0.51313551600E+01  0.66942577363E+02  0.00000000000E+00 0.  1.
          1    1    1    2  501    0 -0.11351487260E+02 -0.39041758626E+02  0.76556547010E+02  0.86683447495E+02  0.00000000000E+00 0. -1.
<scales pt_clust_5="13000.00000" pt_clust_6="13000.00000" pt_clust_7="13000.00000" pt_clust_8="13000.00000" pt_clust_9="40.65854"></scales>
<clustering>
<clus scale="   40.659">  2  9  1 -1</clus>
<clus scale="   80.226">  5  6 -1 -1</clus>
<clus scale="   86.186">  1  5  2 -1</clus>
<clus scale="   90.132">  7  8 -1 -1</clus>
<clus scale="   40.659">  2  5  1 -1</clus>
</clustering>
</event>
<event>
 9    2  0.9254368E-005  0.3662083E+03  0.7546771E-02  0.1079676E+00
          2   -1    0    0  502    0 -0.00000000000E+00  0.00000000000E+00  0.21273724708E+03  0.21273724708E+03  0.00000000000E+00 0. -1.
         21   -1    0    0  501  502  0.00000000000E+00 -0.00000000000E+00 -0.11950303035E+04  0.11950303035E+04  0.00000000000E+00 0. -1.
         24    2    1    2    0    0  0.16095544195E+03  0.60967893773E+02 -0.44091934089E+03  0.48069733365E+03  0.83882793500E+02 0.  0.
         23    2    1    2    0    0 -0.45012186480E+03 -0.15911162260E+02 -0.34316878795E+03  0.57361226685E+03  0.91669828216E+02 0.  0.
        -11    1    3    3    0    0  0.13119478961E+03  0.27861459134E+02 -0.39316420402E+03  0.41541115181E+03  0.00000000000E+00 0.  1.
         12    1    3    3    0    0  0.29760652332E+02  0.33106434639E+02 -0.47755136870E+02  0.65286181839E+02  0.00000000000E+00 0. -1.
        -11    1    4    4    0    0 -0.30045889248E+03  0.21843024920E+02 -0.26186667992E+03  0.39915764036E+03  0.00000000000E+00 0. -1.
         11    1    4    4    0    0 -0.14966297232E+03 -0.37754187179E+02 -0.81302108026E+02  0.17445462649E+03  0.00000000000E+00 0.  1.
          1    1    1    2  501    0  0.28916642285E+03 -0.45056731513E+02 -0.19820492759E+03  0.35345795009E+03  0.00000000000E+00 0. -1.
<scales pt_clust_5="13000.00000" pt_clust_6="13000.00000" pt_clust_7="13000.00000" pt_clust_8="13000.00000" pt_clust_9="354.54929"></scales>
<clustering>
<clus scale="   83.883">  5  6 -1 -1</clus>
<clus scale="   91.670">  7  8 -1 -1</clus>
<clus scale="  191.468">  1  5  2 -1</clus>
<clus scale="  354.549">  2  9  1 -1</clus>
<clus scale="  354.549">  2  5  1 -1</clus>
</clustering>
</event>
<event>
 9    2  0.9254368E-005  0.1099532E+03  0.7546771E-02  0.1262559E+00
         21   -1    0    0  501  502  0.00000000000E+00  0.00000000000E+00  0.92834251060E+02  0.92834251060E+02  0.00000000000E+00 0. -1.
          2   -1    0    0  502    0 -0.00000000000E+00 -0.00000000000E+00 -0.33291105066E+03  0.33291105066E+03  0.00000000000E+00 0. -1.
         24    2    1    2    0    0 -0.52303183026E+02  0.37548898272E+02 -0.18977879174E+03  0.21603072653E+03  0.80670578868E+02 0.  0.
         23    2    1    2    0    0  0.76620645035E+02 -0.53878342181E+02  0.24466544709E+02  0.12941682916E+03  0.85886581358E+02 0.  0.
        -13    1    3    3    0    0 -0.20881104187E+02  0.59119236376E+02 -0.94460761877E+02  0.11337521844E+03  0.00000000000E+00 0.  1.
         14    1    3    3    0    0 -0.31422078839E+02 -0.21570338104E+02 -0.95318029865E+02  0.10265550809E+03  0.00000000000E+00 0. -1.
        -13    1    4    4    0    0  0.16410646764E+02 -0.20965142515E+02 -0.31230403945E+02  0.41038818921E+02  0.00000000000E+00 0.  1.
         13    1    4    4    0    0  0.60209998270E+02 -0.32913199666E+02  0.55696948654E+02  0.88378010236E+02  0.00000000000E+00 0. -1.
          1    1    1    2  501    0 -0.24317462009E+02  0.16329443909E+02 -0.74764552563E+02  0.80297746026E+02  0.00000000000E+00 0. -1.
<scales pt_clust_5="13000.00000" pt_clust_6="13000.00000" pt_clust_7="13000.00000" pt_clust_8="13000.00000" pt_clust_9="29.29148"></scales>
<clustering>
<clus scale="   29.291">  1  9  2 -1</clus>
<clus scale="   80.671">  5  6 -1 -1</clus>
<clus scale="   85.887">  7  8 -1 -1</clus>
<clus scale="  105.929">  2  5  1 -1</clus>
<clus scale="   29.291">  1  5  2 -1</clus>
</clustering>
</event>
<event>
 9    2  0.9254368E-005  0.1121885E+03  0.7546771E-02  0.1258828E+00
         -1   -1    0    0    0  501 -0.00000000000E+00  0.00000000000E+00  0.11191749020E+03  0.11191749020E+03  0.00000000000E+00 0.  1.
         21   -1    0    0  501  502  0.00000000000E+00 -0.00000000000E+00 -0.20803017983E+03  0.20803017983E+03  0.00000000000E+00 0.  1.
         24    2    1    2    0    0 -0.45025519741E+02 -0.34955256532E+02 -0.32243899215E+02  0.10633827866E+03  0.83779431149E+02 0.  0.
         23    2    1    2    0    0  0.29392056150E+01  0.94495424505E+02 -0.34319434748E+02  0.13493630919E+03  0.89955320883E+02 0.  0.
        -13    1    3    3    0    0 -0.48005232094E+02 -0.37353501238E+02 -0.55758011024E+02  0.82515102597E+02  0.00000000000E+00 0.  1.
         14    1    3    3    0    0  0.29797123530E+01  0.23982447060E+01  0.23514111809E+02  0.23823176059E+02  0.00000000000E+00 0. -1.
        -13    1    4    4    0    0  0.31147977809E+02  0.80806252145E+02  0.24207546472E+01  0.86635483264E+02  0.00000000000E+00 0. -1.
         13    1    4    4    0    0 -0.28208772194E+02  0.13689172360E+02 -0.36740189396E+02  0.48300825929E+02  0.00000000000E+00 0.  1.
         -2    1    1    2    0  502  0.42086314126E+02 -0.59540167973E+02 -0.29549355663E+02  0.78673082176E+02  0.00000000000E+00 0.  1.
<scales pt_clust_5="13000.00000" pt_clust_6="13000.00000" pt_clust_7="13000.00000" pt_clust_8="13000.00000" pt_clust_9="72.91289"></scales>
<clustering>
<clus scale="   72.913">  2  9  1 -1</clus>
<clus scale="   83.779">  5  6 -1 -1</clus>
<clus scale="   89.955">  7  8 -1 -1</clus>
<clus scale="  107.300">  1  5  2 -1</clus>
<clus scale="   72.913">  2  5  1 -1</clus>
</clustering>
</event>
<event>
 9    2  0.9254368E-005  0.1343764E+03  0.7546771E-02  0.1245987E+00
         21   -1    0    0  501  502  0.00000000000E+00  0.00000000000E+00  0.85112056107E+02  0.85112056107E+02  0.00000000000E+00 0.  1.
          2   -1    0    0  502    0 -0.00000000000E+00 -0.00000000000E+00 -0.36991244092E+03  0.36991244092E+03  0.00000000000E+00 0. -1.
         23    2    1    2    0    0  0.17427830281E+02 -0.23963208945E+01 -0.79976385249E+02  0.11356107638E+03  0.78679249165E+02 0.  0.
         24    2    1    2    0    0 -0.82998743895E+01 -0.10675677321E+03 -0.33514873015E+02  0.13812986619E+03  0.80564984193E+02 0.  0.
        -11    1    4    4    0    0 -0.24280957050E+02 -0.63920496656E+02  0.16528093268E+02  0.70346091825E+02  0.00000000000E+00 0.  1.
         12    1    4    4    0    0  0.15981082661E+02 -0.42836276554E+02 -0.50042966284E+02  0.67783774360E+02  0.00000000000E+00 0. -1.
        -11    1    3    3    0    0 -0.14652763463E+02 -0.27460641369E+02 -0.61344489677E+02  0.68789074098E+02  0.00000000000E+00 0. -1.
         11    1    3    3    0    0  0.32080593744E+02  0.25064320474E+02 -0.18631895572E+02  0.44772002283E+02  0.00000000000E+00 0.  1.
          1    1    1    2  501    0 -0.91279558916E+01  0.10915309410E+03 -0.17130912655E+03  0.20333355446E+03  0.00000000000E+00 0. -1.
<scales pt_clust_5="13000.00000" pt_clust_6="13000.00000" pt_clust_7="13000.00000" pt_clust_8="13000.00000" pt_clust_9="107.54684"></scales>
<clustering>
<clus scale="   78.679">  7  8 -1 -1</clus>
<clus scale="   80.565">  5  6 -1 -1</clus>
<clus scale="   80.622">  2  7  1 -1</clus>
<clus scale="  107.547">  1  9  2 -1</clus>
<clus scale="  107.547">  1  5  2 -1</clus>
</clustering>
</event>
<event>
 9    2  0.9254368E-005  0.1044903E+03  0.7546771E-02  0.1278401E+00
         -3   -1    0    0    0  501 -0.00000000000E+00  0.00000000000E+00  0.99911644681E+02  0.99911644681E+02  0.00000000000E+00 0.  1.
         21   -1    0    0  501  502  0.00000000000E+00 -0.00000000000E+00 -0.24829031363E+03  0.24829031363E+03  0.00000000000E+00 0.  1.
         23    2    1    2    0    0 -0.27782929294E+02  0.30311301310E+02  0.19630405339E+02  0.10132163503E+03  0.90498921340E+02 0.  0.
         24    2    1    2    0    0  0.25408847745E+02 -0.90794459100E+02 -0.10509294131E+03  0.15957460510E+03  0.74365885534E+02 0.  0.
        -11    1    4    4    0    0 -0.19501345440E+02 -0.58427375422E+02 -0.37139745733E+02  0.71926499886E+02  0.00000000000E+00 0.  1.
         12    1    4    4    0    0  0.44910193186E+02 -0.32367083678E+02 -0.67953195576E+02  0.87648105210E+02  0.00000000000E+00 0. -1.
        -13    1    3    3    0    0  0.22523173149E+01 -0.24753940278E+02 -0.15634044829E+02  0.29364159282E+02  0.00000000000E+00 0. -1.
         13    1    3    3    0    0 -0.30035246609E+02  0.55065241588E+02  0.35264450168E+02  0.71957475746E+02  0.00000000000E+00 0.  1.
         -4    1    1    2    0  502  0.23740815489E+01  0.60483157790E+02 -0.62916132980E+02  0.87305718190E+02  0.00000000000E+00 0.  1.
<scales pt_clust_5="13000.00000" pt_clust_6="13000.00000" pt_clust_7="13000.00000" pt_clust_8="13000.00000" pt_clust_9="60.52973"></scales>
<clustering>
<clus scale="   60.530">  2  9  1 -1</clus>
<clus scale="   74.366">  5  6 -1 -1</clus>
<clus scale="   90.499">  7  8 -1 -1</clus>
<clus scale="   90.876">  2  5  1 -1</clus>
<clus scale="   60.530">  2  5  1 -1</clus>
</clustering>
</event>
<event>
 9    2  0.9254368E-005  0.1337115E+03  0.7546771E-02  0.1224877E+00
         21   -1    0    0  501  502  0.00000000000E+00  0.00000000000E+00  0.27558311859E+03  0.27558311859E+03  0.00000000000E+00 0. -1.
          2   -1    0    0  502    0 -0.00000000000E+00 -0.00000000000E+00 -0.58233912948E+03  0.58233912948E+03  0.00000000000E+00 0. -1.
         23    2    1    2    0    0  0.68399268231E+02  0.71287710716E+02 -0.54253102055E+03  0.55892099387E+03  0.91062459512E+02 0.  0.
         24    2    1    2    0    0 -0.24407955702E+02 -0.90620888500E+02  0.11226993806E+03  0.16647763346E+03  0.79387465741E+02 0.  0.
        -11    1    4    4    0    0 -0.30372400181E+02 -0.44922251630E+02  0.11164117063E+02  0.55363606224E+02  0.00000000000E+00 0.  1.
         12    1    4    4    0    0  0.59644444794E+01 -0.45698636870E+02  0.10110582099E+03  0.11111402723E+03  0.00000000000E+00 0. -1.
        -13    1    3    3    0    0 -0.20016713244E+02  0.35095941927E+01 -0.50505942996E+02  0.54441127270E+02  0.00000000000E+00 0.  1.
         13    1    3    3    0    0  0.88415981475E+02  0.67778116523E+02 -0.49202507755E+03  0.50447986660E+03  0.00000000000E+00 0. -1.
          1    1    1    2  501    0 -0.43991312529E+02  0.19333177784E+02  0.12350507161E+03  0.13252362074E+03  0.00000000000E+00 0. -1.
<scales pt_clust_5="13000.00000" pt_clust_6="13000.00000" pt_clust_7="13000.00000" pt_clust_8="13000.00000" pt_clust_9="48.05213"></scales>
<clustering>
<clus scale="   48.052">  1  9  2 -1</clus>
<clus scale="   79.387">  5  6 -1 -1</clus>
<clus scale="   91.062">  7  8 -1 -1</clus>
<clus scale="  126.051">  1  5  2 -1</clus>
<clus scale="   48.052">  1  5  2 -1</clus>
</clustering>
</event>
<event>
 9    2  0.9254368E-005  0.9623379E+02  0.7546771E-02  0.1291763E+00
         21   -1    0    0  501  502  0.00000000000E+00  0.00000000000E+00  0.10489629520E+03  0.10489629520E+03  0.00000000000E+00 0. -1.
         -1   -1    0    0    0  501 -0.00000000000E+00 -0.00000000000E+00 -0.35821819569E+03  0.35821819569E+03  0.00000000000E+00 0.  1.
         23    2    1    2    0    0  0.30225055227E+02  0.33644924888E+01 -0.28824973232E+03  0.30406839143E+03  0.91895618551E+02 0.  0.
         24    2    1    2    0    0 -0.15692508385E+02  0.48086823598E+02  0.10041972636E+02  0.10007374295E+03  0.85763135386E+02 0.  0.
        -11    1    4    4    0    0 -0.28241598723E+02  0.68762805236E+02  0.12744790835E+01  0.74347397932E+02  0.00000000000E+00 0.  1.
         12    1    4    4    0    0  0.12549090339E+02 -0.20675981637E+02  0.87674935529E+01  0.25726345022E+02  0.00000000000E+00 0. -1.
        -13    1    3    3    0    0  0.33342019233E+02  0.44326514993E+02 -0.17629180460E+03  0.18481160825E+03  0.00000000000E+00 0.  1.
         13    1    3    3    0    0 -0.31169640059E+01 -0.40962022504E+02 -0.11195792772E+03  0.11925678317E+03  0.00000000000E+00 0. -1.
         -2    1    1    2    0  502 -0.14532546843E+02 -0.51451316087E+02  0.24885859192E+02  0.58972356512E+02  0.00000000000E+00 0.  1.
<scales pt_clust_5="13000.00000" pt_clust_6="13000.00000" pt_clust_7="13000.00000" pt_clust_8="13000.00000" pt_clust_9="53.46431"></scales>
<clustering>
<clus scale="   53.464">  1  9  2 -1</clus>
<clus scale="   85.763">  5  6 -1 -1</clus>
<clus scale="   90.396">  1  5  2 -1</clus>
<clus scale="   91.896">  7  8 -1 -1</clus>
<clus scale="   53.464">  1  5  2 -1</clus>
</clustering>
</event>
<event>
 9    2  0.9254368E-005  0.1393176E+03  0.7546771E-02  0.1234329E+00
         21   -1    0    0  501  502  0.00000000000E+00  0.00000000000E+00  0.13454428713E+03  0.13454428713E+03  0.00000000000E+00 0. -1.
          2   -1    0    0  502    0 -0.00000000000E+00 -0.00000000000E+00 -0.22160773276E+03  0.22160773276E+03  0.00000000000E+00 0. -1.
         24    2    1    2    0    0 -0.42102240778E+02 -0.71416252274E+01 -0.48495694717E+02  0.10370384345E+03  0.81111363261E+02 0.  0.
         23    2    1    2    0    0  0.23088921764E+02 -0.10111561709E+03 -0.35682685914E+02  0.14249609409E+03  0.90963819346E+02 0.  0.
        -13    1    3    3    0    0  0.32907810120E+01 -0.31100616092E+02 -0.41404373678E+02  0.51888338966E+02  0.00000000000E+00 0.  1.
         14    1    3    3    0    0 -0.45393021790E+02  0.23958990864E+02 -0.70913210395E+01  0.51815504481E+02  0.00000000000E+00 0. -1.
        -11    1    4    4    0    0  0.30850434119E+02 -0.64821186527E+00  0.91799418238E+01  0.32193800581E+02  0.00000000000E+00 0.  1.
         11    1    4    4    0    0 -0.77615123547E+01 -0.10046740522E+03 -0.44862627738E+02  0.11030229351E+03  0.00000000000E+00 0. -1.
          1    1    1    2  501    0  0.19013319014E+02  0.10825724232E+03 -0.28850650011E+01  0.10995208235E+03  0.00000000000E+00 0. -1.
<scales pt_clust_5="13000.00000" pt_clust_6="13000.00000" pt_clust_7="13000.00000" pt_clust_8="13000.00000" pt_clust_9="105.52244"></scales>
<clustering>
<clus scale="   81.111">  5  6 -1 -1</clus>
<clus scale="   90.964">  7  8 -1 -1</clus>
<clus scale="   91.666">  2  5  1 -1</clus>
<clus scale="  105.522">  1  9  2 -1</clus>
<clus scale="  105.522">  1  5  2 -1</clus>
</clustering>
</event>
<event>
 9    2  0.9254368E-005  0.9841474E+02  0.7546771E-02  0.1289281E+00
          2   -1    0    0  502    0 -0.00000000000E+00  0.00000000000E+00  0.10758922039E+03  0.10758922039E+03  0.00000000000E+00 0. -1.
         21   -1    0    0  501  502  0.00000000000E+00 -0.00000000000E+00 -0.41039510815E+03  0.41039510815E+03  0.00000000000E+00 0. -1.
         24    2    1    2    0    0 -0.32415886143E+02  0.13261134873E+02  0.21728504169E+02  0.91544570748E+02  0.81741257437E+02 0.  0.
         23    2    1    2    0    0  0.45401098317E+02  0.73905944167E+02 -0.31286149236E+03  0.33754109645E+03  0.92348958185E+02 0.  0.
        -11    1    3    3    0    0 -0.76643462628E+01  0.41792624981E+02 -0.82980870504E+01  0.43292308267E+02  0.00000000000E+00 0.  1.
         12    1    3    3    0    0 -0.24751539880E+02 -0.28531490108E+02  0.30026591219E+02  0.48252262480E+02  0.00000000000E+00 0. -1.
        -13    1    4    4    0    0  0.63239031906E+02  0.84767761226E+02 -0.25757210606E+03  0.27843875147E+03  0.00000000000E+00 0. -1.
         13    1    4    4    0    0 -0.17837933589E+02 -0.10861817059E+02 -0.55289386300E+02  0.59102344979E+02  0.00000000000E+00 0.  1.
          1    1    1    2  501    0 -0.12985212174E+02 -0.87167079040E+02 -0.11672899572E+02  0.88898661340E+02  0.00000000000E+00 0. -1.
<scales pt_clust_5="13000.00000" pt_clust_6="13000.00000" pt_clust_7="13000.00000" pt_clust_8="13000.00000" pt_clust_9="88.12901"></scales>
<clustering>
<clus scale="   81.741">  5  6 -1 -1</clus>
<clus scale="   88.129">  2  9  1 -1</clus>
<clus scale="   88.537">  1  5  2 -1</clus>
<clus scale="   92.349">  7  8 -1 -1</clus>
<clus scale="   88.129">  2  5  1 -1</clus>
</clustering>
</event>
<event>
 9    2  0.9254368E-005  0.1151321E+03  0.7546771E-02  0.1266155E+00
          4   -1    0    0  502    0 -0.00000000000E+00  0.00000000000E+00  0.75516069949E+02  0.75516069949E+02  0.00000000000E+00 0. -1.
         21   -1    0    0  501  502  0.00000000000E+00 -0.00000000000E+00 -0.36516242589E+03  0.36516242589E+03  0.00000000000E+00 0. -1.
         24    2    1    2    0    0  0.12670996908E+02 -0.29422937938E+02 -0.30613583608E+01  0.86068219607E+02  0.79825453783E+02 0.  0.
         23    2    1    2    0    0 -0.10344806315E+02 -0.57507764095E+02 -0.21814004116E+03  0.24394379450E+03  0.92246080518E+02 0.  0.
        -13    1    3    3    0    0 -0.12866875616E+02 -0.49930277909E+02 -0.10165421126E+02  0.52554019131E+02  0.00000000000E+00 0.  1.
         14    1    3    3    0    0  0.25537872524E+02  0.20507339971E+02  0.71040627656E+01  0.33514200475E+02  0.00000000000E+00 0. -1.
        -13    1    4    4    0    0  0.17541950329E+02  0.16446711621E+02 -0.91973148606E+02  0.95064580202E+02  0.00000000000E+00 0.  1.
         13    1    4    4    0    0 -0.27886756644E+02 -0.73954475716E+02 -0.12616689255E+03  0.14887921430E+03  0.00000000000E+00 0. -1.
          3    1    1    2  501    0 -0.23261905929E+01  0.86930702033E+02 -0.68444956421E+02  0.11066648173E+03  0.00000000000E+00 0. -1.
<scales pt_clust_5="13000.00000" pt_clust_6="13000.00000" pt_clust_7="13000.00000" pt_clust_8="13000.00000" pt_clust_9="68.89166"></scales>
<clustering>
<clus scale="   79.825">  5  6 -1 -1</clus>
<clus scale="   86.014">  1  5  2 -1</clus>
<clus scale="   68.892">  2  9  1 -1</clus>
<clus scale="   92.246">  7  8 -1 -1</clus>
<clus scale="   68.892">  2  5  1 -1</clus>
</clustering>
</event>
<event>
 9    2  0.9254368E-005  0.1280349E+03  0.7546771E-02  0.1234329E+00
         21   -1    0    0  501  502  0.00000000000E+00  0.00000000000E+00  0.13402267416E+03  0.13402267416E+03  0.00000000000E+00 0. -1.
         -3   -1    0    0    0  501 -0.00000000000E+00 -0.00000000000E+00 -0.20033726450E+03  0.20033726450E+03  0.00000000000E+00 0.  1.
         24    2    1    2    0    0 -0.14658399821E+02 -0.93212073490E+02 -0.86507577010E+02  0.15078875698E+03  0.79688951692E+02 0.  0.
         23    2    1    2    0    0  0.17156955186E+02  0.63416753646E+02  0.63506110765E+02  0.13094010167E+03  0.93788263474E+02 0.  0.
        -11    1    3    3    0    0  0.24673854831E+02 -0.33465781026E+02 -0.63020724173E+02  0.75500789977E+02  0.00000000000E+00 0.  1.
         12    1    3    3    0    0 -0.39332254652E+02 -0.59746292464E+02 -0.23486852837E+02  0.75287967003E+02  0.00000000000E+00 0. -1.
        -13    1    4    4    0    0  0.26527183923E+02  0.33156441494E+02 -0.15983555521E+02  0.45370862307E+02  0.00000000000E+00 0.  1.
         13    1    4    4    0    0 -0.93702287366E+01  0.30260312152E+02  0.79489666286E+02  0.85569239359E+02  0.00000000000E+00 0. -1.
         -4    1    1    2    0  502 -0.24985553646E+01  0.29795319844E+02 -0.43313124097E+02  0.52631080005E+02  0.00000000000E+00 0.  1.
<scales pt_clust_5="13000.00000" pt_clust_6="13000.00000" pt_clust_7="13000.00000" pt_clust_8="13000.00000" pt_clust_9="29.89991"></scales>
<clustering>
<clus scale="   29.900">  1  9  2 -1</clus>
<clus scale="   79.689">  5  6 -1 -1</clus>
<clus scale="   93.788">  7  8 -1 -1</clus>
<clus scale="  118.098">  2  5  1 -1</clus>
<clus scale="   29.900">  1  5  2 -1</clus>
</clustering>
</event>
<event>
 9    2  0.9254368E-005  0.1160207E+03  0.7546771E-02  0.1261102E+00
         21   -1    0    0  501  502  0.00000000000E+00  0.00000000000E+00  0.30061480225E+02  0.30061480225E+02  0.00000000000E+00 0. -1.
          2   -1    0    0  502    0 -0.00000000000E+00 -0.00000000000E+00 -0.11279280194E+04  0.11279280194E+04  0.00000000000E+00 0. -1.
         24    2    1    2    0    0 -0.17814296786E+02 -0.34665460511E+02 -0.68615443298E+03  0.69239808051E+03  0.84191167372E+02 0.  0.
         23    2    1    2    0    0 -0.56807268238E+02 -0.20639832532E+02 -0.13656079166E+03  0.17518601405E+03  0.91587233216E+02 0.  0.
        -13    1    3    3    0    0  0.20552177563E+02  0.99217480630E+01 -0.74382969552E+02  0.77805264903E+02  0.00000000000E+00 0.  1.
         14    1    3    3    0    0 -0.38366474349E+02 -0.44587208574E+02 -0.61177146343E+03  0.61459281560E+03  0.00000000000E+00 0. -1.
        -13    1    4    4    0    0 -0.71522970905E+02 -0.41469643771E+02 -0.11588780874E+03  0.14235607095E+03  0.00000000000E+00 0. -1.
         13    1    4    4    0    0  0.14715702667E+02  0.20829811238E+02 -0.20672982924E+02  0.32829943104E+02  0.00000000000E+00 0.  1.
          1    1    1    2  501    0  0.74621565024E+02  0.55305293043E+02 -0.27515131454E+03  0.29040540507E+03  0.00000000000E+00 0. -1.
<scales pt_clust_5="13000.00000" pt_clust_6="13000.00000" pt_clust_7="13000.00000" pt_clust_8="13000.00000" pt_clust_9="71.22209"></scales>
<clustering>
<clus scale="   84.191">  5  6 -1 -1</clus>
<clus scale="   91.587">  7  8 -1 -1</clus>
<clus scale="   92.775">  2  5  1 -1</clus>
<clus scale="   71.222">  1  9  2 -1</clus>
<clus scale="   71.222">  1  5  2 -1</clus>
</clustering>
</event>
<event>
 9    2  0.9254368E-005  0.1509653E+03  0.7546771E-02  0.1200948E+00
          2   -1    0    0  502    0 -0.00000000000E+00  0.00000000000E+00  0.24312906280E+03  0.24312906280E+03  0.00000000000E+00 0. -1.
         21   -1    0    0  501  502  0.00000000000E+00 -0.00000000000E+00 -0.21978150102E+03  0.21978150102E+03  0.00000000000E+00 0.  1.
         23    2    1    2    0    0  0.83414415924E+02 -0.91162316136E+02  0.18087243199E+03  0.23637752624E+03  0.88831107115E+02 0.  0.
         24    2    1    2    0    0 -0.62717899860E+02  0.96355010793E+02 -0.12416300329E+03  0.18693096669E+03  0.79428658891E+02 0.  0.
        -13    1    4    4    0    0 -0.23433184161E+02  0.85191737529E+02 -0.11509106462E+03  0.14509548380E+03  0.00000000000E+00 0.  1.
         14    1    4    4    0    0 -0.39284715699E+02  0.11163273264E+02 -0.90719386715E+01  0.41835482892E+02  0.00000000000E+00 0. -1.
        -13    1    3    3    0    0  0.12274881764E+02 -0.76970575891E+02  0.76015752215E+02  0.10887394941E+03  0.00000000000E+00 0.  1.
         13    1    3    3    0    0  0.71139534160E+02 -0.14191740245E+02  0.10485667977E+03  0.12750357683E+03  0.00000000000E+00 0. -1.
          1    1    1    2  501    0 -0.20696516063E+02 -0.51926946568E+01 -0.33361866915E+02  0.39602070893E+02  0.00000000000E+00 0. -1.
<scales pt_clust_5="13000.00000" pt_clust_6="13000.00000" pt_clust_7="13000.00000" pt_clust_8="13000.00000" pt_clust_9="21.33799"></scales>
<clustering>
<clus scale="   21.338">  2  9  1 -1</clus>
<clus scale="   79.429">  5  6 -1 -1</clus>
<clus scale="   88.831">  7  8 -1 -1</clus>
<clus scale="  145.631">  2  5  1 -1</clus>
<clus scale="   21.338">  2  5  1 -1</clus>
</clustering>
</event>
<event>
 9    2  0.9254368E-005  0.1429259E+03  0.7546771E-02  0.1211266E+00
          2   -1    0    0  502    0 -0.00000000000E+00  0.00000000000E+00  0.46402639167E+03  0.46402639167E+03  0.00000000000E+00 0. -1.
         21   -1    0    0  501  502  0.00000000000E+00 -0.00000000000E+00 -0.10350037948E+03  0.10350037948E+03  0.00000000000E+00 0. -1.
         24    2    1    2    0    0  0.27561152234E+02  0.82093609652E+02  0.34814013037E+02  0.12358162255E+03  0.81002617678E+02 0.  0.
         23    2    1    2    0    0 -0.12640787519E+03 -0.81947257315E+02  0.11111571631E+03  0.20767779861E+03  0.89939211339E+02 0.  0.
        -13    1    3    3    0    0  0.18485568936E+02  0.77555596848E+01  0.43785311864E+02  0.48156188594E+02  0.00000000000E+00 0.  1.
         14    1    3    3    0    0  0.90755832987E+01  0.74338049968E+02 -0.89712988265E+01  0.75425433959E+02  0.00000000000E+00 0. -1.
        -13    1    4    4    0    0 -0.23645802778E+02  0.18598862931E+02  0.92336806180E+01  0.31469072898E+02  0.00000000000E+00 0.  1.
         13    1    4    4    0    0 -0.10276207241E+03 -0.10054612025E+03  0.10188203569E+03  0.17620872572E+03  0.00000000000E+00 0. -1.
          1    1    1    2  501    0  0.98846722952E+02 -0.14635233736E+00  0.21459628285E+03  0.23626734999E+03  0.00000000000E+00 0. -1.
<scales pt_clust_5="13000.00000" pt_clust_6="13000.00000" pt_clust_7="13000.00000" pt_clust_8="13000.00000" pt_clust_9="98.84688"></scales>
<clustering>
<clus scale="   81.003">  5  6 -1 -1</clus>
<clus scale="   89.939">  7  8 -1 -1</clus>
<clus scale="   98.847">  2  9  1 -1</clus>
<clus scale="  137.478">  1  5  2 -1</clus>
<clus scale="   98.847">  2  5  1 -1</clus>
</clustering>
</event>
<event>
 9    2  0.9254368E-005  0.1450771E+03  0.7546771E-02  0.1209611E+00
         21   -1    0    0  501  502  0.00000000000E+00  0.00000000000E+00  0.90995426477E+02  0.90995426477E+02  0.00000000000E+00 0.  1.
         -1   -1    0    0    0  501 -0.00000000000E+00 -0.00000000000E+00 -0.34528744105E+03  0.34528744105E+03  0.00000000000E+00 0.  1.
         23    2    1    2    0    0  0.70774057946E+02  0.86340690470E+02 -0.20021737907E+03  0.24814451858E+03  0.95000111106E+02 0.  0.
         24    2    1    2    0    0 -0.95165733665E+02 -0.55002784552E+02 -0.24395814637E+02  0.13856163466E+03  0.80761052838E+02 0.  0.
        -11    1    4    4    0    0 -0.69756042150E+02 -0.15695258609E+02 -0.48023480596E+02  0.86130721858E+02  0.00000000000E+00 0.  1.
         12    1    4    4    0    0 -0.25409691515E+02 -0.39307525943E+02  0.23627665959E+02  0.52430912803E+02  0.00000000000E+00 0. -1.
        -11    1    3    3    0    0  0.57405470437E+02  0.43479589935E+01 -0.48955086335E+02  0.75570452305E+02  0.00000000000E+00 0. -1.
         11    1    3    3    0    0  0.13368587509E+02  0.81992731476E+02 -0.15126229273E+03  0.17257406627E+03  0.00000000000E+00 0.  1.
         -2    1    1    2    0  502  0.24391675720E+02 -0.31337905918E+02 -0.29678820872E+02  0.49576714293E+02  0.00000000000E+00 0.  1.
<scales pt_clust_5="13000.00000" pt_clust_6="13000.00000" pt_clust_7="13000.00000" pt_clust_8="13000.00000" pt_clust_9="39.71171"></scales>
<clustering>
<clus scale="   39.712">  1  9  2 -1</clus>
<clus scale="   80.761">  5  6 -1 -1</clus>
<clus scale="   95.000">  7  8 -1 -1</clus>
<clus scale="  136.179">  1  5  2 -1</clus>
<clus scale="   39.712">  1  5  2 -1</clus>
</clustering>
</event>
<event>
 9    2  0.9254368E-005  0.1391543E+03  0.7546771E-02  0.1222000E+00
          2   -1    0    0  502    0 -0.00000000000E+00  0.00000000000E+00  0.11336913713E+04  0.11336913713E+04  0.00000000000E+00 0. -1.
         21   -1    0    0  501  502  0.00000000000E+00 -0.00000000000E+00 -0.37849930205E+02  0.37849930205E+02  0.00000000000E+00 0. -1.
         24    2    1    2    0    0 -0.77861832880E+02 -0.36873994005E+02  0.32228229797E+03  0.34346476259E+03  0.81731310397E+02 0.  0.
         23    2    1    2    0    0  0.55502956350E+02 -0.82907946071E+02  0.21444216102E+03  0.25583582715E+03  0.97530632860E+02 0.  0.
        -13    1    3    3    0    0 -0.31354929490E+02  0.63565496024E+01  0.28331330170E+02  0.42734080023E+02  0.00000000000E+00 0.  1.
         14    1    3    3    0    0 -0.46506903390E+02 -0.43230543607E+02  0.29395096780E+03  0.30073068257E+03  0.00000000000E+00 0. -1.
        -13    1    4    4    0    0 -0.27882524544E+02 -0.14523348526E+02  0.54932743870E+02  0.63292726094E+02  0.00000000000E+00 0.  1.
         13    1    4    4    0    0  0.83385480894E+02 -0.68384597545E+02  0.15950941715E+03  0.19254310106E+03  0.00000000000E+00 0. -1.
          1    1    1    2  501    0  0.22358876530E+02  0.11978194008E+03  0.55911698212E+03  0.57224071179E+03  0.00000000000E+00 0. -1.
<scales pt_clust_5="13000.00000" pt_clust_6="13000.00000" pt_clust_7="13000.00000" pt_clust_8="13000.00000" pt_clust_9="99.25569"></scales>
<clustering>
<clus scale="   81.731">  5  6 -1 -1</clus>
<clus scale="   97.531">  7  8 -1 -1</clus>
<clus scale="  118.753">  1  5  2 -1</clus>
<clus scale="   99.256">  2  9  1 -1</clus>
<clus scale="   99.256">  2  5  1 -1</clus>
</clustering>
</event>
<event>
 9    2  0.9254368E-005  0.2242361E+03  0.7546771E-02  0.1146155E+00
         -3   -1    0    0    0  501 -0.00000000000E+00  0.00000000000E+00  0.14671560799E+04  0.14671560799E+04  0.00000000000E+00 0.  1.
         21   -1    0    0  501  502  0.00000000000E+00 -0.00000000000E+00 -0.63008020106E+02  0.63008020106E+02  0.00000000000E+00 0.  1.
         24    2    1    2    0    0 -0.13093863117E+03  0.23492588946E+02  0.35225269827E+03  0.38465905195E+03  0.78637115520E+02 0.  0.
         23    2    1    2    0    0 -0.10238085436E+03 -0.11568346424E+03  0.62937107274E+03  0.65411526955E+03  0.88850072675E+02 0.  0.
        -11    1    3    3    0    0 -0.13148013295E+03  0.39533083012E+02  0.29848552064E+03  0.32854755523E+03  0.00000000000E+00 0.  1.
         12    1    3    3    0    0  0.54150177696E+00 -0.16040494066E+02  0.53767177629E+02  0.56111496721E+02  0.00000000000E+00 0. -1.
        -13    1    4    4    0    0 -0.72706161330E+02 -0.10599864177E+03  0.59016443843E+03  0.60399996882E+03  0.00000000000E+00 0. -1.
         13    1    4    4    0    0 -0.29674693030E+02 -0.96848224677E+01  0.39206634316E+02  0.50115300728E+02  0.00000000000E+00 0.  1.
         -4    1    1    2    0  502  0.23331948553E+03  0.92190875292E+02  0.42252428878E+03  0.49138977851E+03  0.00000000000E+00 0.  1.
<scales pt_clust_5="13000.00000" pt_clust_6="13000.00000" pt_clust_7="13000.00000" pt_clust_8="13000.00000" pt_clust_9="205.88224"></scales>
<clustering>
<clus scale="   78.637">  5  6 -1 -1</clus>
<clus scale="   88.850">  7  8 -1 -1</clus>
<clus scale="  154.534">  1  5  2 -1</clus>
<clus scale="  205.882">  2  9  1 -1</clus>
<clus scale="  205.882">  2  5  1 -1</clus>
</clustering>
</event>
<event>
 9    2  0.9254368E-005  0.1289233E+03  0.7546771E-02  0.1233730E+00
         21   -1    0    0  501  502  0.00000000000E+00  0.00000000000E+00  0.35043592281E+02  0.35043592281E+02  0.00000000000E+00 0. -1.
          2   -1    0    0  502    0 -0.00000000000E+00 -0.00000000000E+00 -0.89446468719E+03  0.89446468719E+03  0.00000000000E+00 0. -1.
         24    2    1    2    0    0  0.12908147629E+02 -0.69359951022E+02 -0.37935785648E+03  0.39452997741E+03  0.82244128799E+02 0.  0.
         23    2    1    2    0    0  0.22882253948E+02  0.12467519350E+03 -0.26238072156E+03  0.30754390043E+03  0.98346866869E+02 0.  0.
        -13    1    3    3    0    0  0.40614470018E+02 -0.39859302203E+02 -0.30106016827E+03  0.30639112922E+03  0.00000000000E+00 0.  1.
         14    1    3    3    0    0 -0.27706322390E+02 -0.29500648819E+02 -0.78297688210E+02  0.88138848189E+02  0.00000000000E+00 0. -1.
        -13    1    4    4    0    0 -0.30835070457E+02  0.32733865886E+02 -0.13055881038E+03  0.13808660512E+03  0.00000000000E+00 0.  1.
         13    1    4    4    0    0  0.53717324405E+02  0.91941327617E+02 -0.13182191118E+03  0.16945729530E+03  0.00000000000E+00 0. -1.
          1    1    1    2  501    0 -0.35790401577E+02 -0.55315242482E+02 -0.21768251686E+03  0.22743440163E+03  0.00000000000E+00 0. -1.
<scales pt_clust_5="13000.00000" pt_clust_6="13000.00000" pt_clust_7="13000.00000" pt_clust_8="13000.00000" pt_clust_9="65.88424"></scales>
<clustering>
<clus scale="   65.884">  1  9  2 -1</clus>
<clus scale="   82.244">  5  6 -1 -1</clus>
<clus scale="   98.347">  7  8 -1 -1</clus>
<clus scale="  117.103">  2  5  1 -1</clus>
<clus scale="   65.884">  1  5  2 -1</clus>
</clustering>
</event>
<event>
 9    2  0.9254368E-005  0.3462279E+03  0.7546771E-02  0.1089886E+00
          2   -1    0    0  502    0 -0.00000000000E+00  0.00000000000E+00  0.10309823897E+04  0.10309823897E+04  0.00000000000E+00 0. -1.
         21   -1    0    0  501  502  0.00000000000E+00 -0.00000000000E+00 -0.32644107308E+03  0.32644107308E+03  0.00000000000E+00 0. -1.
         24    2    1    2    0    0 -0.12412210261E+03  0.89137801116E+02  0.61476914310E+03  0.63851583882E+03  0.80059560144E+02 0.  0.
         23    2    1    2    0    0 -0.15078112494E+03  0.18987222108E+03  0.18198753961E+03  0.31651223289E+03  0.90962195564E+02 0.  0.
        -13    1    3    3    0    0 -0.93856596544E+02  0.18560900041E+02  0.34850415641E+03  0.36139827720E+03  0.00000000000E+00 0.  1.
         14    1    3    3    0    0 -0.30265506066E+02  0.70576901075E+02  0.26626498669E+03  0.27711756163E+03  0.00000000000E+00 0. -1.
        -13    1    4    4    0    0 -0.70045802166E+02  0.28894522495E+02  0.32431496262E+02  0.82420323835E+02  0.00000000000E+00 0. -1.
         13    1    4    4    0    0 -0.80735322778E+02  0.16097769858E+03  0.14955604335E+03  0.23409190906E+03  0.00000000000E+00 0.  1.
          1    1    1    2  501    0  0.27490322755E+03 -0.27901002219E+03 -0.92215366092E+02  0.40239539106E+03  0.00000000000E+00 0. -1.
<scales pt_clust_5="13000.00000" pt_clust_6="13000.00000" pt_clust_7="13000.00000" pt_clust_8="13000.00000" pt_clust_9="334.06533"></scales>
<clustering>
<clus scale="   80.060">  5  6 -1 -1</clus>
<clus scale="   90.962">  7  8 -1 -1</clus>
<clus scale="  172.515">  1  5  2 -1</clus>
<clus scale="  334.065">  2  9  1 -1</clus>
<clus scale="  334.065">  2  5  1 -1</clus>
</clustering>
</event>
<event>
 9    2  0.9254368E-005  0.1856472E+03  0.7546771E-02  0.1180920E+00
          2   -1    0    0  502    0 -0.00000000000E+00  0.00000000000E+00  0.25231456571E+03  0.25231456571E+03  0.00000000000E+00 0. -1.
         21   -1    0    0  501  502  0.00000000000E+00 -0.00000000000E+00 -0.29694240593E+03  0.29694240593E+03  0.00000000000E+00 0.  1.
         24    2    1    2    0    0 -0.76779046454E+02  0.50413408588E+02  0.33517650135E+02  0.12634291353E+03  0.80016030817E+02 0.  0.
         23    2    1    2    0    0 -0.13906119015E+03 -0.18572433190E+02 -0.11066679505E+03  0.20232736152E+03  0.94901379399E+02 0.  0.
        -13    1    3    3    0    0 -0.58235245457E+02 -0.95555473305E+01  0.17672025397E+02  0.61603188065E+02  0.00000000000E+00 0.  1.
         14    1    3    3    0    0 -0.18543800998E+02  0.59968955918E+02  0.15845624737E+02  0.64739725460E+02  0.00000000000E+00 0. -1.
        -11    1    4    4    0    0 -0.92354893851E+02  0.32351335097E+02 -0.47793116366E+02  0.10890462466E+03  0.00000000000E+00 0.  1.
         11    1    4    4    0    0 -0.46706296302E+02 -0.50923768287E+02 -0.62873678684E+02  0.93422736858E+02  0.00000000000E+00 0. -1.
          1    1    1    2  501    0  0.21584023661E+03 -0.31840975398E+02  0.32521304698E+02  0.22058669659E+03  0.00000000000E+00 0. -1.
<scales pt_clust_5="13000.00000" pt_clust_6="13000.00000" pt_clust_7="13000.00000" pt_clust_8="13000.00000" pt_clust_9="159.55760"></scales>
<clustering>
<clus scale="   80.016">  5  6 -1 -1</clus>
<clus scale="   94.901">  7  8 -1 -1</clus>
<clus scale="  121.816">  1  5  2 -1</clus>
<clus scale="  159.558">  2  9  1 -1</clus>
<clus scale="  159.558">  2  5  1 -1</clus>
</clustering>
</event>
<event>
 9    2  0.9254368E-005  0.1050817E+03  0.7546771E-02  0.1277438E+00
          2   -1    0    0  502    0 -0.00000000000E+00  0.00000000000E+00  0.19366138725E+03  0.19366138725E+03  0.00000000000E+00 0. -1.
         21   -1    0    0  501  502  0.00000000000E+00 -0.00000000000E+00 -0.13571553356E+03  0.13571553356E+03  0.00000000000E+00 0. -1.
         23    2    1    2    0    0 -0.83799747002E+01  0.37267826695E+02  0.12917017133E+03  0.16479805025E+03  0.94943927263E+02 0.  0.
         24    2    1    2    0    0  0.17057198134E+02 -0.73571973383E+02 -0.41884524770E+02  0.11710141572E+03  0.79086312797E+02 0.  0.
        -13    1    4    4    0    0 -0.29604414044E+02 -0.26579649664E+02 -0.20892036190E+01  0.39840480405E+02  0.00000000000E+00 0.  1.
         14    1    4    4    0    0  0.46661612178E+02 -0.46992323719E+02 -0.39795321151E+02  0.77260935310E+02  0.00000000000E+00 0. -1.
        -13    1    3    3    0    0  0.31808390126E+02  0.49895898673E+02  0.86797254797E+02  0.10504826427E+03  0.00000000000E+00 0. -1.
         13    1    3    3    0    0 -0.40188364826E+02 -0.12628071978E+02  0.42372916529E+02  0.59749785978E+02  0.00000000000E+00 0.  1.
          1    1    1    2  501    0 -0.86772234334E+01  0.36304146688E+02 -0.29339792865E+02  0.47477454846E+02  0.00000000000E+00 0. -1.
<scales pt_clust_5="13000.00000" pt_clust_6="13000.00000" pt_clust_7="13000.00000" pt_clust_8="13000.00000" pt_clust_9="37.32674"></scales>
<clustering>
<clus scale="   37.327">  2  9  1 -1</clus>
<clus scale="   79.086">  5  6 -1 -1</clus>
<clus scale="   91.008">  2  5  1 -1</clus>
<clus scale="   94.944">  7  8 -1 -1</clus>
<clus scale="   37.327">  2  5  1 -1</clus>
</clustering>
</event>
<event>
 9    2  0.9254368E-005  0.9523218E+03  0.7546771E-02  0.9892745E-01
          2   -1    0    0  502    0 -0.00000000000E+00  0.00000000000E+00  0.20928418329E+04  0.20928418329E+04  0.00000000000E+00 0. -1.
         21   -1    0    0  501  502  0.00000000000E+00 -0.00000000000E+00 -0.56969415755E+03  0.56969415755E+03  0.00000000000E+00 0.  1.
         23    2    1    2    0    0 -0.12315359300E+03 -0.34905077435E+02 -0.21520272752E+02  0.15776987662E+03  0.89682996880E+02 0.  0.
         24    2    1    2    0    0  0.79701716568E+02  0.96090489142E+03  0.44165221193E+03  0.10639304413E+04  0.84857136298E+02 0.  0.
        -11    1    4    4    0    0  0.67186511253E+02  0.63739718058E+03  0.25177188490E+03  0.68860603768E+03  0.00000000000E+00 0.  1.
         12    1    4    4    0    0  0.12515205315E+02  0.32350771084E+03  0.18988032702E+03  0.37532440359E+03  0.00000000000E+00 0. -1.
        -13    1    3    3    0    0 -0.58549170467E+02 -0.33820124371E+02 -0.52985010281E+02  0.85902371849E+02  0.00000000000E+00 0.  1.
         13    1    3    3    0    0 -0.64604422536E+02 -0.10849530640E+01  0.31464737529E+02  0.71867504772E+02  0.00000000000E+00 0. -1.
          1    1    1    2  501    0  0.43451876435E+02 -0.92599981399E+03  0.11030157362E+04  0.14408356726E+04  0.00000000000E+00 0. -1.
<scales pt_clust_5="13000.00000" pt_clust_6="13000.00000" pt_clust_7="13000.00000" pt_clust_8="13000.00000" pt_clust_9="948.53408"></scales>
<clustering>
<clus scale="   84.857">  5  6 -1 -1</clus>
<clus scale="   89.683">  7  8 -1 -1</clus>
<clus scale="  156.295">  1  7  2 -1</clus>
<clus scale="  948.534">  2  9  1 -1</clus>
<clus scale="  948.534">  2  5  1 -1</clus>
</clustering>
</event>
<event>
 9    2  0.9254368E-005  0.1677611E+03  0.7546771E-02  0.1213176E+00
          2   -1    0    0  502    0 -0.00000000000E+00  0.00000000000E+00  0.88787567893E+03  0.88787567893E+03  0.00000000000E+00 0. -1.
         21   -1    0    0  501  502  0.00000000000E+00 -0.00000000000E+00 -0.52397423938E+02  0.52397423938E+02  0.00000000000E+00 0.  1.
         24    2    1    2    0    0  0.41769655616E+01  0.12786870977E+02  0.16691301617E+03  0.18580481189E+03  0.80514110821E+02 0.  0.
         23    2    1    2    0    0  0.78936823313E+02 -0.11888674704E+03  0.17921903735E+03  0.24690076790E+03  0.92062180844E+02 0.  0.
        -11    1    3    3    0    0 -0.22256826671E+02 -0.22156877468E+02  0.36099683244E+02  0.47848518085E+02  0.00000000000E+00 0.  1.
         12    1    3    3    0    0  0.26433792233E+02  0.34943748446E+02  0.13081333293E+03  0.13795629380E+03  0.00000000000E+00 0. -1.
        -13    1    4    4    0    0  0.44148886964E+02 -0.11210556736E+03  0.17314603586E+03  0.21094153736E+03  0.00000000000E+00 0.  1.
         13    1    4    4    0    0  0.34787936349E+02 -0.67811796820E+01  0.60730014966E+01  0.35959230532E+02  0.00000000000E+00 0. -1.
          1    1    1    2  501    0 -0.83113788874E+02  0.10609987606E+03  0.48934620147E+03  0.50756752309E+03  0.00000000000E+00 0. -1.
<scales pt_clust_5="13000.00000" pt_clust_6="13000.00000" pt_clust_7="13000.00000" pt_clust_8="13000.00000" pt_clust_9="140.24394"></scales>
<clustering>
<clus scale="   80.514">  5  6 -1 -1</clus>
<clus scale="   81.630">  1  5  2 -1</clus>
<clus scale="   92.062">  7  8 -1 -1</clus>
<clus scale="  140.244">  2  9  1 -1</clus>
<clus scale="  140.244">  2  5  1 -1</clus>
</clustering>
</event>
<event>
 9    2  0.9254368E-005  0.9153663E+02  0.7546771E-02  0.1304649E+00
          2   -1    0    0  502    0 -0.00000000000E+00  0.00000000000E+00  0.19104431884E+03  0.19104431884E+03  0.00000000000E+00 0. -1.
         21   -1    0    0  501  502  0.00000000000E+00 -0.00000000000E+00 -0.21581787551E+03  0.21581787551E+03  0.00000000000E+00 0. -1.
         24    2    1    2    0    0  0.75430684648E+01  0.79306006511E+01  0.13675381077E+03  0.15998403667E+03  0.82301244963E+02 0.  0.
         23    2    1    2    0    0  0.65251523547E+02 -0.16947667027E+02 -0.99251219405E+02  0.15065612941E+03  0.91112458158E+02 0.  0.
        -13    1    3    3    0    0 -0.71394075280E+01  0.35008583001E+02  0.23860250936E+02  0.42963747489E+02  0.00000000000E+00 0.  1.
         14    1    3    3    0    0  0.14682475993E+02 -0.27077982350E+02  0.11289355983E+03  0.11702028918E+03  0.00000000000E+00 0. -1.
        -13    1    4    4    0    0  0.86671285286E+02 -0.39361388897E+01 -0.86589951614E+02  0.12257742289E+03  0.00000000000E+00 0. -1.
         13    1    4    4    0    0 -0.21419761739E+02 -0.13011528137E+02 -0.12661267792E+02  0.28078706514E+02  0.00000000000E+00 0.  1.
          1    1    1    2  501    0 -0.72794592011E+02  0.90170663759E+01 -0.62276148024E+02  0.96222028273E+02  0.00000000000E+00 0. -1.
<scales pt_clust_5="13000.00000" pt_clust_6="13000.00000" pt_clust_7="13000.00000" pt_clust_8="13000.00000" pt_clust_9="73.35094"></scales>
<clustering>
<clus scale="   73.351">  2  9  1 -1</clus>
<clus scale="   82.301">  5  6 -1 -1</clus>
<clus scale="   82.771">  1  5  2 -1</clus>
<clus scale="   91.112">  7  8 -1 -1</clus>
<clus scale="   73.351">  2  5  1 -1</clus>
</clustering>
</event>
<event>
 9    2  0.9254368E-005  0.8548509E+02  0.7546771E-02  0.1314582E+00
         -3   -1    0    0    0  501 -0.00000000000E+00  0.00000000000E+00  0.37465738399E+03  0.37465738399E+03  0.00000000000E+00 0.  1.
         21   -1    0    0  501  502  0.00000000000E+00 -0.00000000000E+00 -0.12705179260E+03  0.12705179260E+03  0.00000000000E+00 0.  1.
         23    2    1    2    0    0  0.95088755976E+01  0.27356439921E+02  0.31189380131E+03  0.32314206163E+03  0.79399339919E+02 0.  0.
         24    2    1    2    0    0 -0.11034913078E+02 -0.49868154926E+02  0.15982815605E+02  0.95185200599E+02  0.78715753417E+02 0.  0.
        -11    1    4    4    0    0 -0.90495027895E+01 -0.70013000041E+02  0.22209708691E+02  0.74006653996E+02  0.00000000000E+00 0.  1.
         12    1    4    4    0    0 -0.19854102890E+01  0.20144845115E+02 -0.62268930861E+01  0.21178546603E+02  0.00000000000E+00 0. -1.
        -13    1    3    3    0    0  0.13122787719E+02 -0.22680263684E+02  0.49622451729E+02  0.56115859023E+02  0.00000000000E+00 0.  1.
         13    1    3    3    0    0 -0.36139121219E+01  0.50036703605E+02  0.26227134958E+03  0.26702620261E+03  0.00000000000E+00 0. -1.
         -4    1    1    2    0  502  0.15260374809E+01  0.22511715005E+02 -0.80271025530E+02  0.83381914360E+02  0.00000000000E+00 0.  1.
<scales pt_clust_5="13000.00000" pt_clust_6="13000.00000" pt_clust_7="13000.00000" pt_clust_8="13000.00000" pt_clust_9="22.56338"></scales>
<clustering>
<clus scale="   22.563">  2  9  1 -1</clus>
<clus scale="   78.716">  5  6 -1 -1</clus>
<clus scale="   79.399">  7  8 -1 -1</clus>
<clus scale="   84.851">  2  5  1 -1</clus>
<clus scale="   22.563">  2  5  1 -1</clus>
</clustering>
</event>
<event>
 9    2  0.9254368E-005  0.1165958E+03  0.7546771E-02  0.1255339E+00
         -3   -1    0    0    0  501 -0.00000000000E+00  0.00000000000E+00  0.11349152951E+03  0.11349152951E+03  0.00000000000E+00 0.  1.
         21   -1    0    0  501  502  0.00000000000E+00 -0.00000000000E+00 -0.37089800182E+03  0.37089800182E+03  0.00000000000E+00 0.  1.
         23    2    1    2    0    0  0.30628623784E+02  0.39615381855E+02  0.39165411288E+02  0.12405090158E+03  0.10652326350E+03 0.  0.
         24    2    1    2    0    0 -0.68924798362E+02  0.18328640584E+02 -0.10309736486E+03  0.15477478048E+03  0.90772237699E+02 0.  0.
        -13    1    4    4    0    0 -0.46614636081E+02  0.45604544773E+02 -0.10002162188E+03  0.11940277905E+03  0.00000000000E+00 0.  1.
         14    1    4    4    0    0 -0.22310162281E+02 -0.27275904189E+02 -0.30757429762E+01  0.35372001430E+02  0.00000000000E+00 0. -1.
        -13    1    3    3    0    0 -0.36187498508E+01 -0.32417709918E+02 -0.48092810651E+01  0.32971691663E+02  0.00000000000E+00 0. -1.
         13    1    3    3    0    0  0.34247373635E+02  0.72033091772E+02  0.43974692353E+02  0.91079209915E+02  0.00000000000E+00 0.  1.
         -4    1    1    2    0  502  0.38296174578E+02 -0.57944022439E+02 -0.19347451874E+03  0.20556384927E+03  0.00000000000E+00 0.  1.
<scales pt_clust_5="13000.00000" pt_clust_6="13000.00000" pt_clust_7="13000.00000" pt_clust_8="13000.00000" pt_clust_9="69.45579"></scales>
<clustering>
<clus scale="   69.456">  2  9  1 -1</clus>
<clus scale="   90.772">  5  6 -1 -1</clus>
<clus scale="  102.406">  2  5  1 -1</clus>
<clus scale="  106.523">  7  8 -1 -1</clus>
<clus scale="   69.456">  2  5  1 -1</clus>
</clustering>
</event>
<event>
 9    2  0.9254368E-005  0.9195558E+02  0.7546771E-02  0.1304916E+00
          2   -1    0    0  502    0 -0.00000000000E+00  0.00000000000E+00  0.35119062985E+03  0.35119062985E+03  0.00000000000E+00 0. -1.
         21   -1    0    0  501  502  0.00000000000E+00 -0.00000000000E+00 -0.49555514022E+02  0.49555514022E+02  0.00000000000E+00 0.  1.
         23    2    1    2    0    0  0.56521032337E+01 -0.21682123769E+02  0.18875997551E+03  0.21058837848E+03  0.90637056628E+02 0.  0.
         24    2    1    2    0    0 -0.22993299139E+02 -0.18166243944E+02  0.19513527236E+02  0.87177183329E+02  0.79751986331E+02 0.  0.
        -11    1    4    4    0    0 -0.22751040740E+02 -0.38533867691E+02 -0.14919489144E+02  0.47170541340E+02  0.00000000000E+00 0.  1.
         12    1    4    4    0    0 -0.24225839859E+00  0.20367623747E+02  0.34433016380E+02  0.40006641989E+02  0.00000000000E+00 0. -1.
        -13    1    3    3    0    0  0.38554171077E+02 -0.15391520566E+01  0.35105738650E+02  0.52165179791E+02  0.00000000000E+00 0. -1.
         13    1    3    3    0    0 -0.32902067843E+02 -0.20142971713E+02  0.15365423686E+03  0.15842319869E+03  0.00000000000E+00 0.  1.
          1    1    1    2  501    0  0.17341195905E+02  0.39848367714E+02  0.93361613082E+02  0.10298058206E+03  0.00000000000E+00 0. -1.
<scales pt_clust_5="13000.00000" pt_clust_6="13000.00000" pt_clust_7="13000.00000" pt_clust_8="13000.00000" pt_clust_9="43.45816"></scales>
<clustering>
<clus scale="   43.458">  2  9  1 -1</clus>
<clus scale="   79.752">  5  6 -1 -1</clus>
<clus scale="   81.247">  2  5  1 -1</clus>
<clus scale="   90.637">  7  8 -1 -1</clus>
<clus scale="   43.458">  2  5  1 -1</clus>
</clustering>
</event>
<event>
 9    2  0.9254368E-005  0.1048495E+03  0.7546771E-02  0.1275931E+00
         21   -1    0    0  501  502  0.00000000000E+00  0.00000000000E+00  0.65127313909E+02  0.65127313909E+02  0.00000000000E+00 0. -1.
          4   -1    0    0  502    0 -0.00000000000E+00 -0.00000000000E+00 -0.24629842081E+03  0.24629842081E+03  0.00000000000E+00 0. -1.
         23    2    1    2    0    0  0.50224443350E+01 -0.50834378974E+02 -0.70934343455E+02  0.12776258256E+03  0.93178524292E+02 0.  0.
         24    2    1    2    0    0 -0.44303081862E+02  0.31776578940E+02 -0.51494919839E+02  0.11047317731E+03  0.81117705251E+02 0.  0.
        -11    1    4    4    0    0 -0.25808740048E+02 -0.23272442764E+02 -0.31201381517E+01  0.34891731358E+02  0.00000000000E+00 0.  1.
         12    1    4    4    0    0 -0.18494341813E+02  0.55049021704E+02 -0.48374781687E+02  0.75581445957E+02  0.00000000000E+00 0. -1.
        -11    1    3    3    0    0  0.25909894377E+02  0.34178647617E+01  0.10111980130E+02  0.28022429736E+02  0.00000000000E+00 0.  1.
         11    1    3    3    0    0 -0.20887450042E+02 -0.54252243736E+02 -0.81046323585E+02  0.99740152829E+02  0.00000000000E+00 0. -1.
          3    1    1    2  501    0  0.39280637527E+02  0.19057800034E+02 -0.58741843604E+02  0.73189974837E+02  0.00000000000E+00 0. -1.
<scales pt_clust_5="13000.00000" pt_clust_6="13000.00000" pt_clust_7="13000.00000" pt_clust_8="13000.00000" pt_clust_9="43.65971"></scales>
<clustering>
<clus scale="   43.660">  1  9  2 -1</clus>
<clus scale="   81.118">  5  6 -1 -1</clus>
<clus scale="   93.179">  7  8 -1 -1</clus>
<clus scale="   94.294">  1  5  2 -1</clus>
<clus scale="   43.660">  1  5  2 -1</clus>
</clustering>
</event>
<event>
 9    2  0.9254368E-005  0.2013735E+03  0.7546771E-02  0.1165222E+00
          2   -1    0    0  502    0 -0.00000000000E+00  0.00000000000E+00  0.10011736484E+04  0.10011736484E+04  0.00000000000E+00 0. -1.
         21   -1    0    0  501  502  0.00000000000E+00 -0.00000000000E+00 -0.38009528731E+03  0.38009528731E+03  0.00000000000E+00 0.  1.
         23    2    1    2    0    0 -0.67410375917E+02 -0.72319072537E+02 -0.18565081618E+03  0.23038419767E+03  0.94002372061E+02 0.  0.
         24    2    1    2    0    0 -0.17248262701E+03  0.57709220473E+02 -0.93052319923E+02  0.21955834879E+03  0.80414697229E+02 0.  0.
        -11    1    4    4    0    0 -0.11114863742E+03 -0.26289781593E+01 -0.38374187339E+02  0.11761594016E+03  0.00000000000E+00 0.  1.
         12    1    4    4    0    0 -0.61333989595E+02  0.60338198632E+02 -0.54678132584E+02  0.10194240863E+03  0.00000000000E+00 0. -1.
        -11    1    3    3    0    0 -0.57757394680E+02 -0.92071853887E+02 -0.17487764673E+03  0.20590127305E+03  0.00000000000E+00 0.  1.
         11    1    3    3    0    0 -0.96529812369E+01  0.19752781350E+02 -0.10773169452E+02  0.24482924618E+02  0.00000000000E+00 0. -1.
          1    1    1    2  501    0  0.23989300293E+03  0.14609852064E+02  0.89978149722E+03  0.93132638928E+03  0.00000000000E+00 0. -1.
<scales pt_clust_5="13000.00000" pt_clust_6="13000.00000" pt_clust_7="13000.00000" pt_clust_8="13000.00000" pt_clust_9="184.62072"></scales>
<clustering>
<clus scale="   80.415">  5  6 -1 -1</clus>
<clus scale="   94.002">  7  8 -1 -1</clus>
<clus scale="  136.421">  1  7  2 -1</clus>
<clus scale="  184.621">  2  9  1 -1</clus>
<clus scale="  184.621">  2  5  1 -1</clus>
</clustering>
</event>
<event>
 9    2  0.9254368E-005  0.3011401E+03  0.7546771E-02  0.1085232E+00
         21   -1    0    0  501  502  0.00000000000E+00  0.00000000000E+00  0.50702007114E+03  0.50702007114E+03  0.00000000000E+00 0. -1.
          2   -1    0    0  502    0 -0.00000000000E+00 -0.00000000000E+00 -0.39466887032E+03  0.39466887032E+03  0.00000000000E+00 0. -1.
         24    2    1    2    0    0 -0.14361259901E+03 -0.26636339267E+03 -0.22678487807E+03  0.38702945547E+03  0.82379505507E+02 0.  0.
         23    2    1    2    0    0  0.31988969355E+02  0.25925411899E+03  0.19507446396E+03  0.33227493247E+03  0.64160672422E+02 0.  0.
        -11    1    3    3    0    0  0.85022218882E+01 -0.40007078687E+02 -0.30259781074E+02  0.50877386654E+02  0.00000000000E+00 0.  1.
         12    1    3    3    0    0 -0.15211482090E+03 -0.22635631398E+03 -0.19652509699E+03  0.33615206881E+03  0.00000000000E+00 0. -1.
        -13    1    4    4    0    0  0.19335806923E+02  0.37374237593E+02  0.56215768366E+02  0.70220507531E+02  0.00000000000E+00 0.  1.
         13    1    4    4    0    0  0.12653162432E+02  0.22187988140E+03  0.13885869559E+03  0.26205442494E+03  0.00000000000E+00 0. -1.
          1    1    1    2  501    0  0.11162362965E+03  0.71092736834E+01  0.14406161493E+03  0.18238455353E+03  0.00000000000E+00 0. -1.
<scales pt_clust_5="13000.00000" pt_clust_6="13000.00000" pt_clust_7="13000.00000" pt_clust_8="13000.00000" pt_clust_9="111.84979"></scales>
<clustering>
<clus scale="   64.161">  7  8 -1 -1</clus>
<clus scale="   82.380">  5  6 -1 -1</clus>
<clus scale="  111.850">  1  9  2 -1</clus>
<clus scale="  296.674">  1  7  2 -1</clus>
<clus scale="  111.850">  1  5  2 -1</clus>
</clustering>
</event>
<event>
 9    2  0.9254368E-005  0.9964054E+02  0.7546771E-02  0.1289977E+00
         -1   -1    0    0    0  501 -0.00000000000E+00  0.00000000000E+00  0.56005407206E+03  0.56005407206E+03  0.00000000000E+00 0.  1.
         21   -1    0    0  501  502  0.00000000000E+00 -0.00000000000E+00 -0.93068786363E+02  0.93068786363E+02  0.00000000000E+00 0.  1.
         23    2    1    2    0    0 -0.28961082938E+02  0.59085376334E+01  0.43399324780E+03  0.44495115898E+03  0.93582795415E+02 0.  0.
         24    2    1    2    0    0  0.46765725144E+02 -0.15822209065E+02  0.10155730325E+03  0.13664211272E+03  0.76940274104E+02 0.  0.
        -11    1    4    4    0    0 -0.48833923742E+01  0.24368688723E+02  0.18954073533E+02  0.31255998058E+02  0.00000000000E+00 0.  1.
         12    1    4    4    0    0  0.51649117518E+02 -0.40190897787E+02  0.82603229713E+02  0.10538611467E+03  0.00000000000E+00 0. -1.
        -11    1    3    3    0    0 -0.49282805078E+02  0.34324027621E+02  0.32479468747E+03  0.33030065510E+03  0.00000000000E+00 0.  1.
         11    1    3    3    0    0  0.20321722140E+02 -0.28415489988E+02  0.10919856033E+03  0.11465050388E+03  0.00000000000E+00 0. -1.
         -2    1    1    2    0  502 -0.17804642206E+02  0.99136714312E+01 -0.68565265345E+02  0.71529586726E+02  0.00000000000E+00 0.  1.
<scales pt_clust_5="13000.00000" pt_clust_6="13000.00000" pt_clust_7="13000.00000" pt_clust_8="13000.00000" pt_clust_9="20.37857"></scales>
<clustering>
<clus scale="   20.379">  2  9  1 -1</clus>
<clus scale="   76.940">  5  6 -1 -1</clus>
<clus scale="   84.204">  2  5  1 -1</clus>
<clus scale="   93.583">  7  8 -1 -1</clus>
<clus scale="   20.379">  2  5  1 -1</clus>
</clustering>
</event>
<event>
 9    2  0.9254368E-005  0.1849423E+03  0.7546771E-02  0.1199258E+00
         21   -1    0    0  501  502  0.00000000000E+00  0.00000000000E+00  0.12600782071E+03  0.12600782071E+03  0.00000000000E+00 0. -1.
          2   -1    0    0  502    0 -0.00000000000E+00 -0.00000000000E+00 -0.75905278425E+03  0.75905278425E+03  0.00000000000E+00 0. -1.
         24    2    1    2    0    0 -0.12086366521E+02 -0.23383640240E+01 -0.48827296330E+03  0.49513887123E+03  0.81243257584E+02 0.  0.
         23    2    1    2    0    0  0.35941554221E+02  0.14936110172E+03 -0.15079932542E+03  0.24085435291E+03  0.10802707411E+03 0.  0.
        -13    1    3    3    0    0 -0.28761641778E+02 -0.32331996285E+02 -0.18825127412E+03  0.19316089726E+03  0.00000000000E+00 0.  1.
         14    1    3    3    0    0  0.16675275257E+02  0.29993632261E+02 -0.30002168918E+03  0.30197797397E+03  0.00000000000E+00 0. -1.
        -13    1    4    4    0    0  0.23087065547E+02  0.57830527599E+02 -0.13282158880E+03  0.14669341148E+03  0.00000000000E+00 0.  1.
         13    1    4    4    0    0  0.12854488674E+02  0.91530574119E+02 -0.17977736615E+02  0.94160941432E+02  0.00000000000E+00 0. -1.
          1    1    1    2  501    0 -0.23855187699E+02 -0.14702273769E+03  0.60273251786E+01  0.14906738083E+03  0.00000000000E+00 0. -1.
<scales pt_clust_5="13000.00000" pt_clust_6="13000.00000" pt_clust_7="13000.00000" pt_clust_8="13000.00000" pt_clust_9="150.11264"></scales>
<clustering>
<clus scale="   81.243">  5  6 -1 -1</clus>
<clus scale="   82.171">  2  5  1 -1</clus>
<clus scale="  108.027">  7  8 -1 -1</clus>
<clus scale="  150.113">  1  9  2 -1</clus>
<clus scale="  150.113">  1  5  2 -1</clus>
</clustering>
</event>
<event>
 9    2  0.9254368E-005  0.2672351E+03  0.7546771E-02  0.1124388E+00
          2   -1    0    0  502    0 -0.00000000000E+00  0.00000000000E+00  0.21864999778E+04  0.21864999778E+04  0.00000000000E+00 0. -1.
         21   -1    0    0  501  502  0.00000000000E+00 -0.00000000000E+00 -0.55712496158E+02  0.55712496158E+02  0.00000000000E+00 0. -1.
         24    2    1    2    0    0  0.38131616014E+02 -0.12807687375E+03  0.36536417606E+03  0.39689786321E+03  0.78608059053E+02 0.  0.
         23    2    1    2    0    0  0.30499832778E+02  0.30526284415E+03  0.81024586657E+03  0.87142083631E+03  0.93596291849E+02 0.  0.
        -13    1    3    3    0    0 -0.22340818441E+02 -0.28090939570E+02  0.11771958999E+03  0.12306955318E+03  0.00000000000E+00 0.  1.
         14    1    3    3    0    0  0.60472434455E+02 -0.99985934185E+02  0.24764458607E+03  0.27382831003E+03  0.00000000000E+00 0. -1.
        -11    1    4    4    0    0  0.17859153694E+02  0.11888098596E+03  0.44791998095E+03  0.46377143889E+03  0.00000000000E+00 0.  1.
         11    1    4    4    0    0  0.12640679084E+02  0.18638185819E+03  0.36232588562E+03  0.40764939742E+03  0.00000000000E+00 0. -1.
          1    1    1    2  501    0 -0.68631448792E+02 -0.17718597040E+03  0.95517743899E+03  0.97389377441E+03  0.00000000000E+00 0. -1.
<scales pt_clust_5="13000.00000" pt_clust_6="13000.00000" pt_clust_7="13000.00000" pt_clust_8="13000.00000" pt_clust_9="250.30862"></scales>
<clustering>
<clus scale="   78.608">  5  6 -1 -1</clus>
<clus scale="   93.596">  7  8 -1 -1</clus>
<clus scale="  155.039">  1  5  2 -1</clus>
<clus scale="  250.309">  2  9  1 -1</clus>
<clus scale="  250.309">  2  5  1 -1</clus>
</clustering>
</event>
<event>
 9    2  0.9254368E-005  0.9893387E+02  0.7546771E-02  0.1288113E+00
          2   -1    0    0  502    0 -0.00000000000E+00  0.00000000000E+00  0.19177195231E+03  0.19177195231E+03  0.00000000000E+00 0. -1.
         21   -1    0    0  501  502  0.00000000000E+00 -0.00000000000E+00 -0.22361980446E+03  0.22361980446E+03  0.00000000000E+00 0. -1.
         24    2    1    2    0    0  0.35480014033E+01  0.39174004002E+02  0.10266571748E+03  0.13643589311E+03  0.80791784728E+02 0.  0.
         23    2    1    2    0    0 -0.40277804660E+02 -0.23867571223E+02  0.32056095810E+02  0.10769927610E+03  0.91540036544E+02 0.  0.
        -13    1    3    3    0    0 -0.35373424651E+02  0.23845965775E+01  0.50245080116E+02  0.61494174913E+02  0.00000000000E+00 0.  1.
         14    1    3    3    0    0  0.38921426054E+02  0.36789407424E+02  0.52420637367E+02  0.74941718200E+02  0.00000000000E+00 0. -1.
        -11    1    4    4    0    0 -0.66432402353E+02 -0.33308380905E+02  0.28810450684E+02  0.79704167956E+02  0.00000000000E+00 0. -1.
         11    1    4    4    0    0  0.26154597693E+02  0.94408096822E+01  0.32456451258E+01  0.27995108148E+02  0.00000000000E+00 0.  1.
          1    1    1    2  501    0  0.36729803257E+02 -0.15306432779E+02 -0.16656966544E+03  0.17125658754E+03  0.00000000000E+00 0. -1.
<scales pt_clust_5="13000.00000" pt_clust_6="13000.00000" pt_clust_7="13000.00000" pt_clust_8="13000.00000" pt_clust_9="39.79152"></scales>
<clustering>
<clus scale="   39.792">  2  9  1 -1</clus>
<clus scale="   80.792">  5  6 -1 -1</clus>
<clus scale="   89.082">  1  5  2 -1</clus>
<clus scale="   91.540">  7  8 -1 -1</clus>
<clus scale="   39.792">  2  5  1 -1</clus>
</clustering>
</event>
<event>
 9    2  0.9254368E-005  0.2531060E+03  0.7546771E-02  0.1111357E+00
          2   -1    0    0  502    0 -0.00000000000E+00  0.00000000000E+00  0.57906564365E+03  0.57906564365E+03  0.00000000000E+00 0. -1.
         21   -1    0    0  501  502  0.00000000000E+00 -0.00000000000E+00 -0.81987413255E+02  0.81987413255E+02  0.00000000000E+00 0. -1.
         24    2    1    2    0    0  0.68258309818E+02  0.98588117216E+02  0.29864366622E+03  0.33181232881E+03  0.80824306141E+02 0.  0.
         23    2    1    2    0    0  0.41337694401E+02  0.11506889101E+02  0.11442560690E+03  0.15263467084E+03  0.91448946156E+02 0.  0.
        -13    1    3    3    0    0  0.51569911556E+02  0.98426017188E+01  0.13600582876E+03  0.14578723553E+03  0.00000000000E+00 0.  1.
         14    1    3    3    0    0  0.16688398263E+02  0.88745515497E+02  0.16263783745E+03  0.18602509328E+03  0.00000000000E+00 0. -1.
        -11    1    4    4    0    0 -0.17297119843E+02 -0.19443450234E+02  0.79638420208E+01  0.27215085736E+02  0.00000000000E+00 0.  1.
         11    1    4    4    0    0  0.58634814245E+02  0.30950339335E+02  0.10646176488E+03  0.12541958511E+03  0.00000000000E+00 0. -1.
          1    1    1    2  501    0 -0.10959600422E+03 -0.11009500632E+03  0.84008957278E+02  0.17660605726E+03  0.00000000000E+00 0. -1.
<scales pt_clust_5="13000.00000" pt_clust_6="13000.00000" pt_clust_7="13000.00000" pt_clust_8="13000.00000" pt_clust_9="155.34540"></scales>
<clustering>
<clus scale="   80.824">  5  6 -1 -1</clus>
<clus scale="   91.449">  7  8 -1 -1</clus>
<clus scale="   99.479">  5  7 -1 -1</clus>
<clus scale="  155.345">  2  9  1 -1</clus>
<clus scale="  155.345">  2  5  1 -1</clus>
</clustering>
</event>
<event>
 9    2  0.9254368E-005  0.1007634E+03  0.7546771E-02  0.1291176E+00
          2   -1    0    0  502    0 -0.00000000000E+00  0.00000000000E+00  0.87001126454E+03  0.87001126454E+03  0.00000000000E+00 0. -1.
         21   -1    0    0  501  502  0.00000000000E+00 -0.00000000000E+00 -0.26927900467E+02  0.26927900467E+02  0.00000000000E+00 0.  1.
         23    2    1    2    0    0 -0.17297013241E+01 -0.53744366152E+02  0.45707059069E+03  0.46880492695E+03  0.89292137932E+02 0.  0.
         24    2    1    2    0    0 -0.33827821157E+02  0.21479223916E+02  0.55226330845E+02  0.93881268925E+02  0.64483071361E+02 0.  0.
        -11    1    4    4    0    0 -0.25921692419E+02 -0.15898106313E+02  0.50644970007E+01  0.30827472360E+02  0.00000000000E+00 0.  1.
         12    1    4    4    0    0 -0.79061287377E+01  0.37377330229E+02  0.50161833845E+02  0.63053796565E+02  0.00000000000E+00 0. -1.
        -13    1    3    3    0    0 -0.41524312655E+02 -0.12811733705E+02  0.26097941849E+03  0.26457260995E+03  0.00000000000E+00 0.  1.
         13    1    3    3    0    0  0.39794611331E+02 -0.40932632447E+02  0.19609117220E+03  0.20423231699E+03  0.00000000000E+00 0. -1.
          1    1    1    2  501    0  0.35557522481E+02  0.32265142236E+02  0.33078644254E+03  0.33425296913E+03  0.00000000000E+00 0. -1.
<scales pt_clust_5="13000.00000" pt_clust_6="13000.00000" pt_clust_7="13000.00000" pt_clust_8="13000.00000" pt_clust_9="48.01436"></scales>
<clustering>
<clus scale="   48.014">  2  9  1 -1</clus>
<clus scale="   64.483">  5  6 -1 -1</clus>
<clus scale="   79.613">  2  5  1 -1</clus>
<clus scale="   89.292">  7  8 -1 -1</clus>
<clus scale="   48.014">  2  5  1 -1</clus>
</clustering>
</event>
<event>
 9    2  0.9254368E-005  0.1141287E+03  0.7546771E-02  0.1260847E+00
         21   -1    0    0  501  502  0.00000000000E+00  0.00000000000E+00  0.15160354767E+02  0.15160354767E+02  0.00000000000E+00 0.  1.
          2   -1    0    0  502    0 -0.00000000000E+00 -0.00000000000E+00 -0.12934588909E+04  0.12934588909E+04  0.00000000000E+00 0. -1.
         24    2    1    2    0    0 -0.40081843150E+02  0.59001101525E+02 -0.62827220063E+03  0.63646703589E+03  0.72640522773E+02 0.  0.
         23    2    1    2    0    0 -0.13409632076E+02 -0.68291954092E+02 -0.46251974097E+03  0.47694365245E+03  0.93311990651E+02 0.  0.
        -13    1    3    3    0    0 -0.15169889771E+02  0.67362354346E+02 -0.33634503050E+03  0.34335956646E+03  0.00000000000E+00 0.  1.
         14    1    3    3    0    0 -0.24911953378E+02 -0.83612528212E+01 -0.29192717014E+03  0.29310746943E+03  0.00000000000E+00 0. -1.
        -13    1    4    4    0    0 -0.12123620777E+02 -0.89564983856E+02 -0.41699323621E+03  0.42667578741E+03  0.00000000000E+00 0. -1.
         13    1    4    4    0    0 -0.12860112996E+01  0.21273029764E+02 -0.45526504763E+02  0.50267865047E+02  0.00000000000E+00 0.  1.
          1    1    1    2  501    0  0.53491475226E+02  0.92908525668E+01 -0.18750659452E+03  0.19520855732E+03  0.00000000000E+00 0. -1.
<scales pt_clust_5="13000.00000" pt_clust_6="13000.00000" pt_clust_7="13000.00000" pt_clust_8="13000.00000" pt_clust_9="54.29234"></scales>
<clustering>
<clus scale="   54.292">  1  9  2 -1</clus>
<clus scale="   72.641">  5  6 -1 -1</clus>
<clus scale="   93.312">  7  8 -1 -1</clus>
<clus scale="   97.953">  2  5  1 -1</clus>
<clus scale="   54.292">  1  5  2 -1</clus>
</clustering>
</event>
<event>
 9    2  0.9254368E-005  0.1253584E+03  0.7546771E-02  0.1237054E+00
         21   -1    0    0  501  502  0.00000000000E+00  0.00000000000E+00  0.92468050990E+02  0.92468050990E+02  0.00000000000E+00 0.  1.
         -3   -1    0    0    0  501 -0.00000000000E+00 -0.00000000000E+00 -0.69642382828E+03  0.69642382828E+03  0.00000000000E+00 0.  1.
         24    2    1    2    0    0  0.81689595775E+02  0.43069017323E+02 -0.41133801146E+03  0.42964630215E+03  0.82878555554E+02 0.  0.
         23    2    1    2    0    0  0.12840438035E+02 -0.82146868700E+02  0.17968369271E+02  0.12513123314E+03  0.91771337170E+02 0.  0.
        -13    1    3    3    0    0  0.94918040136E+02  0.50414027932E+02 -0.37898864817E+03  0.39393324815E+03  0.00000000000E+00 0.  1.
         14    1    3    3    0    0 -0.13228444360E+02 -0.73450106087E+01 -0.32349363295E+02  0.35713054009E+02  0.00000000000E+00 0. -1.
        -13    1    4    4    0    0 -0.32449143327E+02 -0.66087877543E+02  0.22184650007E+02  0.76894168548E+02  0.00000000000E+00 0. -1.
         13    1    4    4    0    0  0.45289581362E+02 -0.16058991157E+02 -0.42162807354E+01  0.48237064589E+02  0.00000000000E+00 0.  1.
         -4    1    1    2    0  502 -0.94530033810E+02  0.39077851377E+02 -0.21058613510E+03  0.23411434398E+03  0.00000000000E+00 0.  1.
<scales pt_clust_5="13000.00000" pt_clust_6="13000.00000" pt_clust_7="13000.00000" pt_clust_8="13000.00000" pt_clust_9="102.28889"></scales>
<clustering>
<clus scale="   82.879">  5  6 -1 -1</clus>
<clus scale="   91.771">  7  8 -1 -1</clus>
<clus scale="  102.289">  1  9  2 -1</clus>
<clus scale="  119.002">  2  5  1 -1</clus>
<clus scale="  102.289">  1  5  2 -1</clus>
</clustering>
</event>
<event>
 9    2  0.9254368E-005  0.9455508E+02  0.7546771E-02  0.1299560E+00
          2   -1    0    0  502    0 -0.00000000000E+00  0.00000000000E+00  0.10785177925E+04  0.10785177925E+04  0.00000000000E+00 0. -1.
         21   -1    0    0  501  502  0.00000000000E+00 -0.00000000000E+00 -0.17629134274E+02  0.17629134274E+02  0.00000000000E+00 0. -1.
         24    2    1    2    0    0  0.44562847918E+02  0.18851683814E+02  0.36948281553E+03  0.38110770860E+03  0.79901822175E+02 0.  0.
         23    2    1    2    0    0  0.18881735960E+02  0.14763720784E+02  0.24538115362E+03  0.26327242666E+03  0.92336193779E+02 0.  0.
        -11    1    3    3    0    0  0.11123315054E+02  0.46138725261E+02  0.14681799310E+03  0.15429851977E+03  0.00000000000E+00 0.  1.
         12    1    3    3    0    0  0.33439532864E+02 -0.27287041447E+02  0.22266482243E+03  0.22680918883E+03  0.00000000000E+00 0. -1.
        -13    1    4    4    0    0 -0.37553033454E+02  0.86217338493E+01  0.10512191315E+03  0.11196062361E+03  0.00000000000E+00 0.  1.
         13    1    4    4    0    0  0.56434769413E+02  0.61419869343E+01  0.14025924047E+03  0.15131180304E+03  0.00000000000E+00 0. -1.
          1    1    1    2  501    0 -0.63444583878E+02 -0.33615404598E+02  0.44602468905E+03  0.45176679148E+03  0.00000000000E+00 0. -1.
<scales pt_clust_5="13000.00000" pt_clust_6="13000.00000" pt_clust_7="13000.00000" pt_clust_8="13000.00000" pt_clust_9="71.79983"></scales>
<clustering>
<clus scale="   71.800">  2  9  1 -1</clus>
<clus scale="   79.902">  5  6 -1 -1</clus>
<clus scale="   82.456">  1  5  2 -1</clus>
<clus scale="   92.336">  7  8 -1 -1</clus>
<clus scale="   71.800">  2  5  1 -1</clus>
</clustering>
</event>
<event>
 9    2  0.9254368E-005  0.2577148E+03  0.7546771E-02  0.1109145E+00
          2   -1    0    0  502    0 -0.00000000000E+00  0.00000000000E+00  0.63602573335E+03  0.63602573335E+03  0.00000000000E+00 0. -1.
         21   -1    0    0  501  502  0.00000000000E+00 -0.00000000000E+00 -0.17660148193E+03  0.17660148193E+03  0.00000000000E+00 0. -1.
         24    2    1    2    0    0 -0.30326541320E+03  0.24217577758E+02  0.33080801475E+03  0.45652852819E+03  0.80174512862E+02 0.  0.
         23    2    1    2    0    0  0.17462500209E+03  0.13302370098E+02  0.81865582358E+02  0.21417713998E+03  0.92190180109E+02 0.  0.
        -11    1    3    3    0    0 -0.69161089908E+02  0.38261725450E+02  0.67710145771E+02  0.10407631734E+03  0.00000000000E+00 0.  1.
         12    1    3    3    0    0 -0.23410432329E+03 -0.14044147692E+02  0.26309786898E+03  0.35245221085E+03  0.00000000000E+00 0. -1.
        -11    1    4    4    0    0  0.71744342931E+02 -0.21323587231E+02  0.74141521318E+02  0.10535137065E+03  0.00000000000E+00 0.  1.
         11    1    4    4    0    0  0.10288065916E+03  0.34625957329E+02  0.77240610395E+01  0.10882576933E+03  0.00000000000E+00 0. -1.
          1    1    1    2  501    0  0.12864041111E+03 -0.37519947856E+02  0.46750654302E+02  0.14192154711E+03  0.00000000000E+00 0. -1.
<scales pt_clust_5="13000.00000" pt_clust_6="13000.00000" pt_clust_7="13000.00000" pt_clust_8="13000.00000" pt_clust_9="134.00038"></scales>
<clustering>
<clus scale="   80.175">  5  6 -1 -1</clus>
<clus scale="   92.190">  7  8 -1 -1</clus>
<clus scale="  134.000">  2  9  1 -1</clus>
<clus scale="  253.665">  1  5  2 -1</clus>
<clus scale="  134.000">  2  5  1 -1</clus>
</clustering>
</event>
<event>
 9    2  0.9254368E-005  0.2138839E+03  0.7546771E-02  0.1143330E+00
         21   -1    0    0  501  502  0.00000000000E+00  0.00000000000E+00  0.13575745051E+03  0.13575745051E+03  0.00000000000E+00 0. -1.
          2   -1    0    0  502    0 -0.00000000000E+00 -0.00000000000E+00 -0.77716223517E+03  0.77716223517E+03  0.00000000000E+00 0. -1.
         23    2    1    2    0    0  0.11979295781E+03 -0.11669936352E+03 -0.25670347882E+03  0.31967985989E+03  0.91265779962E+02 0.  0.
         24    2    1    2    0    0 -0.98523712121E+02 -0.14298864750E+03 -0.16482562167E+03  0.25230645932E+03  0.79613998101E+02 0.  0.
        -11    1    4    4    0    0  0.10710705434E+02 -0.37946612500E+02 -0.31678697899E+02  0.50578696224E+02  0.00000000000E+00 0.  1.
         12    1    4    4    0    0 -0.10923441756E+03 -0.10504203500E+03 -0.13314692377E+03  0.20172776310E+03  0.00000000000E+00 0. -1.
        -13    1    3    3    0    0  0.98212046767E+02 -0.13125885743E+03 -0.22939107096E+03  0.28194814633E+03  0.00000000000E+00 0. -1.
         13    1    3    3    0    0  0.21580911046E+02  0.14559493914E+02 -0.27312407861E+02  0.37731713555E+02  0.00000000000E+00 0.  1.
          1    1    1    2  501    0 -0.21269245692E+02  0.25968801102E+03 -0.21987568418E+03  0.34093336647E+03  0.00000000000E+00 0. -1.
<scales pt_clust_5="13000.00000" pt_clust_6="13000.00000" pt_clust_7="13000.00000" pt_clust_8="13000.00000" pt_clust_9="198.51446"></scales>
<clustering>
<clus scale="   79.614">  5  6 -1 -1</clus>
<clus scale="   91.266">  7  8 -1 -1</clus>
<clus scale="  190.522">  2  7  1 -1</clus>
<clus scale="  198.514">  1  9  2 -1</clus>
<clus scale="  198.514">  1  5  2 -1</clus>
</clustering>
</event>
<event>
 9    2  0.9254368E-005  0.1357805E+03  0.7546771E-02  0.1221529E+00
         21   -1    0    0  501  502  0.00000000000E+00  0.00000000000E+00  0.56911754809E+03  0.56911754809E+03  0.00000000000E+00 0. -1.
         -1   -1    0    0    0  501 -0.00000000000E+00 -0.00000000000E+00 -0.81591577652E+02  0.81591577652E+02  0.00000000000E+00 0.  1.
         24    2    1    2    0    0 -0.75391200034E+02  0.70128107373E+02 -0.43572041595E+01  0.13078977002E+03  0.80530703635E+02 0.  0.
         23    2    1    2    0    0  0.43269774290E+02 -0.79313628601E+02  0.43941704279E+03  0.45771923692E+03  0.90866040422E+02 0.  0.
        -13    1    3    3    0    0 -0.19178975890E+01  0.43114363649E+02 -0.24942665276E+02  0.49846396411E+02  0.00000000000E+00 0.  1.
         14    1    3    3    0    0 -0.73473302445E+02  0.27013743723E+02  0.20585461117E+02  0.80943373610E+02  0.00000000000E+00 0. -1.
        -13    1    4    4    0    0 -0.36592456997E+01 -0.77077389872E+02  0.32493428099E+03  0.33397095843E+03  0.00000000000E+00 0. -1.
         13    1    4    4    0    0  0.46929019990E+02 -0.22362387291E+01  0.11448276180E+03  0.12374827850E+03  0.00000000000E+00 0.  1.
         -2    1    1    2    0  502  0.32121425743E+02  0.91855212286E+01  0.52466131799E+02  0.62200118794E+02  0.00000000000E+00 0.  1.
<scales pt_clust_5="13000.00000" pt_clust_6="13000.00000" pt_clust_7="13000.00000" pt_clust_8="13000.00000" pt_clust_9="33.40898"></scales>
<clustering>
<clus scale="   33.409">  1  9  2 -1</clus>
<clus scale="   80.531">  5  6 -1 -1</clus>
<clus scale="   90.866">  7  8 -1 -1</clus>
<clus scale="  129.093">  2  5  1 -1</clus>
<clus scale="   33.409">  1  5  2 -1</clus>
</clustering>
</event>
<event>
 9    2  0.9254368E-005  0.3174058E+03  0.7546771E-02  0.1126512E+00
          2   -1    0    0  502    0 -0.00000000000E+00  0.00000000000E+00  0.10699142485E+04  0.10699142485E+04  0.00000000000E+00 0. -1.
         21   -1    0    0  501  502  0.00000000000E+00 -0.00000000000E+00 -0.13435538745E+03  0.13435538745E+03  0.00000000000E+00 0. -1.
         24    2    1    2    0    0 -0.18515997729E+02 -0.17313786024E+02  0.27680129049E+03  0.29038874469E+03  0.84047958146E+02 0.  0.
         23    2    1    2    0    0  0.14060154326E+03  0.27952608053E+03  0.24216401596E+03  0.40672178649E+03  0.94210282402E+02 0.  0.
        -13    1    3    3    0    0  0.32054395617E+02 -0.58026456421E+01  0.70404601625E+02  0.77575530322E+02  0.00000000000E+00 0.  1.
         14    1    3    3    0    0 -0.50570393346E+02 -0.11511140382E+02  0.20639668886E+03  0.21281321437E+03  0.00000000000E+00 0. -1.
        -13    1    4    4    0    0  0.13089813637E+03  0.24719027360E+03  0.24631882805E+03  0.37270674601E+03  0.00000000000E+00 0. -1.
         13    1    4    4    0    0  0.97034068908E+01  0.32335806929E+02 -0.41548120889E+01  0.34015040475E+02  0.00000000000E+00 0.  1.
          1    1    1    2  501    0 -0.12208554554E+03 -0.26221229450E+03  0.41659355457E+03  0.50715910474E+03  0.00000000000E+00 0. -1.
<scales pt_clust_5="13000.00000" pt_clust_6="13000.00000" pt_clust_7="13000.00000" pt_clust_8="13000.00000" pt_clust_9="303.10227"></scales>
<clustering>
<clus scale="   84.048">  5  6 -1 -1</clus>
<clus scale="   87.788">  1  5  2 -1</clus>
<clus scale="   94.210">  7  8 -1 -1</clus>
<clus scale="  303.102">  2  9  1 -1</clus>
<clus scale="  303.102">  2  5  1 -1</clus>
</clustering>
</event>
<event>
 9    2  0.9254368E-005  0.1146693E+03  0.7546771E-02  0.1255550E+00
         21   -1    0    0  501  502  0.00000000000E+00  0.00000000000E+00  0.31840888571E+03  0.31840888571E+03  0.00000000000E+00 0. -1.
         -3   -1    0    0    0  501 -0.00000000000E+00 -0.00000000000E+00 -0.77816959443E+02  0.77816959443E+02  0.00000000000E+00 0.  1.
         24    2    1    2    0    0  0.21202529685E+02  0.62197352236E+02  0.22945493026E+02  0.10824273728E+03  0.82897144907E+02 0.  0.
         23    2    1    2    0    0 -0.51341604151E+02 -0.61752269579E+02  0.22573392188E+03  0.25677462536E+03  0.92347721281E+02 0.  0.
        -13    1    3    3    0    0  0.45417010671E+02  0.10027019381E+02  0.53157617768E+00  0.46513745809E+02  0.00000000000E+00 0.  1.
         14    1    3    3    0    0 -0.24214480987E+02  0.52170332855E+02  0.22413916849E+02  0.61728991472E+02  0.00000000000E+00 0. -1.
        -11    1    4    4    0    0  0.23075172960E+02  0.27269440710E+01  0.54541576300E+02  0.59284765129E+02  0.00000000000E+00 0.  1.
         11    1    4    4    0    0 -0.74416777111E+02 -0.64479213650E+02  0.17119234558E+03  0.19748986023E+03  0.00000000000E+00 0. -1.
         -4    1    1    2    0  502  0.30139074466E+02 -0.44508265673E+00 -0.80874886392E+01  0.31208482513E+02  0.00000000000E+00 0.  1.
<scales pt_clust_5="13000.00000" pt_clust_6="13000.00000" pt_clust_7="13000.00000" pt_clust_8="13000.00000" pt_clust_9="30.14238"></scales>
<clustering>
<clus scale="   30.142">  1  9  2 -1</clus>
<clus scale="   82.897">  5  6 -1 -1</clus>
<clus scale="   92.348">  7  8 -1 -1</clus>
<clus scale="  107.205">  2  5  1 -1</clus>
<clus scale="   30.142">  1  5  2 -1</clus>
</clustering>
</event>
<event>
 9    2  0.9254368E-005  0.9252209E+02  0.7546771E-02  0.1302755E+00
         -1   -1    0    0    0  501 -0.00000000000E+00  0.00000000000E+00  0.21716770905E+03  0.21716770905E+03  0.00000000000E+00 0.  1.
         21   -1    0    0  501  502  0.00000000000E+00 -0.00000000000E+00 -0.11704540160E+03  0.11704540160E+03  0.00000000000E+00 0.  1.
         24    2    1    2    0    0  0.94472197076E+01  0.13912335652E+02  0.13083149900E+03  0.15473782371E+03  0.80895672998E+02 0.  0.
         23    2    1    2    0    0 -0.35419219398E+02  0.54381776728E+01  0.37123178255E+02  0.10430735810E+03  0.90652080563E+02 0.  0.
        -13    1    3    3    0    0  0.41197916829E+02 -0.70966927311E+01  0.88041147919E+02  0.97462172794E+02  0.00000000000E+00 0.  1.
         14    1    3    3    0    0 -0.31750697122E+02  0.21009028383E+02  0.42790351085E+02  0.57275650911E+02  0.00000000000E+00 0. -1.
        -11    1    4    4    0    0 -0.18539647484E+02 -0.35185455767E+02  0.44521802043E+02  0.59698623799E+02  0.00000000000E+00 0. -1.
         11    1    4    4    0    0 -0.16879571915E+02  0.40623633439E+02 -0.73986237878E+01  0.44608734299E+02  0.00000000000E+00 0.  1.
         -2    1    1    2    0  502  0.25971999691E+02 -0.19350513325E+02 -0.67832369802E+02  0.75167928845E+02  0.00000000000E+00 0.  1.
<scales pt_clust_5="13000.00000" pt_clust_6="13000.00000" pt_clust_7="13000.00000" pt_clust_8="13000.00000" pt_clust_9="32.38807"></scales>
<clustering>
<clus scale="   32.388">  2  9  1 -1</clus>
<clus scale="   80.896">  5  6 -1 -1</clus>
<clus scale="   82.986">  1  5  2 -1</clus>
<clus scale="   90.652">  7  8 -1 -1</clus>
<clus scale="   32.388">  2  5  1 -1</clus>
</clustering>
</event>
<event>
 9    2  0.9254368E-005  0.1481518E+03  0.7546771E-02  0.1219200E+00
         -3   -1    0    0    0  501 -0.00000000000E+00  0.00000000000E+00  0.10231778805E+03  0.10231778805E+03  0.00000000000E+00 0.  1.
         21   -1    0    0  501  502  0.00000000000E+00 -0.00000000000E+00 -0.60910319522E+03  0.60910319522E+03  0.00000000000E+00 0. -1.
         23    2    1    2    0    0  0.24103796598E+02  0.47237751301E+02 -0.40107517255E+03  0.41442912659E+03  0.89876630849E+02 0.  0.
         24    2    1    2    0    0  0.11122738488E+03 -0.18217338042E+02 -0.44826938434E+02  0.14578508163E+03  0.80872943960E+02 0.  0.
        -11    1    4    4    0    0  0.94036347253E+02  0.91687393920E+00  0.70904642961E-01  0.94040843733E+02  0.00000000000E+00 0.  1.
         12    1    4    4    0    0  0.17191037625E+02 -0.19134211981E+02 -0.44897843077E+02  0.51744237899E+02  0.00000000000E+00 0. -1.
        -11    1    3    3    0    0 -0.98344805671E+01 -0.23687521300E+02 -0.10585284701E+03  0.10891575136E+03  0.00000000000E+00 0.  1.
         11    1    3    3    0    0  0.33938277165E+02  0.70925272601E+02 -0.29522232554E+03  0.30551337524E+03  0.00000000000E+00 0. -1.
         -4    1    1    2    0  502 -0.13533118148E+03 -0.29020413259E+02 -0.60883296176E+02  0.15120677504E+03  0.00000000000E+00 0.  1.
<scales pt_clust_5="13000.00000" pt_clust_6="13000.00000" pt_clust_7="13000.00000" pt_clust_8="13000.00000" pt_clust_9="124.13114"></scales>
<clustering>
<clus scale="   80.873">  5  6 -1 -1</clus>
<clus scale="   89.877">  7  8 -1 -1</clus>
<clus scale="  104.356">  1  7  2 -1</clus>
<clus scale="  124.131">  2  9  1 -1</clus>
<clus scale="  124.131">  2  5  1 -1</clus>
</clustering>
</event>
<event>
 9    2  0.9254368E-005  0.1406257E+03  0.7546771E-02  0.1225477E+00
         21   -1    0    0  501  502  0.00000000000E+00  0.00000000000E+00  0.36641400054E+03  0.36641400054E+03  0.00000000000E+00 0.  1.
         -3   -1    0    0    0  501 -0.00000000000E+00 -0.00000000000E+00 -0.12915078225E+03  0.12915078225E+03  0.00000000000E+00 0.  1.
         23    2    1    2    0    0 -0.37548626985E+02 -0.39607678469E+02 -0.35330759514E+02  0.11269308986E+03  0.92047826444E+02 0.  0.
         24    2    1    2    0    0  0.11440813510E+03 -0.44289443460E+02  0.20028515334E+03  0.24805820269E+03  0.79799455465E+02 0.  0.
        -13    1    4    4    0    0  0.88143103761E+02 -0.61721496866E+02  0.11675710507E+03  0.15877963188E+03  0.00000000000E+00 0.  1.
         14    1    4    4    0    0  0.26265031337E+02  0.17432053405E+02  0.83528048270E+02  0.89278570805E+02  0.00000000000E+00 0. -1.
        -11    1    3    3    0    0  0.10355090038E+02 -0.26533547849E+02  0.22624369167E+02  0.36374704554E+02  0.00000000000E+00 0. -1.
         11    1    3    3    0    0 -0.47903717022E+02 -0.13074130620E+02 -0.57955128680E+02  0.76318385310E+02  0.00000000000E+00 0.  1.
         -4    1    1    2    0  502 -0.76859508114E+02  0.83897121929E+02  0.72308824469E+02  0.13481349024E+03  0.00000000000E+00 0.  1.
<scales pt_clust_5="13000.00000" pt_clust_6="13000.00000" pt_clust_7="13000.00000" pt_clust_8="13000.00000" pt_clust_9="115.79144"></scales>
<clustering>
<clus scale="   79.799">  5  6 -1 -1</clus>
<clus scale="   92.048">  7  8 -1 -1</clus>
<clus scale="  107.012">  2  7  1 -1</clus>
<clus scale="  115.791">  1  9  2 -1</clus>
<clus scale="  115.791">  1  5  2 -1</clus>
</clustering>
</event>
<event>
 9    2  0.9254368E-005  0.1028521E+03  0.7546771E-02  0.1279589E+00
          4   -1    0    0  502    0 -0.00000000000E+00  0.00000000000E+00  0.40618380224E+03  0.40618380224E+03  0.00000000000E+00 0. -1.
         21   -1    0    0  501  502  0.00000000000E+00 -0.00000000000E+00 -0.73298472489E+02  0.73298472489E+02  0.00000000000E+00 0.  1.
         24    2    1    2    0    0  0.12453540995E+02 -0.33836699102E+02  0.55623734728E+02  0.10371609734E+03  0.79768515668E+02 0.  0.
         23    2    1    2    0    0  0.21127695977E+02  0.75607238918E+02  0.31423090448E+02  0.12415328463E+03  0.90905408845E+02 0.  0.
        -13    1    3    3    0    0  0.41302815678E+02 -0.20687764496E+01  0.13292750149E+02  0.43438457908E+02  0.00000000000E+00 0.  1.
         14    1    3    3    0    0 -0.28849274683E+02 -0.31767922652E+02  0.42330984579E+02  0.60277639427E+02  0.00000000000E+00 0. -1.
        -11    1    4    4    0    0 -0.11316017157E+02  0.36949665054E+02 -0.26856158591E+02  0.47059358752E+02  0.00000000000E+00 0.  1.
         11    1    4    4    0    0  0.32443713134E+02  0.38657573864E+02  0.58279249038E+02  0.77093925879E+02  0.00000000000E+00 0. -1.
          3    1    1    2  501    0 -0.33581236972E+02 -0.41770539816E+02  0.24583850458E+03  0.25161289276E+03  0.00000000000E+00 0. -1.
<scales pt_clust_5="13000.00000" pt_clust_6="13000.00000" pt_clust_7="13000.00000" pt_clust_8="13000.00000" pt_clust_9="53.59553"></scales>
<clustering>
<clus scale="   53.596">  2  9  1 -1</clus>
<clus scale="   79.769">  5  6 -1 -1</clus>
<clus scale="   90.905">  7  8 -1 -1</clus>
<clus scale="   93.155">  1  5  2 -1</clus>
<clus scale="   53.596">  2  5  1 -1</clus>
</clustering>
</event>
<event>
 9    2  0.9254368E-005  0.9064802E+02  0.7546771E-02  0.1307493E+00
          2   -1    0    0  502    0 -0.00000000000E+00  0.00000000000E+00  0.33596200628E+03  0.33596200628E+03  0.00000000000E+00 0. -1.
         21   -1    0    0  501  502  0.00000000000E+00 -0.00000000000E+00 -0.51270771060E+02  0.51270771060E+02  0.00000000000E+00 0. -1.
         24    2    1    2    0    0 -0.67473793614E+01  0.11420699457E+02  0.23757682019E+03  0.25116046026E+03  0.80391988411E+02 0.  0.
         23    2    1    2    0    0  0.61609325075E+00  0.17369208240E+02  0.15968183075E+02  0.93217454819E+02  0.90180053484E+02 0.  0.
        -13    1    3    3    0    0 -0.40407069056E+02  0.16314778359E+02  0.17013387551E+03  0.17562584894E+03  0.00000000000E+00 0.  1.
         14    1    3    3    0    0  0.33659689694E+02 -0.48940789019E+01  0.67442944688E+02  0.75534611317E+02  0.00000000000E+00 0. -1.
        -13    1    4    4    0    0  0.37287464110E+02  0.25760098348E+02 -0.11356887032E+02  0.46721692282E+02  0.00000000000E+00 0. -1.
         13    1    4    4    0    0 -0.36671370859E+02 -0.83908901083E+01  0.27325070107E+02  0.46495762537E+02  0.00000000000E+00 0.  1.
          1    1    1    2  501    0  0.61312861106E+01 -0.28789907697E+02  0.31146231947E+02  0.42854862257E+02  0.00000000000E+00 0. -1.
<scales pt_clust_5="13000.00000" pt_clust_6="13000.00000" pt_clust_7="13000.00000" pt_clust_8="13000.00000" pt_clust_9="29.43555"></scales>
<clustering>
<clus scale="   29.436">  2  9  1 -1</clus>
<clus scale="   80.392">  5  6 -1 -1</clus>
<clus scale="   80.917">  1  5  2 -1</clus>
<clus scale="   90.180">  7  8 -1 -1</clus>
<clus scale="   29.436">  2  5  1 -1</clus>
</clustering>
</event>
<event>
 9    2  0.9254368E-005  0.2358480E+03  0.7546771E-02  0.1127636E+00
         21   -1    0    0  501  502  0.00000000000E+00  0.00000000000E+00  0.14582963462E+03  0.14582963462E+03  0.00000000000E+00 0. -1.
          2   -1    0    0  502    0 -0.00000000000E+00 -0.00000000000E+00 -0.97217714317E+03  0.97217714317E+03  0.00000000000E+00 0. -1.
         24    2    1    2    0    0 -0.18718518075E+03  0.41926832933E+02 -0.27222380063E+03  0.34267046659E+03  0.80753327071E+02 0.  0.
         23    2    1    2    0    0  0.38176829952E+02 -0.22945312317E+03 -0.11424075883E+03  0.27447045387E+03  0.90426063672E+02 0.  0.
        -11    1    3    3    0    0 -0.85230707055E+02 -0.16381522489E+02 -0.14903410015E+03  0.17246388234E+03  0.00000000000E+00 0.  1.
         12    1    3    3    0    0 -0.10195447369E+03  0.58308355422E+02 -0.12318970047E+03  0.17020658424E+03  0.00000000000E+00 0. -1.
        -11    1    4    4    0    0 -0.20944291518E+02 -0.13517007579E+02 -0.18161639778E+02  0.30841822263E+02  0.00000000000E+00 0.  1.
         11    1    4    4    0    0  0.59121121470E+02 -0.21593611559E+03 -0.96079119047E+02  0.24362863161E+03  0.00000000000E+00 0. -1.
          1    1    1    2  501    0  0.14900835079E+03  0.18752629024E+03 -0.43988294909E+03  0.50086585733E+03  0.00000000000E+00 0. -1.
<scales pt_clust_5="13000.00000" pt_clust_6="13000.00000" pt_clust_7="13000.00000" pt_clust_8="13000.00000" pt_clust_9="217.82440"></scales>
<clustering>
<clus scale="   80.753">  5  6 -1 -1</clus>
<clus scale="   90.426">  7  8 -1 -1</clus>
<clus scale="  208.128">  2  5  1 -1</clus>
<clus scale="  217.824">  1  9  2 -1</clus>
<clus scale="  217.824">  1  5  2 -1</clus>
</clustering>
</event>
<event>
 9    2  0.9254368E-005  0.1387956E+03  0.7546771E-02  0.1215835E+00
         21   -1    0    0  501  502  0.00000000000E+00  0.00000000000E+00  0.33245430798E+03  0.33245430798E+03  0.00000000000E+00 0.  1.
         -3   -1    0    0    0  501 -0.00000000000E+00 -0.00000000000E+00 -0.14472874993E+03  0.14472874993E+03  0.00000000000E+00 0.  1.
         24    2    1    2    0    0 -0.52877622948E+02 -0.10382084275E+03 -0.73422655740E+02  0.16279812179E+03  0.86818959241E+02 0.  0.
         23    2    1    2    0    0  0.38093704248E+02  0.56678099942E+02  0.12183706545E+03  0.16657222183E+03  0.90766167987E+02 0.  0.
        -13    1    3    3    0    0 -0.56076248419E+02 -0.26460723836E+02 -0.55743913017E+02  0.83379250304E+02  0.00000000000E+00 0.  1.
         14    1    3    3    0    0  0.31986254711E+01 -0.77360118918E+02 -0.17678742723E+02  0.79418871487E+02  0.00000000000E+00 0. -1.
        -11    1    4    4    0    0  0.12820531480E+02  0.49402436855E+02  0.10417947954E+02  0.52091270230E+02  0.00000000000E+00 0. -1.
         11    1    4    4    0    0  0.25273172768E+02  0.72756630870E+01  0.11141911750E+03  0.11448095160E+03  0.00000000000E+00 0.  1.
         -4    1    1    2    0  502  0.14783918700E+02  0.47142742812E+02  0.13931114834E+03  0.14781271428E+03  0.00000000000E+00 0.  1.
<scales pt_clust_5="13000.00000" pt_clust_6="13000.00000" pt_clust_7="13000.00000" pt_clust_8="13000.00000" pt_clust_9="49.40650"></scales>
<clustering>
<clus scale="   49.407">  1  9  2 -1</clus>
<clus scale="   86.819">  5  6 -1 -1</clus>
<clus scale="   90.766">  7  8 -1 -1</clus>
<clus scale="  136.247">  2  5  1 -1</clus>
<clus scale="   49.407">  1  5  2 -1</clus>
</clustering>
</event>
<event>
 9    2  0.9254368E-005  0.2613310E+03  0.7546771E-02  0.1106993E+00
          2   -1    0    0  502    0 -0.00000000000E+00  0.00000000000E+00  0.26332068105E+04  0.26332068105E+04  0.00000000000E+00 0. -1.
         21   -1    0    0  501  502  0.00000000000E+00 -0.00000000000E+00 -0.53617520217E+02  0.53617520217E+02  0.00000000000E+00 0.  1.
         24    2    1    2    0    0 -0.14373334796E+03  0.14117437627E+03  0.85698397111E+03  0.88399554497E+03  0.80231645510E+02 0.  0.
         23    2    1    2    0    0  0.15482243918E+03 -0.31047395348E+03  0.10781248838E+04  0.11363902317E+04  0.93088292016E+02 0.  0.
        -11    1    3    3    0    0 -0.14353685857E+03  0.12008223596E+03  0.66419812441E+03  0.69005921604E+03  0.00000000000E+00 0.  1.
         12    1    3    3    0    0 -0.19648939011E+00  0.21092140316E+02  0.19278584670E+03  0.19393632893E+03  0.00000000000E+00 0. -1.
        -13    1    4    4    0    0  0.13636908104E+03 -0.30138977321E+03  0.10539678702E+04  0.11046631129E+04  0.00000000000E+00 0.  1.
         13    1    4    4    0    0  0.18453358143E+02 -0.90841802686E+01  0.24157013631E+02  0.31727118771E+02  0.00000000000E+00 0. -1.
          1    1    1    2  501    0 -0.11089091228E+02  0.16929957721E+03  0.64448043533E+03  0.66643855404E+03  0.00000000000E+00 0. -1.
<scales pt_clust_5="13000.00000" pt_clust_6="13000.00000" pt_clust_7="13000.00000" pt_clust_8="13000.00000" pt_clust_9="169.66244"></scales>
<clustering>
<clus scale="   80.232">  5  6 -1 -1</clus>
<clus scale="   93.088">  7  8 -1 -1</clus>
<clus scale="  169.662">  2  9  1 -1</clus>
<clus scale="  257.032">  1  5  2 -1</clus>
<clus scale="  169.662">  2  5  1 -1</clus>
</clustering>
</event>
<event>
 9    2  0.9254368E-005  0.1023682E+03  0.7546771E-02  0.1284792E+00
          2   -1    0    0  502    0 -0.00000000000E+00  0.00000000000E+00  0.99479298539E+03  0.99479298539E+03  0.00000000000E+00 0. -1.
         21   -1    0    0  501  502  0.00000000000E+00 -0.00000000000E+00 -0.17747862899E+02  0.17747862899E+02  0.00000000000E+00 0. -1.
         24    2    1    2    0    0  0.31645764065E+02 -0.51495442755E+01  0.69203292105E+03  0.69746276460E+03  0.80726526017E+02 0.  0.
         23    2    1    2    0    0 -0.17770444296E+02 -0.13017577882E+02  0.26876498983E+03  0.28703275054E+03  0.98325653316E+02 0.  0.
        -13    1    3    3    0    0 -0.72596907734E+01  0.25860707488E+02  0.10706560435E+03  0.11038352656E+03  0.00000000000E+00 0.  1.
         14    1    3    3    0    0  0.38905454838E+02 -0.31010251763E+02  0.58496731670E+03  0.58707923804E+03  0.00000000000E+00 0. -1.
        -13    1    4    4    0    0 -0.51929743719E+02  0.13418069064E+01  0.21847404512E+03  0.22456492852E+03  0.00000000000E+00 0.  1.
         13    1    4    4    0    0  0.34159299422E+02 -0.14359384789E+02  0.50290944705E+02  0.62467822020E+02  0.00000000000E+00 0. -1.
          1    1    1    2  501    0 -0.13875319768E+02  0.18167122158E+02  0.16247211619E+02  0.28045333151E+02  0.00000000000E+00 0. -1.
<scales pt_clust_5="13000.00000" pt_clust_6="13000.00000" pt_clust_7="13000.00000" pt_clust_8="13000.00000" pt_clust_9="22.85976"></scales>
<clustering>
<clus scale="   22.860">  2  9  1 -1</clus>
<clus scale="   80.727">  5  6 -1 -1</clus>
<clus scale="   85.604">  1  5  2 -1</clus>
<clus scale="   98.326">  7  8 -1 -1</clus>
<clus scale="   22.860">  2  5  1 -1</clus>
</clustering>
</event>
<event>
 9    2  0.9254368E-005  0.3669608E+03  0.7546771E-02  0.1055861E+00
          2   -1    0    0  502    0 -0.00000000000E+00  0.00000000000E+00  0.52179660327E+03  0.52179660327E+03  0.00000000000E+00 0. -1.
         21   -1    0    0  501  502  0.00000000000E+00 -0.00000000000E+00 -0.10844071746E+04  0.10844071746E+04  0.00000000000E+00 0.  1.
         24    2    1    2    0    0 -0.13675058251E+01  0.15734703608E+03 -0.52948109042E+03  0.55831855736E+03  0.81298379720E+02 0.  0.
         23    2    1    2    0    0 -0.49567581717E+02  0.15558997122E+03 -0.47096687633E+03  0.50730632854E+03  0.94258835541E+02 0.  0.
        -11    1    3    3    0    0 -0.41289294908E+02  0.83660986359E+02 -0.27549853021E+03  0.29086664755E+03  0.00000000000E+00 0.  1.
         12    1    3    3    0    0  0.39921789083E+02  0.73686049721E+02 -0.25398256022E+03  0.26745190981E+03  0.00000000000E+00 0. -1.
        -11    1    4    4    0    0  0.16098791818E+02  0.60115328497E+02 -0.25197438962E+03  0.25954598213E+03  0.00000000000E+00 0.  1.
         11    1    4    4    0    0 -0.65666373535E+02  0.95474642721E+02 -0.21899248671E+03  0.24776034640E+03  0.00000000000E+00 0. -1.
          1    1    1    2  501    0  0.50935087542E+02 -0.31293700730E+03  0.43783739539E+03  0.54057889201E+03  0.00000000000E+00 0. -1.
<scales pt_clust_5="13000.00000" pt_clust_6="13000.00000" pt_clust_7="13000.00000" pt_clust_8="13000.00000" pt_clust_9="317.05529"></scales>
<clustering>
<clus scale="   81.298">  5  6 -1 -1</clus>
<clus scale="   94.259">  7  8 -1 -1</clus>
<clus scale="  107.951">  5  7 -1 -1</clus>
<clus scale="  317.055">  2  9  1 -1</clus>
<clus scale="  317.055">  2  5  1 -1</clus>
</clustering>
</event>
<event>
 9    2  0.9254368E-005  0.1869176E+03  0.7546771E-02  0.1171620E+00
          2   -1    0    0  502    0 -0.00000000000E+00  0.00000000000E+00  0.70399578356E+03  0.70399578356E+03  0.00000000000E+00 0. -1.
         21   -1    0    0  501  502  0.00000000000E+00 -0.00000000000E+00 -0.10796139924E+03  0.10796139924E+03  0.00000000000E+00 0. -1.
         23    2    1    2    0    0 -0.67928399695E+02 -0.93466430154E+02  0.30288709895E+03  0.33680556138E+03  0.91362740837E+02 0.  0.
         24    2    1    2    0    0  0.19471607060E+03 -0.72704709735E+01  0.14674235726E+03  0.25684578155E+03  0.80431512414E+02 0.  0.
        -13    1    4    4    0    0  0.76044187358E+02 -0.10998923720E+02  0.10681949131E+03  0.13158304784E+03  0.00000000000E+00 0.  1.
         14    1    4    4    0    0  0.11867188325E+03  0.37284527469E+01  0.39922865946E+02  0.12526273372E+03  0.00000000000E+00 0. -1.
        -11    1    3    3    0    0 -0.55297758184E+02 -0.14401005458E+02  0.18999655360E+03  0.19840343092E+03  0.00000000000E+00 0.  1.
         11    1    3    3    0    0 -0.12630641510E+02 -0.79065424695E+02  0.11289054535E+03  0.13840213046E+03  0.00000000000E+00 0. -1.
          1    1    1    2  501    0 -0.12678767091E+03  0.10073690113E+03  0.14640492811E+03  0.21830583986E+03  0.00000000000E+00 0. -1.
<scales pt_clust_5="13000.00000" pt_clust_6="13000.00000" pt_clust_7="13000.00000" pt_clust_8="13000.00000" pt_clust_9="168.72758"></scales>
<clustering>
<clus scale="   80.432">  5  6 -1 -1</clus>
<clus scale="   91.363">  7  8 -1 -1</clus>
<clus scale="  147.300">  1  7  2 -1</clus>
<clus scale="  168.728">  2  9  1 -1</clus>
<clus scale="  168.728">  2  5  1 -1</clus>
</clustering>
</event>
<event>
 9    2  0.9254368E-005  0.1334626E+03  0.7546771E-02  0.1222921E+00
         21   -1    0    0  501  502  0.00000000000E+00  0.00000000000E+00  0.17098287102E+03  0.17098287102E+03  0.00000000000E+00 0.  1.
          2   -1    0    0  502    0 -0.00000000000E+00 -0.00000000000E+00 -0.41232362381E+03  0.41232362381E+03  0.00000000000E+00 0. -1.
         24    2    1    2    0    0  0.64942944396E+02 -0.94640787034E+02 -0.17472497814E+03  0.22372434662E+03  0.79682499255E+02 0.  0.
         23    2    1    2    0    0 -0.71929654808E+02  0.25254562579E+02  0.11913716509E+03  0.16116990844E+03  0.77268409519E+02 0.  0.
        -11    1    3    3    0    0  0.45327328705E+02 -0.12433938148E+02 -0.28892029869E+02  0.55171722243E+02  0.00000000000E+00 0.  1.
         12    1    3    3    0    0  0.19615615691E+02 -0.82206848887E+02 -0.14583294827E+03  0.16855262438E+03  0.00000000000E+00 0. -1.
        -11    1    4    4    0    0 -0.35377412801E+02 -0.24361261180E+02  0.70955921036E+02  0.82944409774E+02  0.00000000000E+00 0.  1.
         11    1    4    4    0    0 -0.36552242007E+02  0.49615823760E+02  0.48181244052E+02  0.78225498666E+02  0.00000000000E+00 0. -1.
          1    1    1    2  501    0  0.69867104121E+01  0.69386224455E+02 -0.18575293973E+03  0.19841223976E+03  0.00000000000E+00 0. -1.
<scales pt_clust_5="13000.00000" pt_clust_6="13000.00000" pt_clust_7="13000.00000" pt_clust_8="13000.00000" pt_clust_9="69.73713"></scales>
<clustering>
<clus scale="   69.737">  1  9  2 -1</clus>
<clus scale="   77.268">  7  8 -1 -1</clus>
<clus scale="   79.682">  5  6 -1 -1</clus>
<clus scale="  132.035">  1  7  2 -1</clus>
<clus scale="   69.737">  1  5  2 -1</clus>
</clustering>
</event>
<event>
 9    2  0.9254368E-005  0.9447231E+02  0.7546771E-02  0.1300688E+00
         21   -1    0    0  501  502  0.00000000000E+00  0.00000000000E+00  0.20152026575E+03  0.20152026575E+03  0.00000000000E+00 0. -1.
         -1   -1    0    0    0  501 -0.00000000000E+00 -0.00000000000E+00 -0.77282323632E+02  0.77282323632E+02  0.00000000000E+00 0.  1.
         24    2    1    2    0    0 -0.20913713065E+02  0.39079658222E+01  0.59321208123E+01  0.80342230269E+02  0.77246542422E+02 0.  0.
         23    2    1    2    0    0  0.23293150986E+02  0.49012598753E+02  0.83077537345E+02  0.13484212375E+03  0.91300139137E+02 0.  0.
        -11    1    3    3    0    0  0.29544204953E+02  0.89310930805E+00  0.29953013472E+01  0.29709081452E+02  0.00000000000E+00 0.  1.
         12    1    3    3    0    0 -0.50457918018E+02  0.30148565142E+01  0.29368194651E+01  0.50633148817E+02  0.00000000000E+00 0. -1.
        -13    1    4    4    0    0  0.26706694431E+02  0.27228012186E+02  0.10001321457E+03  0.10703856905E+03  0.00000000000E+00 0. -1.
         13    1    4    4    0    0 -0.34135434451E+01  0.21784586567E+02 -0.16935677228E+02  0.27803554699E+02  0.00000000000E+00 0.  1.
         -2    1    1    2    0  502 -0.23794379214E+01 -0.52920564575E+02  0.35228283957E+02  0.63618235360E+02  0.00000000000E+00 0.  1.
<scales pt_clust_5="13000.00000" pt_clust_6="13000.00000" pt_clust_7="13000.00000" pt_clust_8="13000.00000" pt_clust_9="52.97403"></scales>
<clustering>
<clus scale="   52.974">  1  9  2 -1</clus>
<clus scale="   77.247">  5  6 -1 -1</clus>
<clus scale="   80.971">  2  5  1 -1</clus>
<clus scale="   91.300">  7  8 -1 -1</clus>
<clus scale="   52.974">  1  5  2 -1</clus>
</clustering>
</event>
<event>
 9    2  0.9254368E-005  0.9506207E+02  0.7546771E-02  0.1299682E+00
         21   -1    0    0  501  502  0.00000000000E+00  0.00000000000E+00  0.33426705204E+02  0.33426705204E+02  0.00000000000E+00 0. -1.
          2   -1    0    0  502    0 -0.00000000000E+00 -0.00000000000E+00 -0.67978955556E+03  0.67978955556E+03  0.00000000000E+00 0. -1.
         23    2    1    2    0    0  0.18879618221E+02  0.15784272280E+02 -0.55889136837E+03  0.56704968447E+03  0.92629367799E+02 0.  0.
         24    2    1    2    0    0 -0.17442504696E+02  0.90833302436E+01 -0.90422927407E+02  0.12108323559E+03  0.78090308507E+02 0.  0.
        -11    1    4    4    0    0 -0.38109440707E+01 -0.23513962045E+02 -0.81121622769E+02  0.84546717183E+02  0.00000000000E+00 0.  1.
         12    1    4    4    0    0 -0.13631560625E+02  0.32597292289E+02 -0.93013046386E+01  0.36536518411E+02  0.00000000000E+00 0. -1.
        -11    1    3    3    0    0  0.12585197989E+02  0.54826141630E+02 -0.33663211614E+03  0.34129968448E+03  0.00000000000E+00 0. -1.
         11    1    3    3    0    0  0.62944202328E+01 -0.39041869350E+02 -0.22225925224E+03  0.22574999998E+03  0.00000000000E+00 0.  1.
          1    1    1    2  501    0 -0.14371135254E+01 -0.24867602523E+02  0.29514454251E+01  0.25083340699E+02  0.00000000000E+00 0. -1.
<scales pt_clust_5="13000.00000" pt_clust_6="13000.00000" pt_clust_7="13000.00000" pt_clust_8="13000.00000" pt_clust_9="24.90909"></scales>
<clustering>
<clus scale="   24.909">  1  9  2 -1</clus>
<clus scale="   78.090">  5  6 -1 -1</clus>
<clus scale="   80.961">  1  5  2 -1</clus>
<clus scale="   92.629">  7  8 -1 -1</clus>
<clus scale="   24.909">  1  5  2 -1</clus>
</clustering>
</event>
<event>
 9    2  0.9254368E-005  0.2869163E+03  0.7546771E-02  0.1136834E+00
         21   -1    0    0  501  502  0.00000000000E+00  0.00000000000E+00  0.93447116841E+02  0.93447116841E+02  0.00000000000E+00 0. -1.
          2   -1    0    0  502    0 -0.00000000000E+00 -0.00000000000E+00 -0.13334095902E+04  0.13334095902E+04  0.00000000000E+00 0. -1.
         23    2    1    2    0    0 -0.13301624258E+02  0.63111933162E+01 -0.10648144718E+03  0.14092349115E+03  0.91128301839E+02 0.  0.
         24    2    1    2    0    0  0.26637215531E+03  0.84939864132E+02 -0.33438154988E+03  0.44276572233E+03  0.77856010221E+02 0.  0.
        -11    1    4    4    0    0  0.53649627648E+02  0.10867555371E+02 -0.25271106408E+02  0.60291086618E+02  0.00000000000E+00 0.  1.
         12    1    4    4    0    0  0.21272252767E+03  0.74072308761E+02 -0.30911044347E+03  0.38247463571E+03  0.00000000000E+00 0. -1.
        -13    1    3    3    0    0 -0.32029861899E+02 -0.22856254785E+02 -0.13351621591E+02  0.41552210954E+02  0.00000000000E+00 0. -1.
         13    1    3    3    0    0  0.18728237641E+02  0.29167448101E+02 -0.93129825590E+02  0.99371280199E+02  0.00000000000E+00 0.  1.
          1    1    1    2  501    0 -0.25307053106E+03 -0.91251057448E+02 -0.79909947632E+03  0.84316749358E+03  0.00000000000E+00 0. -1.
<scales pt_clust_5="13000.00000" pt_clust_6="13000.00000" pt_clust_7="13000.00000" pt_clust_8="13000.00000" pt_clust_9="276.15123"></scales>
<clustering>
<clus scale="   77.856">  5  6 -1 -1</clus>
<clus scale="   91.128">  7  8 -1 -1</clus>
<clus scale="   92.310">  2  7  1 -1</clus>
<clus scale="  276.151">  1  9  2 -1</clus>
<clus scale="  276.151">  1  5  2 -1</clus>
</clustering>
</event>
<event>
 9    2  0.9254368E-005  0.1050915E+03  0.7546771E-02  0.1273767E+00
         21   -1    0    0  501  502  0.00000000000E+00  0.00000000000E+00  0.40234140287E+03  0.40234140287E+03  0.00000000000E+00 0.  1.
         -3   -1    0    0    0  501 -0.00000000000E+00 -0.00000000000E+00 -0.83786177525E+02  0.83786177525E+02  0.00000000000E+00 0.  1.
         23    2    1    2    0    0  0.45260846424E+02 -0.79651241500E+01 -0.18344229478E+02  0.10289854751E+03  0.90219803276E+02 0.  0.
         24    2    1    2    0    0 -0.84124327942E+02  0.76613064646E+01  0.14054032768E+03  0.18306068045E+03  0.81388149358E+02 0.  0.
        -13    1    4    4    0    0 -0.91857839749E+02  0.27418797007E+02  0.11924109285E+03  0.15299703061E+03  0.00000000000E+00 0.  1.
         14    1    4    4    0    0  0.77335118070E+01 -0.19757490543E+02  0.21299234829E+02  0.30063649840E+02  0.00000000000E+00 0. -1.
        -11    1    3    3    0    0  0.72434456585E+02 -0.13052318984E+02 -0.13713202506E+02  0.74867652926E+02  0.00000000000E+00 0.  1.
         11    1    3    3    0    0 -0.27173610161E+02  0.50871948339E+01 -0.46310269720E+01  0.28030894586E+02  0.00000000000E+00 0. -1.
         -4    1    1    2    0  502  0.38863481518E+02  0.30381768541E+00  0.19635912715E+03  0.20016835243E+03  0.00000000000E+00 0.  1.
<scales pt_clust_5="13000.00000" pt_clust_6="13000.00000" pt_clust_7="13000.00000" pt_clust_8="13000.00000" pt_clust_9="38.86467"></scales>
<clustering>
<clus scale="   38.865">  1  9  2 -1</clus>
<clus scale="   81.388">  5  6 -1 -1</clus>
<clus scale="   90.220">  7  8 -1 -1</clus>
<clus scale="   97.615">  1  5  2 -1</clus>
<clus scale="   38.865">  1  5  2 -1</clus>
</clustering>
</event>
<event>
 9    2  0.9254368E-005  0.1385072E+03  0.7546771E-02  0.1216843E+00
         -3   -1    0    0    0  501 -0.00000000000E+00  0.00000000000E+00  0.14786572918E+03  0.14786572918E+03  0.00000000000E+00 0.  1.
         21   -1    0    0  501  502  0.00000000000E+00 -0.00000000000E+00 -0.24210182172E+03  0.24210182172E+03  0.00000000000E+00 0.  1.
         24    2    1    2    0    0 -0.10158590854E+03  0.17013188102E+02 -0.54355693627E+01  0.13339225619E+03  0.84586069850E+02 0.  0.
         23    2    1    2    0    0  0.10596780813E+03  0.67578495318E+02 -0.66727805956E+02  0.16904153669E+03  0.91249173411E+02 0.  0.
        -13    1    3    3    0    0 -0.87834985202E+02  0.35300348022E+02  0.22482421539E+02  0.97296240801E+02  0.00000000000E+00 0.  1.
         14    1    3    3    0    0 -0.13750923338E+02 -0.18287159920E+02 -0.27917990902E+02  0.36096015384E+02  0.00000000000E+00 0. -1.
        -11    1    4    4    0    0  0.31173563993E+02 -0.15745686782E+02  0.61253584572E+01  0.35457548710E+02  0.00000000000E+00 0. -1.
         11    1    4    4    0    0  0.74794244138E+02  0.83324182100E+02 -0.72853164414E+02  0.13358398798E+03  0.00000000000E+00 0.  1.
         -4    1    1    2    0  502 -0.43818995919E+01 -0.84591683420E+02 -0.22072717224E+02  0.87533758022E+02  0.00000000000E+00 0.  1.
<scales pt_clust_5="13000.00000" pt_clust_6="13000.00000" pt_clust_7="13000.00000" pt_clust_8="13000.00000" pt_clust_9="84.70510"></scales>
<clustering>
<clus scale="   84.586">  5  6 -1 -1</clus>
<clus scale="   84.705">  2  9  1 -1</clus>
<clus scale="   91.249">  7  8 -1 -1</clus>
<clus scale="  134.211">  1  5  2 -1</clus>
<clus scale="   84.705">  2  5  1 -1</clus>
</clustering>
</event>
<event>
 9    2  0.9254368E-005  0.3509787E+03  0.7546771E-02  0.1062548E+00
          2   -1    0    0  502    0 -0.00000000000E+00  0.00000000000E+00  0.10364230898E+04  0.10364230898E+04  0.00000000000E+00 0. -1.
         21   -1    0    0  501  502  0.00000000000E+00 -0.00000000000E+00 -0.22520066669E+03  0.22520066669E+03  0.00000000000E+00 0.  1.
         23    2    1    2    0    0  0.29032018144E+03 -0.19576729261E+03  0.67630349898E+03  0.76726526862E+03  0.93268049634E+02 0.  0.
         24    2    1    2    0    0 -0.17434338640E+03  0.27440778329E+03  0.83529655915E+02  0.34510769006E+03  0.80167739223E+02 0.  0.
        -13    1    4    4    0    0 -0.47199261476E+02  0.99238880023E+02 -0.78269754679E+01  0.11016981046E+03  0.00000000000E+00 0.  1.
         14    1    4    4    0    0 -0.12714412492E+03  0.17516890327E+03  0.91356631383E+02  0.23493787960E+03  0.00000000000E+00 0. -1.
        -11    1    3    3    0    0  0.13789037633E+03 -0.39591773675E+02  0.24565754761E+03  0.28448004345E+03  0.00000000000E+00 0.  1.
         11    1    3    3    0    0  0.15242980511E+03 -0.15617551893E+03  0.43064595137E+03  0.48278522516E+03  0.00000000000E+00 0. -1.
          1    1    1    2  501    0 -0.11597679504E+03 -0.78640490686E+02  0.51389268244E+02  0.14925079783E+03  0.00000000000E+00 0. -1.
<scales pt_clust_5="13000.00000" pt_clust_6="13000.00000" pt_clust_7="13000.00000" pt_clust_8="13000.00000" pt_clust_9="140.12474"></scales>
<clustering>
<clus scale="   80.168">  5  6 -1 -1</clus>
<clus scale="   93.268">  7  8 -1 -1</clus>
<clus scale="  140.125">  2  9  1 -1</clus>
<clus scale="  347.727">  2  5  1 -1</clus>
<clus scale="  140.125">  2  5  1 -1</clus>
</clustering>
</event>
<event>
 9    2  0.9254368E-005  0.1679782E+03  0.7546771E-02  0.1195632E+00
         21   -1    0    0  501  502  0.00000000000E+00  0.00000000000E+00  0.12837853207E+03  0.12837853207E+03  0.00000000000E+00 0.  1.
          2   -1    0    0  502    0 -0.00000000000E+00 -0.00000000000E+00 -0.71332100246E+03  0.71332100246E+03  0.00000000000E+00 0. -1.
         24    2    1    2    0    0  0.33969758810E+02  0.81226930370E+02  0.45447493942E+02  0.12709580044E+03  0.79599679983E+02 0.  0.
         23    2    1    2    0    0 -0.15436175431E+03 -0.11002027838E+03 -0.43974690923E+03  0.48729763226E+03  0.90275275581E+02 0.  0.
        -11    1    3    3    0    0  0.37255622121E+02  0.83627044944E+02  0.61661259604E+02  0.11037923247E+03  0.00000000000E+00 0.  1.
         12    1    3    3    0    0 -0.32858633106E+01 -0.24001145741E+01 -0.16213765662E+02  0.16716567968E+02  0.00000000000E+00 0. -1.
        -13    1    4    4    0    0 -0.97005952846E+02 -0.11334339686E+03 -0.27562190197E+03  0.31340758342E+03  0.00000000000E+00 0.  1.
         13    1    4    4    0    0 -0.57355801459E+02  0.33231184796E+01 -0.16412500726E+03  0.17389004884E+03  0.00000000000E+00 0. -1.
          1    1    1    2  501    0  0.12039199550E+03  0.28793348011E+02 -0.19064305510E+03  0.22730610182E+03  0.00000000000E+00 0. -1.
<scales pt_clust_5="13000.00000" pt_clust_6="13000.00000" pt_clust_7="13000.00000" pt_clust_8="13000.00000" pt_clust_9="141.65819"></scales>
<clustering>
<clus scale="   79.600">  5  6 -1 -1</clus>
<clus scale="   90.275">  7  8 -1 -1</clus>
<clus scale="  118.692">  2  5  1 -1</clus>
<clus scale="  141.658">  1  9  2 -1</clus>
<clus scale="  141.658">  1  5  2 -1</clus>
</clustering>
</event>
<event>
 9    2  0.9254368E-005  0.1993172E+03  0.7546771E-02  0.1174503E+00
         21   -1    0    0  501  502  0.00000000000E+00  0.00000000000E+00  0.32547610918E+03  0.32547610918E+03  0.00000000000E+00 0. -1.
          4   -1    0    0  502    0 -0.00000000000E+00 -0.00000000000E+00 -0.52656692530E+03  0.52656692530E+03  0.00000000000E+00 0. -1.
         23    2    1    2    0    0 -0.24903641361E+02 -0.64931016567E+02 -0.39725594399E+02  0.12050834193E+03  0.90043930166E+02 0.  0.
         24    2    1    2    0    0  0.10183419282E+02 -0.12125552565E+03 -0.40148984210E+03  0.42732761381E+03  0.81290784773E+02 0.  0.
        -13    1    4    4    0    0  0.23520622359E+02 -0.75594610043E+02 -0.13399073899E+03  0.15563188259E+03  0.00000000000E+00 0.  1.
         14    1    4    4    0    0 -0.13337203076E+02 -0.45660915608E+02 -0.26749910311E+03  0.27169573122E+03  0.00000000000E+00 0. -1.
        -11    1    3    3    0    0  0.21296093917E+02 -0.62202354445E+02 -0.33567233614E+02  0.73820157729E+02  0.00000000000E+00 0. -1.
         11    1    3    3    0    0 -0.46199735278E+02 -0.27286621214E+01 -0.61583607857E+01  0.46688184204E+02  0.00000000000E+00 0.  1.
          3    1    1    2  501    0  0.14720222079E+02  0.18618654222E+03  0.24012462038E+03  0.30420707874E+03  0.00000000000E+00 0. -1.
<scales pt_clust_5="13000.00000" pt_clust_6="13000.00000" pt_clust_7="13000.00000" pt_clust_8="13000.00000" pt_clust_9="181.98664"></scales>
<clustering>
<clus scale="   81.291">  5  6 -1 -1</clus>
<clus scale="   90.044">  7  8 -1 -1</clus>
<clus scale="  113.772">  2  7  1 -1</clus>
<clus scale="  181.987">  1  9  2 -1</clus>
<clus scale="  181.987">  1  5  2 -1</clus>
</clustering>
</event>
<event>
 9    2  0.9254368E-005  0.1791791E+03  0.7546771E-02  0.1193723E+00
          2   -1    0    0  502    0 -0.00000000000E+00  0.00000000000E+00  0.15597376679E+04  0.15597376679E+04  0.00000000000E+00 0. -1.
         21   -1    0    0  501  502  0.00000000000E+00 -0.00000000000E+00 -0.72018508036E+02  0.72018508036E+02  0.00000000000E+00 0.  1.
         23    2    1    2    0    0 -0.37755971652E+02  0.89335062056E+01 -0.41206252738E+00  0.10197427921E+03  0.94304097985E+02 0.  0.
         24    2    1    2    0    0  0.18162118178E+03  0.24323337416E+02  0.99413693234E+03  0.10141913858E+04  0.81841605649E+02 0.  0.
        -11    1    4    4    0    0  0.26595129547E+02  0.30838056781E+02  0.12980779667E+03  0.13604539955E+03  0.00000000000E+00 0.  1.
         12    1    4    4    0    0  0.15502605223E+03 -0.65147193652E+01  0.86432913566E+03  0.87814598627E+03  0.00000000000E+00 0. -1.
        -11    1    3    3    0    0 -0.48381169569E+01 -0.31427682368E+02 -0.28587175897E+02  0.42759013324E+02  0.00000000000E+00 0.  1.
         11    1    3    3    0    0 -0.32917854695E+02  0.40361188574E+02  0.28175113369E+02  0.59215265888E+02  0.00000000000E+00 0. -1.
          1    1    1    2  501    0 -0.14386521012E+03 -0.33256843622E+02  0.49399429004E+03  0.51559051090E+03  0.00000000000E+00 0. -1.
<scales pt_clust_5="13000.00000" pt_clust_6="13000.00000" pt_clust_7="13000.00000" pt_clust_8="13000.00000" pt_clust_9="159.39601"></scales>
<clustering>
<clus scale="   81.842">  5  6 -1 -1</clus>
<clus scale="   94.304">  7  8 -1 -1</clus>
<clus scale="  101.973">  1  7  2 -1</clus>
<clus scale="  159.396">  2  9  1 -1</clus>
<clus scale="  159.396">  2  5  1 -1</clus>
</clustering>
</event>
<event>
 9    2  0.1020411E-004  0.2601399E+03  0.7546771E-02  0.1107903E+00
          2   -1    0    0  502    0 -0.00000000000E+00  0.00000000000E+00  0.21167724905E+04  0.21167724905E+04  0.00000000000E+00 0. -1.
         21   -1    0    0  501  502  0.00000000000E+00 -0.00000000000E+00 -0.10641186398E+03  0.10641186398E+03  0.00000000000E+00 0. -1.
         23    2    1    2    0    0 -0.96278893553E+02 -0.20407678454E+03  0.96556081136E+03  0.99637924866E+03  0.97708584077E+02 0.  0.
         24    2    1    2    0    0  0.34098854507E+02  0.33881314488E+03  0.28178977872E+03  0.44949914305E+03  0.81773597117E+02 0.  0.
        -13    1    4    4    0    0  0.52462954975E+00  0.25850151268E+02 -0.16793327240E+01  0.25909953978E+02  0.00000000000E+00 0.  1.
         14    1    4    4    0    0  0.33574224957E+02  0.31296299361E+03  0.28346911144E+03  0.42358918907E+03  0.00000000000E+00 0. -1.
        -13    1    3    3    0    0 -0.84884025601E+02 -0.96964125893E+02  0.65800562972E+03  0.67050633722E+03  0.00000000000E+00 0.  1.
         13    1    3    3    0    0 -0.11394867952E+02 -0.10711265864E+03  0.30755518164E+03  0.32587291144E+03  0.00000000000E+00 0. -1.
          1    1    1    2  501    0  0.62180039046E+02 -0.13473636035E+03  0.76301003640E+03  0.77730596274E+03  0.00000000000E+00 0. -1.
<scales pt_clust_5="13000.00000" pt_clust_6="13000.00000" pt_clust_7="13000.00000" pt_clust_8="13000.00000" pt_clust_9="148.39227"></scales>
<clustering>
<clus scale="   81.774">  5  6 -1 -1</clus>
<clus scale="   97.709">  7  8 -1 -1</clus>
<clus scale="  148.392">  2  9  1 -1</clus>
<clus scale="  254.583">  2  5  1 -1</clus>
<clus scale="  148.392">  2  5  1 -1</clus>
</clustering>
</event>
<event>
 9    2  0.9254368E-005  0.2208504E+03  0.7546771E-02  0.1134126E+00
         -1   -1    0    0    0  501 -0.00000000000E+00  0.00000000000E+00  0.27837119721E+03  0.27837119721E+03  0.00000000000E+00 0.  1.
         21   -1    0    0  501  502  0.00000000000E+00 -0.00000000000E+00 -0.22998776605E+03  0.22998776605E+03  0.00000000000E+00 0.  1.
         23    2    1    2    0    0 -0.18312692968E+03  0.84770158702E+02  0.11110804712E+03  0.24775674472E+03  0.91197336797E+02 0.  0.
         24    2    1    2    0    0  0.19040043294E+03 -0.63002130381E+02 -0.81927542700E+02  0.23067725736E+03  0.79235607620E+02 0.  0.
        -13    1    4    4    0    0  0.14927279305E+03 -0.40066032761E+02 -0.95485967058E+02  0.18167339825E+03  0.00000000000E+00 0.  1.
         14    1    4    4    0    0  0.41127639890E+02 -0.22936097620E+02  0.13558424358E+02  0.49003859113E+02  0.00000000000E+00 0. -1.
        -13    1    3    3    0    0 -0.10004204412E+03 -0.20235657212E+01  0.37543528256E+02  0.10687385987E+03  0.00000000000E+00 0. -1.
         13    1    3    3    0    0 -0.83084885563E+02  0.86793724423E+02  0.73564518866E+02  0.14088288485E+03  0.00000000000E+00 0.  1.
         -2    1    1    2    0  502 -0.72735032572E+01 -0.21768028321E+02  0.19202926740E+02  0.29924961186E+02  0.00000000000E+00 0.  1.
<scales pt_clust_5="13000.00000" pt_clust_6="13000.00000" pt_clust_7="13000.00000" pt_clust_8="13000.00000" pt_clust_9="22.95107"></scales>
<clustering>
<clus scale="   22.951">  2  9  1 -1</clus>
<clus scale="   79.236">  5  6 -1 -1</clus>
<clus scale="   91.197">  7  8 -1 -1</clus>
<clus scale="  216.186">  2  5  1 -1</clus>
<clus scale="   22.951">  2  5  1 -1</clus>
</clustering>
</event>
<event>
 9    2  0.9254368E-005  0.1873949E+03  0.7546771E-02  0.1189592E+00
          2   -1    0    0  502    0 -0.00000000000E+00  0.00000000000E+00  0.17360424061E+04  0.17360424061E+04  0.00000000000E+00 0. -1.
         21   -1    0    0  501  502  0.00000000000E+00 -0.00000000000E+00 -0.41264443902E+02  0.41264443902E+02  0.00000000000E+00 0. -1.
         24    2    1    2    0    0 -0.31585775247E+02  0.49838212002E+02  0.50454638454E+03  0.51390633799E+03  0.77789211955E+02 0.  0.
         23    2    1    2    0    0  0.17104431920E+03 -0.11187990687E+03  0.96853614309E+03  0.99424122257E+03  0.93166922821E+02 0.  0.
        -13    1    3    3    0    0 -0.35924856277E+02  0.16905572745E+01  0.96104285090E+02  0.10261328810E+03  0.00000000000E+00 0.  1.
         14    1    3    3    0    0  0.43390810300E+01  0.48147654727E+02  0.40844209945E+03  0.41129304989E+03  0.00000000000E+00 0. -1.
        -13    1    4    4    0    0  0.47022870030E+02 -0.82209461479E+02  0.34273555325E+03  0.35558009692E+03  0.00000000000E+00 0.  1.
         13    1    4    4    0    0  0.12402144917E+03 -0.29670445388E+02  0.62580058984E+03  0.63866112566E+03  0.00000000000E+00 0. -1.
          1    1    1    2  501    0 -0.13945854395E+03  0.62041694866E+02  0.22169543456E+03  0.26915928943E+03  0.00000000000E+00 0. -1.
<scales pt_clust_5="13000.00000" pt_clust_6="13000.00000" pt_clust_7="13000.00000" pt_clust_8="13000.00000" pt_clust_9="162.59384"></scales>
<clustering>
<clus scale="   77.789">  5  6 -1 -1</clus>
<clus scale="   93.167">  7  8 -1 -1</clus>
<clus scale="   97.635">  1  5  2 -1</clus>
<clus scale="  162.594">  2  9  1 -1</clus>
<clus scale="  162.594">  2  5  1 -1</clus>
</clustering>
</event>
<event>
 9    2  0.9254368E-005  0.1696478E+03  0.7546771E-02  0.1203143E+00
          2   -1    0    0  502    0 -0.00000000000E+00  0.00000000000E+00  0.22738349920E+03  0.22738349920E+03  0.00000000000E+00 0. -1.
         21   -1    0    0  501  502  0.00000000000E+00 -0.00000000000E+00 -0.43232000080E+03  0.43232000080E+03  0.00000000000E+00 0. -1.
         23    2    1    2    0    0 -0.36323134887E+02 -0.17897876114E+02 -0.31793156830E+02  0.10289667513E+03  0.89091059222E+02 0.  0.
         24    2    1    2    0    0 -0.12731912578E+02  0.14986085725E+03 -0.31405125821E+03  0.35761930985E+03  0.81504600256E+02 0.  0.
        -11    1    4    4    0    0  0.22079171647E+02  0.17070504822E+02 -0.24347091902E+02  0.37036101842E+02  0.00000000000E+00 0.  1.
         12    1    4    4    0    0 -0.34811084226E+02  0.13279035243E+03 -0.28970416631E+03  0.32058320801E+03  0.00000000000E+00 0. -1.
        -11    1    3    3    0    0  0.22946610528E+02 -0.25047290796E+02 -0.26270405295E+02  0.42942378897E+02  0.00000000000E+00 0.  1.
         11    1    3    3    0    0 -0.59269745415E+02  0.71494146825E+01 -0.55227515352E+01  0.59954296229E+02  0.00000000000E+00 0. -1.
          1    1    1    2  501    0  0.49055047465E+02 -0.13196298114E+03  0.14090791344E+03  0.19918751503E+03  0.00000000000E+00 0. -1.
<scales pt_clust_5="13000.00000" pt_clust_6="13000.00000" pt_clust_7="13000.00000" pt_clust_8="13000.00000" pt_clust_9="148.78646"></scales>
<clustering>
<clus scale="   81.505">  5  6 -1 -1</clus>
<clus scale="   89.091">  7  8 -1 -1</clus>
<clus scale="   97.862">  1  7  2 -1</clus>
<clus scale="  148.786">  2  9  1 -1</clus>
<clus scale="  148.786">  2  5  1 -1</clus>
</clustering>
</event>
<event>
 9    2  0.9254368E-005  0.1132079E+03  0.7546771E-02  0.1259253E+00
         -3   -1    0    0    0  501 -0.00000000000E+00  0.00000000000E+00  0.29098009338E+03  0.29098009338E+03  0.00000000000E+00 0.  1.
         21   -1    0    0  501  502  0.00000000000E+00 -0.00000000000E+00 -0.85744739270E+02  0.85744739270E+02  0.00000000000E+00 0.  1.
         23    2    1    2    0    0  0.51935495795E+02 -0.32617137411E+01  0.14789836647E+03  0.18147887245E+03  0.91393215507E+02 0.  0.
         24    2    1    2    0    0 -0.10154961282E+03  0.13856483790E+02  0.63370357668E+02  0.14415573301E+03  0.79124883078E+02 0.  0.
        -11    1    4    4    0    0 -0.75517520215E+02 -0.15734682641E+02  0.99621385702E+01  0.77779947944E+02  0.00000000000E+00 0.  1.
         12    1    4    4    0    0 -0.26032092605E+02  0.29591166431E+02  0.53408219098E+02  0.66375785068E+02  0.00000000000E+00 0. -1.
        -13    1    3    3    0    0  0.25518113133E+02 -0.46641389742E+02  0.61859391665E+02  0.81567013382E+02  0.00000000000E+00 0. -1.
         13    1    3    3    0    0  0.26417382662E+02  0.43379676000E+02  0.86038974806E+02  0.99911859067E+02  0.00000000000E+00 0.  1.
         -4    1    1    2    0  502  0.49614117025E+02 -0.10594770049E+02 -0.60333700275E+01  0.51090227191E+02  0.00000000000E+00 0.  1.
<scales pt_clust_5="13000.00000" pt_clust_6="13000.00000" pt_clust_7="13000.00000" pt_clust_8="13000.00000" pt_clust_9="50.73273"></scales>
<clustering>
<clus scale="   50.733">  2  9  1 -1</clus>
<clus scale="   79.125">  5  6 -1 -1</clus>
<clus scale="   91.393">  7  8 -1 -1</clus>
<clus scale="  103.557">  2  5  1 -1</clus>
<clus scale="   50.733">  2  5  1 -1</clus>
</clustering>
</event>
<event>
 9    2  0.9254368E-005  0.4320469E+03  0.7546771E-02  0.1033313E+00
          2   -1    0    0  502    0 -0.00000000000E+00  0.00000000000E+00  0.95459234197E+03  0.95459234197E+03  0.00000000000E+00 0. -1.
         21   -1    0    0  501  502  0.00000000000E+00 -0.00000000000E+00 -0.37230619471E+03  0.37230619471E+03  0.00000000000E+00 0. -1.
         23    2    1    2    0    0 -0.38430483935E+03  0.21755556980E+03  0.65348181858E+03  0.79400530809E+03  0.91571319534E+02 0.  0.
         24    2    1    2    0    0  0.28397552556E+03 -0.25005718517E+03  0.26911303629E+02  0.38885398138E+03  0.85513189630E+02 0.  0.
        -13    1    4    4    0    0  0.99955470568E+02 -0.77541095500E+02  0.48965110515E+02  0.13565139010E+03  0.00000000000E+00 0.  1.
         14    1    4    4    0    0  0.18402005499E+03 -0.17251608967E+03 -0.22053806887E+02  0.25320259128E+03  0.00000000000E+00 0. -1.
        -13    1    3    3    0    0 -0.12561883290E+03  0.26280179394E+02  0.21014675168E+03  0.24623646410E+03  0.00000000000E+00 0. -1.
         13    1    3    3    0    0 -0.25868600645E+03  0.19127539041E+03  0.44333506689E+03  0.54776884399E+03  0.00000000000E+00 0.  1.
          1    1    1    2  501    0  0.10032931379E+03  0.32501615362E+02 -0.98106974946E+02  0.14403924722E+03  0.00000000000E+00 0. -1.
<scales pt_clust_5="13000.00000" pt_clust_6="13000.00000" pt_clust_7="13000.00000" pt_clust_8="13000.00000" pt_clust_9="105.46244"></scales>
<clustering>
<clus scale="   85.513">  5  6 -1 -1</clus>
<clus scale="   91.571">  7  8 -1 -1</clus>
<clus scale="  105.462">  2  9  1 -1</clus>
<clus scale="  430.804">  2  5  1 -1</clus>
<clus scale="  105.462">  2  5  1 -1</clus>
</clustering>
</event>
<event>
 9    2  0.1047164E-004  0.1033047E+03  0.7546771E-02  0.1276685E+00
         21   -1    0    0  501  502  0.00000000000E+00  0.00000000000E+00  0.24757990948E+03  0.24757990948E+03  0.00000000000E+00 0. -1.
         -3   -1    0    0    0  501 -0.00000000000E+00 -0.00000000000E+00 -0.19007056166E+03  0.19007056166E+03  0.00000000000E+00 0.  1.
         23    2    1    2    0    0 -0.15981632024E+02  0.42971985857E+02  0.89063405837E+02  0.13481899070E+03  0.90232288362E+02 0.  0.
         24    2    1    2    0    0 -0.72642582090E+02 -0.42481024082E+02  0.92641466677E+02  0.15025684059E+03  0.83145021829E+02 0.  0.
        -11    1    4    4    0    0 -0.16389874550E+02 -0.15777858562E+02 -0.14038852214E+02  0.26733091479E+02  0.00000000000E+00 0.  1.
         12    1    4    4    0    0 -0.56252707541E+02 -0.26703165520E+02  0.10668031889E+03  0.12352374911E+03  0.00000000000E+00 0. -1.
        -11    1    3    3    0    0  0.35310468338E+02  0.29824228188E+01  0.23836763112E+02  0.42707321337E+02  0.00000000000E+00 0. -1.
         11    1    3    3    0    0 -0.51292100361E+02  0.39989563038E+02  0.65226642725E+02  0.92111669362E+02  0.00000000000E+00 0.  1.
         -4    1    1    2    0  502  0.88624214114E+02 -0.49096177479E+00 -0.12419552470E+03  0.15257463985E+03  0.00000000000E+00 0.  1.
<scales pt_clust_5="13000.00000" pt_clust_6="13000.00000" pt_clust_7="13000.00000" pt_clust_8="13000.00000" pt_clust_9="88.62562"></scales>
<clustering>
<clus scale="   83.145">  5  6 -1 -1</clus>
<clus scale="   88.626">  1  9  2 -1</clus>
<clus scale="   90.232">  7  8 -1 -1</clus>
<clus scale="   97.176">  1  5  2 -1</clus>
<clus scale="   88.626">  1  5  2 -1</clus>
</clustering>
</event>
<event>
 9    2  0.9254368E-005  0.1376888E+03  0.7546771E-02  0.1218003E+00
         21   -1    0    0  501  502  0.00000000000E+00  0.00000000000E+00  0.86222409047E+02  0.86222409047E+02  0.00000000000E+00 0.  1.
          2   -1    0    0  502    0 -0.00000000000E+00 -0.00000000000E+00 -0.49064850671E+03  0.49064850671E+03  0.00000000000E+00 0. -1.
         23    2    1    2    0    0  0.75444730113E+02 -0.53646681384E+02 -0.30152023691E+03  0.32808898104E+03  0.90321938020E+02 0.  0.
         24    2    1    2    0    0 -0.12599870308E+03  0.71233474928E+02 -0.10093636254E+03  0.19522002276E+03  0.83503454280E+02 0.  0.
        -11    1    4    4    0    0 -0.10972194949E+03  0.39544714430E+02 -0.37581193904E+02  0.12253585914E+03  0.00000000000E+00 0.  1.
         12    1    4    4    0    0 -0.16276753591E+02  0.31688760498E+02 -0.63355168635E+02  0.72684163626E+02  0.00000000000E+00 0. -1.
        -11    1    3    3    0    0  0.65841834270E+02 -0.75788643832E+02 -0.27213528672E+03  0.29006323440E+03  0.00000000000E+00 0. -1.
         11    1    3    3    0    0  0.96028958424E+01  0.22141962447E+02 -0.29384950187E+02  0.38025746634E+02  0.00000000000E+00 0.  1.
          1    1    1    2  501    0  0.50553972966E+02 -0.17586793543E+02 -0.19694982209E+01  0.53561911962E+02  0.00000000000E+00 0. -1.
<scales pt_clust_5="13000.00000" pt_clust_6="13000.00000" pt_clust_7="13000.00000" pt_clust_8="13000.00000" pt_clust_9="53.52569"></scales>
<clustering>
<clus scale="   53.526">  1  9  2 -1</clus>
<clus scale="   83.503">  5  6 -1 -1</clus>
<clus scale="   90.322">  7  8 -1 -1</clus>
<clus scale="  133.315">  1  5  2 -1</clus>
<clus scale="   53.526">  1  5  2 -1</clus>
</clustering>
</event>
<event>
 9    2  0.9254368E-005  0.1144796E+03  0.7546771E-02  0.1256265E+00
          2   -1    0    0  502    0 -0.00000000000E+00  0.00000000000E+00  0.35905322146E+03  0.35905322146E+03  0.00000000000E+00 0. -1.
         21   -1    0    0  501  502  0.00000000000E+00 -0.00000000000E+00 -0.50609209032E+02  0.50609209032E+02  0.00000000000E+00 0. -1.
         24    2    1    2    0    0  0.14119316905E+02 -0.54049182521E+02  0.19561385435E+03  0.22706903557E+03  0.10087069772E+03 0.  0.
         23    2    1    2    0    0  0.20594489543E+02  0.54226895056E+02  0.78046849728E+02  0.13345116787E+03  0.91395920628E+02 0.  0.
        -11    1    3    3    0    0 -0.91096416576E+00  0.29759215896E+02  0.59156225688E+02  0.66226126447E+02  0.00000000000E+00 0.  1.
         12    1    3    3    0    0  0.15030281070E+02 -0.83808398417E+02  0.13645762866E+03  0.16084290912E+03  0.00000000000E+00 0. -1.
        -11    1    4    4    0    0 -0.34868614078E+02  0.28337434078E+02  0.46230871262E+02  0.64468006604E+02  0.00000000000E+00 0.  1.
         11    1    4    4    0    0  0.55463103621E+02  0.25889460977E+02  0.31815978466E+02  0.68983161269E+02  0.00000000000E+00 0. -1.
          1    1    1    2  501    0 -0.34713806448E+02 -0.17771253488E+00  0.34783308351E+02  0.49142227053E+02  0.00000000000E+00 0. -1.
<scales pt_clust_5="13000.00000" pt_clust_6="13000.00000" pt_clust_7="13000.00000" pt_clust_8="13000.00000" pt_clust_9="34.71426"></scales>
<clustering>
<clus scale="   34.714">  2  9  1 -1</clus>
<clus scale="   91.396">  7  8 -1 -1</clus>
<clus scale="  100.871">  5  6 -1 -1</clus>
<clus scale="  106.226">  2  7  1 -1</clus>
<clus scale="   34.714">  2  5  1 -1</clus>
</clustering>
</event>
<event>
 9    2  0.9254368E-005  0.9953272E+02  0.7546771E-02  0.1285652E+00
         -3   -1    0    0    0  501 -0.00000000000E+00  0.00000000000E+00  0.22148999989E+03  0.22148999989E+03  0.00000000000E+00 0.  1.
         21   -1    0    0  501  502  0.00000000000E+00 -0.00000000000E+00 -0.17982233086E+03  0.17982233086E+03  0.00000000000E+00 0.  1.
         23    2    1    2    0    0 -0.44018489512E+02 -0.47145101235E+01  0.18647121941E+03  0.21215703810E+03  0.90990324330E+02 0.  0.
         24    2    1    2    0    0  0.12013851811E+02  0.11464293886E+01 -0.73758083138E+02  0.11115217444E+03  0.82273349987E+02 0.  0.
        -11    1    4    4    0    0 -0.24798138544E+02  0.11810461600E+02 -0.66764616879E+02  0.72193827613E+02  0.00000000000E+00 0.  1.
         12    1    4    4    0    0  0.36811990355E+02 -0.10664032212E+02 -0.69934662588E+01  0.38958346823E+02  0.00000000000E+00 0. -1.
        -11    1    3    3    0    0 -0.36088061542E+02 -0.23785420456E+02  0.18656154542E+03  0.19150275361E+03  0.00000000000E+00 0.  1.
         11    1    3    3    0    0 -0.79304279707E+01  0.19070910333E+02 -0.90326011772E-01  0.20654284483E+02  0.00000000000E+00 0. -1.
         -4    1    1    2    0  502  0.32004637701E+02  0.35680807349E+01 -0.71045467244E+02  0.78003118209E+02  0.00000000000E+00 0.  1.
<scales pt_clust_5="13000.00000" pt_clust_6="13000.00000" pt_clust_7="13000.00000" pt_clust_8="13000.00000" pt_clust_9="32.20292"></scales>
<clustering>
<clus scale="   32.203">  2  9  1 -1</clus>
<clus scale="   82.273">  5  6 -1 -1</clus>
<clus scale="   90.990">  7  8 -1 -1</clus>
<clus scale="   91.632">  2  5  1 -1</clus>
<clus scale="   32.203">  2  5  1 -1</clus>
</clustering>
</event>
<event>
 9    2  0.9254368E-005  0.9685290E+02  0.7546771E-02  0.1288289E+00
         21   -1    0    0  501  502  0.00000000000E+00  0.00000000000E+00  0.14478434765E+02  0.14478434765E+02  0.00000000000E+00 0. -1.
         -1   -1    0    0    0  501 -0.00000000000E+00 -0.00000000000E+00 -0.14590909021E+04  0.14590909021E+04  0.00000000000E+00 0.  1.
         24    2    1    2    0    0 -0.18691147131E+02  0.32886050550E+02 -0.95374928804E+03  0.95865344321E+03  0.89150818479E+02 0.  0.
         23    2    1    2    0    0 -0.18726533708E+02 -0.15136242542E+02 -0.20155302440E+03  0.22265658371E+03  0.91501605028E+02 0.  0.
        -13    1    3    3    0    0  0.21273362728E+02 -0.55199765380E+01 -0.74896300093E+02  0.78054352027E+02  0.00000000000E+00 0.  1.
         14    1    3    3    0    0 -0.39964509859E+02  0.38406027088E+02 -0.87885298795E+03  0.88059909118E+03  0.00000000000E+00 0. -1.
        -11    1    4    4    0    0 -0.15442457079E+02  0.38077157458E+02 -0.80386262520E+02  0.90278959911E+02  0.00000000000E+00 0.  1.
         11    1    4    4    0    0 -0.32840766292E+01 -0.53213399999E+02 -0.12116676188E+03  0.13237762380E+03  0.00000000000E+00 0. -1.
         -2    1    1    2    0  502  0.37417680839E+02 -0.17749808008E+02 -0.28931015485E+03  0.29225930989E+03  0.00000000000E+00 0.  1.
<scales pt_clust_5="13000.00000" pt_clust_6="13000.00000" pt_clust_7="13000.00000" pt_clust_8="13000.00000" pt_clust_9="41.41425"></scales>
<clustering>
<clus scale="   41.414">  1  9  2 -1</clus>
<clus scale="   89.151">  5  6 -1 -1</clus>
<clus scale="   91.502">  7  8 -1 -1</clus>
<clus scale="   94.635">  2  5  1 -1</clus>
<clus scale="   41.414">  1  5  2 -1</clus>
</clustering>
</event>
<event>
 9    2  0.9254368E-005  0.1083110E+03  0.7546771E-02  0.1268388E+00
         21   -1    0    0  501  502  0.00000000000E+00  0.00000000000E+00  0.45689816625E+03  0.45689816625E+03  0.00000000000E+00 0. -1.
         -3   -1    0    0    0  501 -0.00000000000E+00 -0.00000000000E+00 -0.75092591370E+02  0.75092591370E+02  0.00000000000E+00 0.  1.
         24    2    1    2    0    0  0.18919869696E+02 -0.48015230273E+02 -0.21544025404E+02  0.99609784480E+02  0.82429001729E+02 0.  0.
         23    2    1    2    0    0 -0.20920780171E+02  0.79280518321E+02  0.32778079871E+03  0.35057531532E+03  0.93486470049E+02 0.  0.
        -13    1    3    3    0    0  0.40330897748E+02 -0.48018220274E+02  0.79000170514E+01  0.63203963965E+02  0.00000000000E+00 0.  1.
         14    1    3    3    0    0 -0.21411028052E+02  0.29900013531E-02 -0.29444042456E+02  0.36405820515E+02  0.00000000000E+00 0. -1.
        -13    1    4    4    0    0 -0.58265948410E+02  0.50755365463E+02  0.21002049750E+03  0.22378480117E+03  0.00000000000E+00 0.  1.
         13    1    4    4    0    0  0.37345168239E+02  0.28525152858E+02  0.11776030121E+03  0.12679051415E+03  0.00000000000E+00 0. -1.
         -4    1    1    2    0  502  0.20009104745E+01 -0.31265288048E+02  0.75568801577E+02  0.81805657819E+02  0.00000000000E+00 0.  1.
<scales pt_clust_5="13000.00000" pt_clust_6="13000.00000" pt_clust_7="13000.00000" pt_clust_8="13000.00000" pt_clust_9="31.32925"></scales>
<clustering>
<clus scale="   31.329">  1  9  2 -1</clus>
<clus scale="   82.429">  5  6 -1 -1</clus>
<clus scale="   93.486">  7  8 -1 -1</clus>
<clus scale="   98.925">  2  5  1 -1</clus>
<clus scale="   31.329">  1  5  2 -1</clus>
</clustering>
</event>
<event>
 9    2  0.9254368E-005  0.9441019E+02  0.7546771E-02  0.1301528E+00
          2   -1    0    0  502    0 -0.00000000000E+00  0.00000000000E+00  0.58970736570E+02  0.58970736570E+02  0.00000000000E+00 0. -1.
         21   -1    0    0  501  502  0.00000000000E+00 -0.00000000000E+00 -0.50744417460E+03  0.50744417460E+03  0.00000000000E+00 0.  1.
         24    2    1    2    0    0  0.16993989207E+02  0.77186798205E+01  0.44064848578E+01  0.80065393335E+02  0.77734653879E+02 0.  0.
         23    2    1    2    0    0 -0.26675955798E+02  0.49888658470E+02 -0.20804864499E+03  0.23464592124E+03  0.92595814219E+02 0.  0.
        -13    1    3    3    0    0 -0.20379808996E+02  0.71186836305E+01 -0.24617177107E+02  0.32741681082E+02  0.00000000000E+00 0.  1.
         14    1    3    3    0    0  0.37373798203E+02  0.59999619001E+00  0.29023661965E+02  0.47323712253E+02  0.00000000000E+00 0. -1.
        -11    1    4    4    0    0  0.27748330721E+02 -0.74550719500E+01 -0.68043719500E+02  0.73861327628E+02  0.00000000000E+00 0. -1.
         11    1    4    4    0    0 -0.54424286519E+02  0.57343730420E+02 -0.14000492549E+03  0.16078459361E+03  0.00000000000E+00 0.  1.
          1    1    1    2  501    0  0.96819665918E+01 -0.57607338290E+02 -0.24483127790E+03  0.25170359659E+03  0.00000000000E+00 0. -1.
<scales pt_clust_5="13000.00000" pt_clust_6="13000.00000" pt_clust_7="13000.00000" pt_clust_8="13000.00000" pt_clust_9="58.41529"></scales>
<clustering>
<clus scale="   58.415">  2  9  1 -1</clus>
<clus scale="   77.735">  5  6 -1 -1</clus>
<clus scale="   79.887">  1  5  2 -1</clus>
<clus scale="   92.596">  7  8 -1 -1</clus>
<clus scale="   58.415">  2  5  1 -1</clus>
</clustering>
</event>
<event>
 9    2  0.9254368E-005  0.1200278E+03  0.7546771E-02  0.1256592E+00
         -1   -1    0    0    0  501 -0.00000000000E+00  0.00000000000E+00  0.53240198917E+02  0.53240198917E+02  0.00000000000E+00 0.  1.
         21   -1    0    0  501  502  0.00000000000E+00 -0.00000000000E+00 -0.47035842047E+03  0.47035842047E+03  0.00000000000E+00 0.  1.
         23    2    1    2    0    0  0.27801918962E+01  0.88817874681E+01 -0.13494891250E+03  0.16308441419E+03  0.91097209348E+02 0.  0.
         24    2    1    2    0    0 -0.29587465567E+02  0.80989685626E+02 -0.90295214528E+02  0.14694646478E+03  0.77493809095E+02 0.  0.
        -11    1    4    4    0    0 -0.13241962529E+02  0.91841443138E+02 -0.58840683002E+02  0.10987459318E+03  0.00000000000E+00 0.  1.
         12    1    4    4    0    0 -0.16345503038E+02 -0.10851757513E+02 -0.31454531527E+02  0.37071871604E+02  0.00000000000E+00 0. -1.
        -13    1    3    3    0    0 -0.17659016014E+02  0.15592391439E+02 -0.13918002797E+03  0.14115963907E+03  0.00000000000E+00 0.  1.
         13    1    3    3    0    0  0.20439207910E+02 -0.67106039711E+01  0.42311154738E+01  0.21924775114E+02  0.00000000000E+00 0. -1.
         -2    1    1    2    0  502  0.26807273671E+02 -0.89871473094E+02 -0.19187409453E+03  0.21356774042E+03  0.00000000000E+00 0.  1.
<scales pt_clust_5="13000.00000" pt_clust_6="13000.00000" pt_clust_7="13000.00000" pt_clust_8="13000.00000" pt_clust_9="91.65901"></scales>
<clustering>
<clus scale="   77.494">  5  6 -1 -1</clus>
<clus scale="   91.097">  7  8 -1 -1</clus>
<clus scale="   91.571">  1  7  2 -1</clus>
<clus scale="   91.659">  2  9  1 -1</clus>
<clus scale="   91.659">  2  5  1 -1</clus>
</clustering>
</event>
<event>
 9    2  0.9254368E-005  0.1645676E+03  0.7546771E-02  0.1184676E+00
          2   -1    0    0  502    0 -0.00000000000E+00  0.00000000000E+00  0.89797152624E+03  0.89797152624E+03  0.00000000000E+00 0. -1.
         21   -1    0    0  501  502  0.00000000000E+00 -0.00000000000E+00 -0.50806086653E+02  0.50806086653E+02  0.00000000000E+00 0. -1.
         23    2    1    2    0    0 -0.50705273028E+02 -0.10896980513E+03  0.42046500734E+03  0.44705447676E+03  0.92851707830E+02 0.  0.
         24    2    1    2    0    0  0.10130810063E+03  0.14302285849E+03  0.26687193532E+03  0.33065179127E+03  0.85971552894E+02 0.  0.
        -13    1    4    4    0    0  0.42629446102E+02  0.60094041076E+02  0.44248560272E+02  0.85944741165E+02  0.00000000000E+00 0.  1.
         14    1    4    4    0    0  0.58678654523E+02  0.82928817414E+02  0.22262337505E+03  0.24470705011E+03  0.00000000000E+00 0. -1.
        -11    1    3    3    0    0  0.49206669275E+01 -0.93995401521E+02  0.27029256222E+03  0.28621218992E+03  0.00000000000E+00 0.  1.
         11    1    3    3    0    0 -0.55625939956E+02 -0.14974403604E+02  0.15017244513E+03  0.16084228684E+03  0.00000000000E+00 0. -1.
          1    1    1    2  501    0 -0.50602827597E+02 -0.34053053364E+02  0.15982849692E+03  0.17107134486E+03  0.00000000000E+00 0. -1.
<scales pt_clust_5="13000.00000" pt_clust_6="13000.00000" pt_clust_7="13000.00000" pt_clust_8="13000.00000" pt_clust_9="60.99394"></scales>
<clustering>
<clus scale="   60.994">  2  9  1 -1</clus>
<clus scale="   85.972">  5  6 -1 -1</clus>
<clus scale="   92.852">  7  8 -1 -1</clus>
<clus scale="  160.786">  2  5  1 -1</clus>
<clus scale="   60.994">  2  5  1 -1</clus>
</clustering>
</event>
<event>
 9    2  0.9254368E-005  0.1751706E+03  0.7546771E-02  0.1174156E+00
          2   -1    0    0  502    0 -0.00000000000E+00  0.00000000000E+00  0.58899105583E+03  0.58899105583E+03  0.00000000000E+00 0. -1.
         21   -1    0    0  501  502  0.00000000000E+00 -0.00000000000E+00 -0.10280489782E+03  0.10280489782E+03  0.00000000000E+00 0.  1.
         24    2    1    2    0    0 -0.26541435713E+01  0.14687087662E+03  0.23784587598E+03  0.29042007141E+03  0.78708692541E+02 0.  0.
         23    2    1    2    0    0 -0.36927572612E+02 -0.15609143377E+03  0.39688579376E+02  0.18880292076E+03  0.91340999771E+02 0.  0.
        -13    1    3    3    0    0 -0.23814057083E+01  0.15536469985E+03  0.20953743188E+03  0.26086355900E+03  0.00000000000E+00 0.  1.
         14    1    3    3    0    0 -0.27273786295E+00 -0.84938232289E+01  0.28308444098E+02  0.29556512417E+02  0.00000000000E+00 0. -1.
        -11    1    4    4    0    0 -0.54226252297E+02 -0.11575928450E+03 -0.26015257762E+01  0.12785721068E+03  0.00000000000E+00 0.  1.
         11    1    4    4    0    0  0.17298679684E+02 -0.40332149271E+02  0.42290105152E+02  0.60945710082E+02  0.00000000000E+00 0. -1.
          1    1    1    2  501    0  0.39581716183E+02  0.92205571485E+01  0.20865170266E+03  0.21257296148E+03  0.00000000000E+00 0. -1.
<scales pt_clust_5="13000.00000" pt_clust_6="13000.00000" pt_clust_7="13000.00000" pt_clust_8="13000.00000" pt_clust_9="40.64151"></scales>
<clustering>
<clus scale="   40.642">  2  9  1 -1</clus>
<clus scale="   78.709">  5  6 -1 -1</clus>
<clus scale="   91.341">  7  8 -1 -1</clus>
<clus scale="  168.928">  1  5  2 -1</clus>
<clus scale="   40.642">  2  5  1 -1</clus>
</clustering>
</event>
<event>
 9    2  0.9254368E-005  0.1212587E+03  0.7546771E-02  0.1244899E+00
          2   -1    0    0  502    0 -0.00000000000E+00  0.00000000000E+00  0.27857241687E+03  0.27857241687E+03  0.00000000000E+00 0. -1.
         21   -1    0    0  501  502  0.00000000000E+00 -0.00000000000E+00 -0.77722560491E+02  0.77722560491E+02  0.00000000000E+00 0. -1.
         23    2    1    2    0    0  0.50221205741E+02  0.83263660552E+02  0.12719674906E+03  0.18434304194E+03  0.91369236974E+02 0.  0.
         24    2    1    2    0    0 -0.13332100386E+02 -0.54942550580E+02  0.16789418490E+02  0.98491943104E+02  0.78881870657E+02 0.  0.
        -13    1    4    4    0    0 -0.22041843746E+02 -0.28568855239E+02  0.45814976801E+02  0.58318388736E+02  0.00000000000E+00 0.  1.
         14    1    4    4    0    0  0.87097433599E+01 -0.26373695341E+02 -0.29025558312E+02  0.40173554369E+02  0.00000000000E+00 0. -1.
        -13    1    3    3    0    0 -0.21402530708E+02  0.41971785325E+02  0.67724662778E+02  0.82500478983E+02  0.00000000000E+00 0.  1.
         13    1    3    3    0    0  0.71623736449E+02  0.41291875227E+02  0.59472086285E+02  0.10184256296E+03  0.00000000000E+00 0. -1.
          1    1    1    2  501    0 -0.36889105354E+02 -0.28321109972E+02  0.56863688824E+02  0.73459992313E+02  0.00000000000E+00 0. -1.
<scales pt_clust_5="13000.00000" pt_clust_6="13000.00000" pt_clust_7="13000.00000" pt_clust_8="13000.00000" pt_clust_9="46.50692"></scales>
<clustering>
<clus scale="   46.507">  2  9  1 -1</clus>
<clus scale="   78.882">  5  6 -1 -1</clus>
<clus scale="   91.369">  7  8 -1 -1</clus>
<clus scale="  112.150">  2  5  1 -1</clus>
<clus scale="   46.507">  2  5  1 -1</clus>
</clustering>
</event>
<event>
 9    2  0.9254368E-005  0.1007498E+03  0.7546771E-02  0.1284818E+00
         21   -1    0    0  501  502  0.00000000000E+00  0.00000000000E+00  0.23699798130E+02  0.23699798130E+02  0.00000000000E+00 0. -1.
          2   -1    0    0  502    0 -0.00000000000E+00 -0.00000000000E+00 -0.82551111191E+03  0.82551111191E+03  0.00000000000E+00 0. -1.
         24    2    1    2    0    0  0.50715496208E+02  0.14496228762E+02 -0.61262240968E+03  0.61976659831E+03  0.77602946709E+02 0.  0.
         23    2    1    2    0    0 -0.18156027459E+02  0.29232963532E+01 -0.14686248973E+03  0.17327417541E+03  0.90095293885E+02 0.  0.
        -11    1    3    3    0    0  0.64343183812E+02  0.10184672460E+02 -0.30823557333E+03  0.31504434850E+03  0.00000000000E+00 0.  1.
         12    1    3    3    0    0 -0.13627687604E+02  0.43115563013E+01 -0.30438683635E+03  0.30472224981E+03  0.00000000000E+00 0. -1.
        -11    1    4    4    0    0 -0.38099285458E+02 -0.33201503925E+02 -0.75858054496E+02  0.91150095157E+02  0.00000000000E+00 0.  1.
         11    1    4    4    0    0  0.19943257999E+02  0.36124800278E+02 -0.71004435237E+02  0.82124080257E+02  0.00000000000E+00 0. -1.
          1    1    1    2  501    0 -0.32559468749E+02 -0.17419525115E+02 -0.42326414370E+02  0.56170136317E+02  0.00000000000E+00 0. -1.
<scales pt_clust_5="13000.00000" pt_clust_6="13000.00000" pt_clust_7="13000.00000" pt_clust_8="13000.00000" pt_clust_9="36.92640"></scales>
<clustering>
<clus scale="   36.926">  1  9  2 -1</clus>
<clus scale="   77.603">  5  6 -1 -1</clus>
<clus scale="   89.753">  2  5  1 -1</clus>
<clus scale="   90.095">  7  8 -1 -1</clus>
<clus scale="   36.926">  1  5  2 -1</clus>
</clustering>
</event>
<event>
 9    2  0.9254368E-005  0.2190016E+03  0.7546771E-02  0.1135140E+00
          2   -1    0    0  502    0 -0.00000000000E+00  0.00000000000E+00  0.13872028811E+04  0.13872028811E+04  0.00000000000E+00 0. -1.
         21   -1    0    0  501  502  0.00000000000E+00 -0.00000000000E+00 -0.13665290305E+03  0.13665290305E+03  0.00000000000E+00 0. -1.
         24    2    1    2    0    0  0.10714734408E+03 -0.16322319895E+03  0.11205159915E+04  0.11405242912E+04  0.84363532652E+02 0.  0.
         23    2    1    2    0    0 -0.12585930174E+03  0.18200115194E+03  0.19786872044E+03  0.31050086751E+03  0.91070165552E+02 0.  0.
        -11    1    3    3    0    0  0.93017353546E+02 -0.94718783313E+02  0.55287617950E+03  0.56859119394E+03  0.00000000000E+00 0.  1.
         12    1    3    3    0    0  0.14129990537E+02 -0.68504415641E+02  0.56763981199E+03  0.57193309727E+03  0.00000000000E+00 0. -1.
        -13    1    4    4    0    0 -0.72126541962E+01  0.22983582930E+02  0.71068072048E+02  0.75039578420E+02  0.00000000000E+00 0. -1.
         13    1    4    4    0    0 -0.11864664754E+03  0.15901756901E+03  0.12680064839E+03  0.23546128909E+03  0.00000000000E+00 0.  1.
          1    1    1    2  501    0  0.18711957655E+02 -0.18777952987E+02 -0.67834733892E+02  0.72830625425E+02  0.00000000000E+00 0. -1.
<scales pt_clust_5="13000.00000" pt_clust_6="13000.00000" pt_clust_7="13000.00000" pt_clust_8="13000.00000" pt_clust_9="26.50941"></scales>
<clustering>
<clus scale="   26.509">  2  9  1 -1</clus>
<clus scale="   84.364">  5  6 -1 -1</clus>
<clus scale="   91.070">  7  8 -1 -1</clus>
<clus scale="  216.299">  1  5  2 -1</clus>
<clus scale="   26.509">  2  5  1 -1</clus>
</clustering>
</event>
<event>
 9    2  0.9254368E-005  0.1027709E+03  0.7546771E-02  0.1278690E+00
         -3   -1    0    0    0  501 -0.00000000000E+00  0.00000000000E+00  0.19624697914E+03  0.19624697914E+03  0.00000000000E+00 0.  1.
         21   -1    0    0  501  502  0.00000000000E+00 -0.00000000000E+00 -0.73931636949E+02  0.73931636949E+02  0.00000000000E+00 0.  1.
         24    2    1    2    0    0 -0.30527880348E+02  0.23633367852E+02  0.69047743409E+02  0.11347497878E+03  0.81354117199E+02 0.  0.
         23    2    1    2    0    0  0.51218266658E+02 -0.38073394464E+02  0.65638324926E+02  0.12860308002E+03  0.90318703964E+02 0.  0.
        -13    1    3    3    0    0 -0.20739991654E+02  0.15252232883E+02  0.87365034271E+02  0.91079235147E+02  0.00000000000E+00 0.  1.
         14    1    3    3    0    0 -0.97878886937E+01  0.83811349697E+01 -0.18317290862E+02  0.22395743636E+02  0.00000000000E+00 0. -1.
        -11    1    4    4    0    0  0.26393408462E+02  0.90927391508E+01 -0.15191563386E+02  0.31781653727E+02  0.00000000000E+00 0. -1.
         11    1    4    4    0    0  0.24824858196E+02 -0.47166133615E+02  0.80829888312E+02  0.96821426292E+02  0.00000000000E+00 0.  1.
         -4    1    1    2    0  502 -0.20690386310E+02  0.14440026612E+02 -0.12370726148E+02  0.28100557284E+02  0.00000000000E+00 0.  1.
<scales pt_clust_5="13000.00000" pt_clust_6="13000.00000" pt_clust_7="13000.00000" pt_clust_8="13000.00000" pt_clust_9="25.23106"></scales>
<clustering>
<clus scale="   25.231">  2  9  1 -1</clus>
<clus scale="   81.354">  5  6 -1 -1</clus>
<clus scale="   90.319">  7  8 -1 -1</clus>
<clus scale="   94.989">  1  5  2 -1</clus>
<clus scale="   25.231">  2  5  1 -1</clus>
</clustering>
</event>
<event>
 9    2  0.9254368E-005  0.9845399E+02  0.7546771E-02  0.1288117E+00
         -1   -1    0    0    0  501 -0.00000000000E+00  0.00000000000E+00  0.70162545553E+02  0.70162545553E+02  0.00000000000E+00 0.  1.
         21   -1    0    0  501  502  0.00000000000E+00 -0.00000000000E+00 -0.30360364865E+03  0.30360364865E+03  0.00000000000E+00 0. -1.
         23    2    1    2    0    0 -0.59915924311E+01 -0.36501805554E+02  0.76564509000E+01  0.98701551514E+02  0.91187137483E+02 0.  0.
         24    2    1    2    0    0  0.30228096035E+02  0.30965173496E+02 -0.12228585479E+03  0.15367979079E+03  0.82407936855E+02 0.  0.
        -11    1    4    4    0    0  0.50912809986E+02  0.75416791512E+00 -0.44161058901E+02  0.67400905878E+02  0.00000000000E+00 0.  1.
         12    1    4    4    0    0 -0.20684713951E+02  0.30211005581E+02 -0.78124795887E+02  0.86278884913E+02  0.00000000000E+00 0. -1.
        -13    1    3    3    0    0  0.20116980752E+02 -0.51513866983E+02  0.28364503718E+02  0.62152365018E+02  0.00000000000E+00 0.  1.
         13    1    3    3    0    0 -0.26108573183E+02  0.15012061430E+02 -0.20708052818E+02  0.36549186496E+02  0.00000000000E+00 0. -1.
         -2    1    1    2    0  502 -0.24236503604E+02  0.55366320578E+01 -0.11881169921E+03  0.12138485190E+03  0.00000000000E+00 0.  1.
<scales pt_clust_5="13000.00000" pt_clust_6="13000.00000" pt_clust_7="13000.00000" pt_clust_8="13000.00000" pt_clust_9="24.86086"></scales>
<clustering>
<clus scale="   24.861">  2  9  1 -1</clus>
<clus scale="   82.408">  5  6 -1 -1</clus>
<clus scale="   90.383">  2  5  1 -1</clus>
<clus scale="   91.187">  7  8 -1 -1</clus>
<clus scale="   24.861">  2  5  1 -1</clus>
</clustering>
</event>
<event>
 9    2  0.9254368E-005  0.1770094E+03  0.7546771E-02  0.1172083E+00
          2   -1    0    0  502    0 -0.00000000000E+00  0.00000000000E+00  0.93855367658E+03  0.93855367658E+03  0.00000000000E+00 0. -1.
         21   -1    0    0  501  502  0.00000000000E+00 -0.00000000000E+00 -0.60084423358E+02  0.60084423358E+02  0.00000000000E+00 0. -1.
         23    2    1    2    0    0 -0.16668145071E+03  0.11219197244E+02  0.58474926680E+03  0.61467061790E+03  0.89329094253E+02 0.  0.
         24    2    1    2    0    0  0.11542373812E+03  0.27115729490E+02  0.84618730202E+02  0.16528905362E+03  0.78116833251E+02 0.  0.
        -11    1    4    4    0    0  0.65348101847E+02  0.53677157395E+02  0.42339305108E+02  0.94573930859E+02  0.00000000000E+00 0.  1.
         12    1    4    4    0    0  0.50075636274E+02 -0.26561427904E+02  0.42279425095E+02  0.70715122759E+02  0.00000000000E+00 0. -1.
        -13    1    3    3    0    0 -0.48090743547E+02  0.36116253077E+02  0.11793078252E+03  0.13238116489E+03  0.00000000000E+00 0.  1.
         13    1    3    3    0    0 -0.11859070716E+03 -0.24897055833E+02  0.46681848428E+03  0.48228945301E+03  0.00000000000E+00 0. -1.
          1    1    1    2  501    0  0.51257712587E+02 -0.38334926734E+02  0.20910125622E+03  0.21867842843E+03  0.00000000000E+00 0. -1.
<scales pt_clust_5="13000.00000" pt_clust_6="13000.00000" pt_clust_7="13000.00000" pt_clust_8="13000.00000" pt_clust_9="64.00722"></scales>
<clustering>
<clus scale="   64.007">  2  9  1 -1</clus>
<clus scale="   78.117">  5  6 -1 -1</clus>
<clus scale="   89.329">  7  8 -1 -1</clus>
<clus scale="  171.624">  2  5  1 -1</clus>
<clus scale="   64.007">  2  5  1 -1</clus>
</clustering>
</event>
<event>
 9    2  0.9254368E-005  0.1500687E+03  0.7546771E-02  0.1216081E+00
          2   -1    0    0  502    0 -0.00000000000E+00  0.00000000000E+00  0.59731710452E+03  0.59731710452E+03  0.00000000000E+00 0. -1.
         21   -1    0    0  501  502  0.00000000000E+00 -0.00000000000E+00 -0.73647785765E+02  0.73647785765E+02  0.00000000000E+00 0.  1.
         24    2    1    2    0    0 -0.51108759171E+02  0.50613856679E+02  0.41442519956E+02  0.11496165761E+03  0.79528815584E+02 0.  0.
         23    2    1    2    0    0 -0.29665572258E+02  0.75028799471E+02  0.26129645058E+03  0.28931842166E+03  0.94445471559E+02 0.  0.
        -13    1    3    3    0    0 -0.41084624131E+02  0.32929259692E+02 -0.15183028762E+02  0.54797872643E+02  0.00000000000E+00 0.  1.
         14    1    3    3    0    0 -0.10024135040E+02  0.17684596988E+02  0.56625548718E+02  0.60163784967E+02  0.00000000000E+00 0. -1.
        -11    1    4    4    0    0 -0.12171487542E+02  0.93535655338E+02  0.23233859950E+03  0.25075543613E+03  0.00000000000E+00 0.  1.
         11    1    4    4    0    0 -0.17494084716E+02 -0.18506855867E+02  0.28957851081E+02  0.38562985535E+02  0.00000000000E+00 0. -1.
          1    1    1    2  501    0  0.80774331429E+02 -0.12564265615E+03  0.22093034822E+03  0.26668481102E+03  0.00000000000E+00 0. -1.
<scales pt_clust_5="13000.00000" pt_clust_6="13000.00000" pt_clust_7="13000.00000" pt_clust_8="13000.00000" pt_clust_9="116.62198"></scales>
<clustering>
<clus scale="   79.529">  5  6 -1 -1</clus>
<clus scale="   94.445">  7  8 -1 -1</clus>
<clus scale="  107.232">  1  5  2 -1</clus>
<clus scale="  116.622">  2  9  1 -1</clus>
<clus scale="  116.622">  2  5  1 -1</clus>
</clustering>
</event>
<event>
 9    2  0.9254368E-005  0.9604609E+02  0.7546771E-02  0.1294563E+00
          4   -1    0    0  502    0 -0.00000000000E+00  0.00000000000E+00  0.36525670160E+03  0.36525670160E+03  0.00000000000E+00 0. -1.
         21   -1    0    0  501  502  0.00000000000E+00 -0.00000000000E+00 -0.38505155030E+02  0.38505155030E+02  0.00000000000E+00 0.  1.
         23    2    1    2    0    0  0.19967908700E+02  0.14737289732E+02  0.23989610930E+03  0.25774194379E+03  0.90911282279E+02 0.  0.
         24    2    1    2    0    0 -0.41962017084E+02 -0.19463419382E+02  0.79756129323E+02  0.12243014221E+03  0.80551002390E+02 0.  0.
        -13    1    4    4    0    0 -0.11493865973E+02 -0.19409384315E+02 -0.12138702768E+02  0.25616035200E+02  0.00000000000E+00 0.  1.
         14    1    4    4    0    0 -0.30468151111E+02 -0.54035067574E-01  0.91894832091E+02  0.96814107014E+02  0.00000000000E+00 0. -1.
        -13    1    3    3    0    0 -0.15370864138E+02  0.26391249426E+02  0.24495569127E+02  0.39150918475E+02  0.00000000000E+00 0. -1.
         13    1    3    3    0    0  0.35338772838E+02 -0.11653959694E+02  0.21540054017E+03  0.21859102531E+03  0.00000000000E+00 0.  1.
          3    1    1    2  501    0  0.21994108384E+02  0.47261296506E+01  0.70993079554E+01  0.23589770633E+02  0.00000000000E+00 0. -1.
<scales pt_clust_5="13000.00000" pt_clust_6="13000.00000" pt_clust_7="13000.00000" pt_clust_8="13000.00000" pt_clust_9="22.49616"></scales>
<clustering>
<clus scale="   22.496">  2  9  1 -1</clus>
<clus scale="   80.551">  5  6 -1 -1</clus>
<clus scale="   86.304">  2  5  1 -1</clus>
<clus scale="   90.911">  7  8 -1 -1</clus>
<clus scale="   22.496">  2  5  1 -1</clus>
</clustering>
</event>
<event>
 9    2  0.9254368E-005  0.9779661E+02  0.7546771E-02  0.1297497E+00
         -1   -1    0    0    0  501 -0.00000000000E+00  0.00000000000E+00  0.11241894685E+03  0.11241894685E+03  0.00000000000E+00 0.  1.
         21   -1    0    0  501  502  0.00000000000E+00 -0.00000000000E+00 -0.24979417357E+03  0.24979417357E+03  0.00000000000E+00 0.  1.
         23    2    1    2    0    0 -0.41325521663E+01 -0.14852256033E+02  0.62614182745E+02  0.11491941409E+03  0.95122386207E+02 0.  0.
         24    2    1    2    0    0  0.31606399415E+02  0.53950160820E+02 -0.12150177548E+03  0.15540373337E+03  0.74013880887E+02 0.  0.
        -11    1    4    4    0    0  0.51440792158E+02  0.56702733141E+02 -0.91076920781E+02  0.11898050488E+03  0.00000000000E+00 0.  1.
         12    1    4    4    0    0 -0.19834392742E+02 -0.27525723212E+01 -0.30424854702E+02  0.36423228488E+02  0.00000000000E+00 0. -1.
        -11    1    3    3    0    0 -0.38551580857E+02 -0.29773169131E+02  0.60044341846E+02  0.77317455819E+02  0.00000000000E+00 0.  1.
         11    1    3    3    0    0  0.34419028691E+02  0.14920913098E+02  0.25698408995E+01  0.37601958273E+02  0.00000000000E+00 0. -1.
         -2    1    1    2    0  502 -0.27473847249E+02 -0.39097904787E+02 -0.78487633983E+02  0.91889972955E+02  0.00000000000E+00 0.  1.
<scales pt_clust_5="13000.00000" pt_clust_6="13000.00000" pt_clust_7="13000.00000" pt_clust_8="13000.00000" pt_clust_9="47.78555"></scales>
<clustering>
<clus scale="   47.786">  2  9  1 -1</clus>
<clus scale="   74.014">  5  6 -1 -1</clus>
<clus scale="   77.421">  2  5  1 -1</clus>
<clus scale="   95.122">  7  8 -1 -1</clus>
<clus scale="   47.786">  2  5  1 -1</clus>
</clustering>
</event>
<event>
 9    2  0.1170589E-004  0.3757653E+03  0.7546771E-02  0.1085534E+00
          2   -1    0    0  502    0 -0.00000000000E+00  0.00000000000E+00  0.75820850494E+03  0.75820850494E+03  0.00000000000E+00 0. -1.
         21   -1    0    0  501  502  0.00000000000E+00 -0.00000000000E+00 -0.34388911845E+03  0.34388911845E+03  0.00000000000E+00 0.  1.
         24    2    1    2    0    0  0.12808548450E+03  0.24504073182E+02  0.12473123778E+03  0.19621876084E+03  0.77055690803E+02 0.  0.
         23    2    1    2    0    0 -0.39821957408E+03  0.11793020625E+02 -0.10949868536E+03  0.42259819202E+03  0.88777053807E+02 0.  0.
        -13    1    3    3    0    0  0.21515368553E+02 -0.25503923286E+02  0.33533369214E+02  0.47305898551E+02  0.00000000000E+00 0.  1.
         14    1    3    3    0    0  0.10657011595E+03  0.50007996468E+02  0.91197868566E+02  0.14891286229E+03  0.00000000000E+00 0. -1.
        -11    1    4    4    0    0 -0.36077763129E+03 -0.10088519648E+02 -0.78678326346E+02  0.36939485176E+03  0.00000000000E+00 0.  1.
         11    1    4    4    0    0 -0.37441942787E+02  0.21881540273E+02 -0.30820359019E+02  0.53203340256E+02  0.00000000000E+00 0. -1.
          1    1    1    2  501    0  0.27013408958E+03 -0.36297093807E+02  0.39908683408E+03  0.48328067053E+03  0.00000000000E+00 0. -1.
<scales pt_clust_5="13000.00000" pt_clust_6="13000.00000" pt_clust_7="13000.00000" pt_clust_8="13000.00000" pt_clust_9="365.12787"></scales>
<clustering>
<clus scale="   77.056">  5  6 -1 -1</clus>
<clus scale="   88.777">  7  8 -1 -1</clus>
<clus scale="  151.473">  1  5  2 -1</clus>
<clus scale="  365.128">  2  9  1 -1</clus>
<clus scale="  365.128">  2  5  1 -1</clus>
</clustering>
</event>
<event>
 9    2  0.9254368E-005  0.1148171E+03  0.7546771E-02  0.1254210E+00
         -1   -1    0    0    0  501 -0.00000000000E+00  0.00000000000E+00  0.17480233653E+03  0.17480233653E+03  0.00000000000E+00 0.  1.
         21   -1    0    0  501  502  0.00000000000E+00 -0.00000000000E+00 -0.16746649936E+03  0.16746649936E+03  0.00000000000E+00 0.  1.
         23    2    1    2    0    0 -0.64095102878E+02  0.52790082908E+02 -0.32542535381E+02  0.12539250397E+03  0.88143566852E+02 0.  0.
         24    2    1    2    0    0  0.25757224273E+02 -0.63103073740E+02 -0.50984933880E+02  0.11771842163E+03  0.81318698905E+02 0.  0.
        -11    1    4    4    0    0  0.31153589809E+02  0.58370034397E+01 -0.34060057065E+02  0.46526382348E+02  0.00000000000E+00 0.  1.
         12    1    4    4    0    0 -0.53963655357E+01 -0.68940077180E+02 -0.16924876815E+02  0.71192039286E+02  0.00000000000E+00 0. -1.
        -13    1    3    3    0    0 -0.27977031479E+02  0.10337720658E+02  0.29527318643E+02  0.41969575945E+02  0.00000000000E+00 0. -1.
         13    1    3    3    0    0 -0.36118071400E+02  0.42452362251E+02 -0.62069854024E+02  0.83422928028E+02  0.00000000000E+00 0.  1.
         -2    1    1    2    0  502  0.38337878605E+02  0.10312990832E+02  0.90863306436E+02  0.99157910286E+02  0.00000000000E+00 0.  1.
<scales pt_clust_5="13000.00000" pt_clust_6="13000.00000" pt_clust_7="13000.00000" pt_clust_8="13000.00000" pt_clust_9="39.70078"></scales>
<clustering>
<clus scale="   39.701">  2  9  1 -1</clus>
<clus scale="   81.319">  5  6 -1 -1</clus>
<clus scale="   88.144">  7  8 -1 -1</clus>
<clus scale="  109.665">  2  5  1 -1</clus>
<clus scale="   39.701">  2  5  1 -1</clus>
</clustering>
</event>
<event>
 9    2  0.9254368E-005  0.2215759E+03  0.7546771E-02  0.1168426E+00
         21   -1    0    0  501  502  0.00000000000E+00  0.00000000000E+00  0.50240473691E+03  0.50240473691E+03  0.00000000000E+00 0. -1.
          2   -1    0    0  502    0 -0.00000000000E+00 -0.00000000000E+00 -0.21822550212E+03  0.21822550212E+03  0.00000000000E+00 0. -1.
         24    2    1    2    0    0  0.28677478690E+02 -0.44407294455E+02 -0.98255062356E+02  0.13676082994E+03  0.79088948288E+02 0.  0.
         23    2    1    2    0    0  0.17537725697E+03 -0.59506082778E+02  0.22857185677E+03  0.30798904432E+03  0.91181146979E+02 0.  0.
        -13    1    3    3    0    0  0.35725549394E+02  0.12430844223E+02 -0.40733658150E+02  0.55588413126E+02  0.00000000000E+00 0.  1.
         14    1    3    3    0    0 -0.70480707041E+01 -0.56838138677E+02 -0.57521404206E+02  0.81172416810E+02  0.00000000000E+00 0. -1.
        -11    1    4    4    0    0  0.13485516091E+02 -0.31265625495E+02  0.11950926162E+02  0.36086328685E+02  0.00000000000E+00 0.  1.
         11    1    4    4    0    0  0.16189174087E+03 -0.28240457283E+02  0.21662093061E+03  0.27190271564E+03  0.00000000000E+00 0. -1.
          1    1    1    2  501    0 -0.20405473566E+03  0.10391337723E+03  0.15386244037E+03  0.27588036478E+03  0.00000000000E+00 0. -1.
<scales pt_clust_5="13000.00000" pt_clust_6="13000.00000" pt_clust_7="13000.00000" pt_clust_8="13000.00000" pt_clust_9="201.94539"></scales>
<clustering>
<clus scale="   79.089">  5  6 -1 -1</clus>
<clus scale="   91.181">  7  8 -1 -1</clus>
<clus scale="   95.129">  2  5  1 -1</clus>
<clus scale="  201.945">  1  9  2 -1</clus>
<clus scale="  201.945">  1  5  2 -1</clus>
</clustering>
</event>
<event>
 9    2  0.9254368E-005  0.1173825E+03  0.7546771E-02  0.1251366E+00
         21   -1    0    0  501  502  0.00000000000E+00  0.00000000000E+00  0.47537287884E+02  0.47537287884E+02  0.00000000000E+00 0.  1.
          2   -1    0    0  502    0 -0.00000000000E+00 -0.00000000000E+00 -0.51119783107E+03  0.51119783107E+03  0.00000000000E+00 0. -1.
         23    2    1    2    0    0  0.64605447848E+02  0.51206153214E+02 -0.36475975024E+03  0.38491291681E+03  0.91172057736E+02 0.  0.
         24    2    1    2    0    0 -0.20399880056E+02 -0.54128761766E+02 -0.63067373851E+02  0.11684231281E+03  0.79552212177E+02 0.  0.
        -11    1    4    4    0    0 -0.45653691443E+02 -0.29095402031E+02 -0.13421736517E+02  0.55775845783E+02  0.00000000000E+00 0.  1.
         12    1    4    4    0    0  0.25253811387E+02 -0.25033359735E+02 -0.49645637333E+02  0.61066467029E+02  0.00000000000E+00 0. -1.
        -13    1    3    3    0    0 -0.13732172394E+02  0.37393002986E+02 -0.16851711053E+03  0.17316127100E+03  0.00000000000E+00 0.  1.
         13    1    3    3    0    0  0.78337620241E+02  0.13813150228E+02 -0.19624263971E+03  0.21175164581E+03  0.00000000000E+00 0. -1.
          1    1    1    2  501    0 -0.44205567792E+02  0.29226085519E+01 -0.35833419094E+02  0.56979889334E+02  0.00000000000E+00 0. -1.
<scales pt_clust_5="13000.00000" pt_clust_6="13000.00000" pt_clust_7="13000.00000" pt_clust_8="13000.00000" pt_clust_9="44.30208"></scales>
<clustering>
<clus scale="   44.302">  1  9  2 -1</clus>
<clus scale="   79.552">  5  6 -1 -1</clus>
<clus scale="   91.172">  7  8 -1 -1</clus>
<clus scale="  108.604">  1  5  2 -1</clus>
<clus scale="   44.302">  1  5  2 -1</clus>
</clustering>
</event>
<event>
 9    2  0.9254368E-005  0.1359463E+03  0.7546771E-02  0.1224171E+00
          4   -1    0    0  502    0 -0.00000000000E+00  0.00000000000E+00  0.11797357016E+03  0.11797357016E+03  0.00000000000E+00 0. -1.
         21   -1    0    0  501  502  0.00000000000E+00 -0.00000000000E+00 -0.27789949330E+03  0.27789949330E+03  0.00000000000E+00 0. -1.
         24    2    1    2    0    0  0.59163790531E+02 -0.39765231172E+02 -0.43372952954E+02  0.10712020731E+03  0.67170663578E+02 0.  0.
         23    2    1    2    0    0 -0.13709806958E+03  0.46982034858E+02 -0.32484300005E+02  0.17389043665E+03  0.90440377763E+02 0.  0.
        -11    1    3    3    0    0  0.24106195506E+02 -0.40933566980E+02  0.45608589357E+01  0.47722814268E+02  0.00000000000E+00 0.  1.
         12    1    3    3    0    0  0.35057595026E+02  0.11683358082E+01 -0.47933811890E+02  0.59397393039E+02  0.00000000000E+00 0. -1.
        -11    1    4    4    0    0 -0.79823551017E+02  0.71165151424E+02 -0.32326161867E+02  0.11171955431E+03  0.00000000000E+00 0.  1.
         11    1    4    4    0    0 -0.57274518563E+02 -0.24183116565E+02 -0.15813813786E+00  0.62170882341E+02  0.00000000000E+00 0. -1.
          3    1    1    2  501    0  0.77934279049E+02 -0.72168036864E+01 -0.84068670186E+02  0.11486241950E+03  0.00000000000E+00 0. -1.
<scales pt_clust_5="13000.00000" pt_clust_6="13000.00000" pt_clust_7="13000.00000" pt_clust_8="13000.00000" pt_clust_9="78.26771"></scales>
<clustering>
<clus scale="   67.171">  5  6 -1 -1</clus>
<clus scale="   78.268">  2  9  1 -1</clus>
<clus scale="   90.440">  7  8 -1 -1</clus>
<clus scale="  121.712">  1  5  2 -1</clus>
<clus scale="   78.268">  2  5  1 -1</clus>
</clustering>
</event>
<event>
 9    2  0.9254368E-005  0.1182382E+03  0.7546771E-02  0.1250693E+00
          2   -1    0    0  502    0 -0.00000000000E+00  0.00000000000E+00  0.40411019809E+03  0.40411019809E+03  0.00000000000E+00 0. -1.
         21   -1    0    0  501  502  0.00000000000E+00 -0.00000000000E+00 -0.14044666311E+03  0.14044666311E+03  0.00000000000E+00 0.  1.
         23    2    1    2    0    0 -0.54914460574E+02  0.37570671869E+02  0.30526361019E+03  0.32614847504E+03  0.93593817650E+02 0.  0.
         24    2    1    2    0    0  0.73547845573E+02 -0.10058425848E+03 -0.20638682566E+02  0.14943523837E+03  0.79865240282E+02 0.  0.
        -13    1    4    4    0    0  0.71685278984E+02 -0.60200364245E+02 -0.43245721038E+02  0.10311670799E+03  0.00000000000E+00 0.  1.
         14    1    4    4    0    0  0.18625665897E+01 -0.40383894239E+02  0.22607038473E+02  0.46318530382E+02  0.00000000000E+00 0. -1.
        -11    1    3    3    0    0 -0.69362870254E+02 -0.53247271267E+01  0.18629065463E+03  0.19885615024E+03  0.00000000000E+00 0. -1.
         11    1    3    3    0    0  0.14448409680E+02  0.42895398996E+02  0.11897295556E+03  0.12729232480E+03  0.00000000000E+00 0.  1.
          1    1    1    2  501    0 -0.18633384999E+02  0.63013586615E+02 -0.20961392647E+02  0.68973147792E+02  0.00000000000E+00 0. -1.
<scales pt_clust_5="13000.00000" pt_clust_6="13000.00000" pt_clust_7="13000.00000" pt_clust_8="13000.00000" pt_clust_9="65.71084"></scales>
<clustering>
<clus scale="   65.711">  2  9  1 -1</clus>
<clus scale="   79.865">  5  6 -1 -1</clus>
<clus scale="   93.594">  7  8 -1 -1</clus>
<clus scale="  107.698">  2  5  1 -1</clus>
<clus scale="   65.711">  2  5  1 -1</clus>
</clustering>
</event>
<event>
 9    2  0.9254368E-005  0.9282273E+02  0.7546771E-02  0.1303424E+00
         21   -1    0    0  501  502  0.00000000000E+00  0.00000000000E+00  0.77323837500E+02  0.77323837500E+02  0.00000000000E+00 0. -1.
          2   -1    0    0  502    0 -0.00000000000E+00 -0.00000000000E+00 -0.31358275025E+03  0.31358275025E+03  0.00000000000E+00 0. -1.
         24    2    1    2    0    0 -0.93362975435E+00 -0.14613821861E+02 -0.23540437933E+03  0.24909394549E+03  0.80113272409E+02 0.  0.
         23    2    1    2    0    0  0.36089159824E+02 -0.71088547098E+01  0.88138378131E+01  0.99371348993E+02  0.91891337957E+02 0.  0.
        -11    1    3    3    0    0  0.20885074541E+02  0.10867528287E+02 -0.19418172452E+02  0.30518108248E+02  0.00000000000E+00 0.  1.
         12    1    3    3    0    0 -0.21818704296E+02 -0.25481350149E+02 -0.21598620688E+03  0.21857583724E+03  0.00000000000E+00 0. -1.
        -13    1    4    4    0    0  0.51839626839E+02 -0.37841131406E+02  0.91874924338E+01  0.64836009703E+02  0.00000000000E+00 0. -1.
         13    1    4    4    0    0 -0.15750467015E+02  0.30732276696E+02 -0.37365462067E+00  0.34535339290E+02  0.00000000000E+00 0.  1.
          1    1    1    2  501    0 -0.35155530070E+02  0.21722676571E+02 -0.96683712286E+01  0.42441293266E+02  0.00000000000E+00 0. -1.
<scales pt_clust_5="13000.00000" pt_clust_6="13000.00000" pt_clust_7="13000.00000" pt_clust_8="13000.00000" pt_clust_9="41.32537"></scales>
<clustering>
<clus scale="   41.325">  1  9  2 -1</clus>
<clus scale="   80.113">  5  6 -1 -1</clus>
<clus scale="   81.180">  2  5  1 -1</clus>
<clus scale="   91.891">  7  8 -1 -1</clus>
<clus scale="   41.325">  1  5  2 -1</clus>
</clustering>
</event>
<event>
 9    2  0.9254368E-005  0.1591375E+03  0.7546771E-02  0.1213767E+00
          2   -1    0    0  502    0 -0.00000000000E+00  0.00000000000E+00  0.94683401500E+03  0.94683401500E+03  0.00000000000E+00 0. -1.
         21   -1    0    0  501  502  0.00000000000E+00 -0.00000000000E+00 -0.50135501345E+02  0.50135501345E+02  0.00000000000E+00 0.  1.
         24    2    1    2    0    0  0.62982754844E+01  0.43423198556E+02  0.13823065241E+03  0.16741199177E+03  0.83629057594E+02 0.  0.
         23    2    1    2    0    0  0.12314050886E+03 -0.49125225056E+02  0.20286615682E+03  0.25904883407E+03  0.91513650286E+02 0.  0.
        -11    1    3    3    0    0 -0.22516154150E+02 -0.36480845290E+01  0.52110698673E+01  0.23397456435E+02  0.00000000000E+00 0.  1.
         12    1    3    3    0    0  0.28814429635E+02  0.47071283085E+02  0.13301958255E+03  0.14401453533E+03  0.00000000000E+00 0. -1.
        -13    1    4    4    0    0  0.10052469343E+03 -0.57840681782E+02  0.20413299996E+03  0.23477870459E+03  0.00000000000E+00 0. -1.
         13    1    4    4    0    0  0.22615815425E+02  0.87154567255E+01 -0.12668431317E+01  0.24270129476E+02  0.00000000000E+00 0.  1.
          1    1    1    2  501    0 -0.12943878434E+03  0.57020265000E+01  0.55560170442E+03  0.57050869051E+03  0.00000000000E+00 0. -1.
<scales pt_clust_5="13000.00000" pt_clust_6="13000.00000" pt_clust_7="13000.00000" pt_clust_8="13000.00000" pt_clust_9="130.19216"></scales>
<clustering>
<clus scale="   83.629">  5  6 -1 -1</clus>
<clus scale="   91.514">  7  8 -1 -1</clus>
<clus scale="   94.441">  1  5  2 -1</clus>
<clus scale="  130.192">  2  9  1 -1</clus>
<clus scale="  130.192">  2  5  1 -1</clus>
</clustering>
</event>
<event>
 9    2  0.9254368E-005  0.3663074E+03  0.7546771E-02  0.1056361E+00
         21   -1    0    0  501  502  0.00000000000E+00  0.00000000000E+00  0.42125308146E+03  0.42125308146E+03  0.00000000000E+00 0. -1.
          2   -1    0    0  502    0 -0.00000000000E+00 -0.00000000000E+00 -0.55202240395E+03  0.55202240395E+03  0.00000000000E+00 0. -1.
         23    2    1    2    0    0 -0.23346684687E+03  0.11511604136E+03  0.16507747908E+02  0.27707815083E+03  0.93495049921E+02 0.  0.
         24    2    1    2    0    0  0.40026869108E+03 -0.20517005963E+03 -0.20036796957E+03  0.49934402622E+03  0.82990089006E+02 0.  0.
        -13    1    4    4    0    0  0.78646671302E+02 -0.10454566356E+02 -0.17442159130E+02  0.81233156899E+02  0.00000000000E+00 0.  1.
         14    1    4    4    0    0  0.32162201978E+03 -0.19471549327E+03 -0.18292581044E+03  0.41811086933E+03  0.00000000000E+00 0. -1.
        -11    1    3    3    0    0 -0.13304456034E+03  0.39638776783E+02 -0.31913708691E+02  0.14244498047E+03  0.00000000000E+00 0. -1.
         11    1    3    3    0    0 -0.10042228654E+03  0.75477264578E+02  0.48421456599E+02  0.13463317036E+03  0.00000000000E+00 0.  1.
          1    1    1    2  501    0 -0.16680184420E+03  0.90054018268E+02  0.53090899161E+02  0.19685330835E+03  0.00000000000E+00 0. -1.
<scales pt_clust_5="13000.00000" pt_clust_6="13000.00000" pt_clust_7="13000.00000" pt_clust_8="13000.00000" pt_clust_9="189.55891"></scales>
<clustering>
<clus scale="   82.990">  5  6 -1 -1</clus>
<clus scale="   93.495">  7  8 -1 -1</clus>
<clus scale="  189.559">  1  9  2 -1</clus>
<clus scale="  363.768">  1  5  2 -1</clus>
<clus scale="  189.559">  1  5  2 -1</clus>
</clustering>
</event>
<event>
 9    2  0.9254368E-005  0.1003374E+03  0.7546771E-02  0.1287187E+00
         21   -1    0    0  501  502  0.00000000000E+00  0.00000000000E+00  0.59313305788E+02  0.59313305788E+02  0.00000000000E+00 0. -1.
          2   -1    0    0  502    0 -0.00000000000E+00 -0.00000000000E+00 -0.30104650798E+03  0.30104650798E+03  0.00000000000E+00 0. -1.
         23    2    1    2    0    0  0.76412409308E+01 -0.50090414561E+02 -0.14009862707E+03  0.17531513922E+03  0.92413930441E+02 0.  0.
         24    2    1    2    0    0 -0.10614356398E+02  0.12192683689E+02 -0.29952235439E+01  0.79333752212E+02  0.77611511895E+02 0.  0.
        -13    1    4    4    0    0  0.14707198989E+02  0.18433196880E+02 -0.32372533542E+02  0.40050784977E+02  0.00000000000E+00 0.  1.
         14    1    4    4    0    0 -0.25321555387E+02 -0.62405131910E+01  0.29377309998E+02  0.39282967235E+02  0.00000000000E+00 0. -1.
        -11    1    3    3    0    0 -0.50061165572E+01 -0.72671808429E+02 -0.12675643736E+03  0.14619660515E+03  0.00000000000E+00 0. -1.
         11    1    3    3    0    0  0.12647357488E+02  0.22581393868E+02 -0.13342189703E+02  0.29118534072E+02  0.00000000000E+00 0.  1.
          1    1    1    2  501    0  0.29731154670E+01  0.37897730872E+02 -0.98639351585E+02  0.10571092234E+03  0.00000000000E+00 0. -1.
<scales pt_clust_5="13000.00000" pt_clust_6="13000.00000" pt_clust_7="13000.00000" pt_clust_8="13000.00000" pt_clust_9="38.01419"></scales>
<clustering>
<clus scale="   38.014">  1  9  2 -1</clus>
<clus scale="   77.612">  5  6 -1 -1</clus>
<clus scale="   86.895">  1  5  2 -1</clus>
<clus scale="   92.414">  7  8 -1 -1</clus>
<clus scale="   38.014">  1  5  2 -1</clus>
</clustering>
</event>
<event>
 9    2  0.9254368E-005  0.9698853E+02  0.7546771E-02  0.1295331E+00
         21   -1    0    0  501  502  0.00000000000E+00  0.00000000000E+00  0.49369465791E+03  0.49369465791E+03  0.00000000000E+00 0. -1.
          4   -1    0    0  502    0 -0.00000000000E+00 -0.00000000000E+00 -0.88089758476E+02  0.88089758476E+02  0.00000000000E+00 0. -1.
         24    2    1    2    0    0  0.28843634611E+02 -0.34124749421E+01 -0.52502744840E+02  0.98388226806E+02  0.77975026229E+02 0.  0.
         23    2    1    2    0    0 -0.46325196864E+01 -0.41467429081E+02  0.33390608723E+03  0.34913372035E+03  0.93059506146E+02 0.  0.
        -11    1    3    3    0    0 -0.11909840774E+02 -0.31435823240E+02 -0.24000051799E+02  0.41304452259E+02  0.00000000000E+00 0.  1.
         12    1    3    3    0    0  0.40753475386E+02  0.28023348298E+02 -0.28502693041E+02  0.57083774546E+02  0.00000000000E+00 0. -1.
        -13    1    4    4    0    0 -0.36387969149E+02  0.49259099077E+01  0.20840852640E+03  0.21161867300E+03  0.00000000000E+00 0.  1.
         13    1    4    4    0    0  0.31755449463E+02 -0.46393338989E+02  0.12549756083E+03  0.13751504735E+03  0.00000000000E+00 0. -1.
          3    1    1    2  501    0 -0.24211114925E+02  0.44879904023E+02  0.12420155705E+03  0.13426246923E+03  0.00000000000E+00 0. -1.
<scales pt_clust_5="13000.00000" pt_clust_6="13000.00000" pt_clust_7="13000.00000" pt_clust_8="13000.00000" pt_clust_9="50.99396"></scales>
<clustering>
<clus scale="   50.994">  1  9  2 -1</clus>
<clus scale="   77.975">  5  6 -1 -1</clus>
<clus scale="   82.624">  2  5  1 -1</clus>
<clus scale="   93.060">  7  8 -1 -1</clus>
<clus scale="   50.994">  1  5  2 -1</clus>
</clustering>
</event>
<event>
 9    2  0.9254368E-005  0.1226192E+03  0.7546771E-02  0.1242001E+00
         -3   -1    0    0    0  501 -0.00000000000E+00  0.00000000000E+00  0.56161869086E+02  0.56161869086E+02  0.00000000000E+00 0.  1.
         21   -1    0    0  501  502  0.00000000000E+00 -0.00000000000E+00 -0.34374616383E+03  0.34374616383E+03  0.00000000000E+00 0. -1.
         24    2    1    2    0    0 -0.87885885376E+02  0.19064908989E+02 -0.74887594829E+02  0.14251549834E+03  0.81333362189E+02 0.  0.
         23    2    1    2    0    0  0.68624840465E+02  0.38505800710E+01 -0.16124273006E+03  0.19786423455E+03  0.91797830156E+02 0.  0.
        -11    1    3    3    0    0 -0.90124290792E+02  0.17233481228E+01 -0.31081999952E+02  0.95349087256E+02  0.00000000000E+00 0.  1.
         12    1    3    3    0    0  0.22384054156E+01  0.17341560867E+02 -0.43805594877E+02  0.47166411085E+02  0.00000000000E+00 0. -1.
        -11    1    4    4    0    0  0.35505919775E+02  0.39101490535E+02 -0.12990445311E+03  0.14023110867E+03  0.00000000000E+00 0. -1.
         11    1    4    4    0    0  0.33118920690E+02 -0.35250910464E+02 -0.31338276942E+02  0.57633125873E+02  0.00000000000E+00 0.  1.
         -4    1    1    2    0  502  0.19261044912E+02 -0.22915489060E+02 -0.51453969863E+02  0.59528300031E+02  0.00000000000E+00 0.  1.
<scales pt_clust_5="13000.00000" pt_clust_6="13000.00000" pt_clust_7="13000.00000" pt_clust_8="13000.00000" pt_clust_9="29.93505"></scales>
<clustering>
<clus scale="   29.935">  2  9  1 -1</clus>
<clus scale="   81.333">  5  6 -1 -1</clus>
<clus scale="   91.798">  7  8 -1 -1</clus>
<clus scale="  114.995">  1  5  2 -1</clus>
<clus scale="   29.935">  2  5  1 -1</clus>
</clustering>
</event>
<event>
 9    2  0.9254368E-005  0.2625624E+03  0.7546771E-02  0.1106200E+00
         21   -1    0    0  501  502  0.00000000000E+00  0.00000000000E+00  0.47518297345E+03  0.47518297345E+03  0.00000000000E+00 0. -1.
          2   -1    0    0  502    0 -0.00000000000E+00 -0.00000000000E+00 -0.32112717412E+03  0.32112717412E+03  0.00000000000E+00 0. -1.
         23    2    1    2    0    0  0.31108906344E+02 -0.24248651904E+03 -0.18237706056E+03  0.31841660343E+03  0.91434485584E+02 0.  0.
         24    2    1    2    0    0 -0.92118570063E+02  0.24390043137E+03  0.30570841607E+03  0.40956953911E+03  0.79475281279E+02 0.  0.
        -13    1    4    4    0    0 -0.37437986863E+02  0.20801678428E+02  0.50286391104E+02  0.66053264992E+02  0.00000000000E+00 0.  1.
         14    1    4    4    0    0 -0.54680583200E+02  0.22309875295E+03  0.25542202497E+03  0.34351627412E+03  0.00000000000E+00 0. -1.
        -11    1    3    3    0    0  0.93899728123E+01 -0.56673910456E+02 -0.97097025907E+02  0.11281815526E+03  0.00000000000E+00 0.  1.
         11    1    3    3    0    0  0.21718933532E+02 -0.18581260858E+03 -0.85280034656E+02  0.20559844817E+03  0.00000000000E+00 0. -1.
          1    1    1    2  501    0  0.61009663719E+02 -0.14139123390E+01  0.30724443812E+02  0.68324005026E+02  0.00000000000E+00 0. -1.
<scales pt_clust_5="13000.00000" pt_clust_6="13000.00000" pt_clust_7="13000.00000" pt_clust_8="13000.00000" pt_clust_9="61.02605"></scales>
<clustering>
<clus scale="   61.026">  1  9  2 -1</clus>
<clus scale="   79.475">  5  6 -1 -1</clus>
<clus scale="   91.434">  7  8 -1 -1</clus>
<clus scale="  258.641">  1  5  2 -1</clus>
<clus scale="   61.026">  1  5  2 -1</clus>
</clustering>
</event>
<event>
 9    2  0.9254368E-005  0.8874026E+02  0.7546771E-02  0.1309171E+00
          2   -1    0    0  502    0 -0.00000000000E+00  0.00000000000E+00  0.20756207577E+03  0.20756207577E+03  0.00000000000E+00 0. -1.
         21   -1    0    0  501  502  0.00000000000E+00 -0.00000000000E+00 -0.98794923615E+02  0.98794923615E+02  0.00000000000E+00 0. -1.
         23    2    1    2    0    0  0.32798847712E+02  0.71243445826E+01  0.10804513723E+03  0.14121995239E+03  0.84515102668E+02 0.  0.
         24    2    1    2    0    0  0.18668828049E+02 -0.51066060446E+02 -0.10255551479E+02  0.96578291132E+02  0.79157578990E+02 0.  0.
        -13    1    4    4    0    0 -0.21171656392E+02  0.76967452321E+01  0.68607303168E+01  0.23548854367E+02  0.00000000000E+00 0.  1.
         14    1    4    4    0    0  0.39840484440E+02 -0.58762805678E+02 -0.17116281795E+02  0.73029436764E+02  0.00000000000E+00 0. -1.
        -13    1    3    3    0    0  0.48157433478E+02 -0.25365897742E+02  0.72660420132E+02  0.90786033184E+02  0.00000000000E+00 0. -1.
         13    1    3    3    0    0 -0.15358585766E+02  0.32490242325E+02  0.35384717094E+02  0.50433919210E+02  0.00000000000E+00 0.  1.
          1    1    1    2  501    0 -0.51467675760E+02  0.43941715863E+02  0.10977566412E+02  0.68558755863E+02  0.00000000000E+00 0. -1.
<scales pt_clust_5="13000.00000" pt_clust_6="13000.00000" pt_clust_7="13000.00000" pt_clust_8="13000.00000" pt_clust_9="67.67419"></scales>
<clustering>
<clus scale="   67.674">  2  9  1 -1</clus>
<clus scale="   79.158">  5  6 -1 -1</clus>
<clus scale="   83.654">  2  5  1 -1</clus>
<clus scale="   84.515">  7  8 -1 -1</clus>
<clus scale="   67.674">  2  5  1 -1</clus>
</clustering>
</event>
<event>
 9    2  0.9254368E-005  0.1715937E+03  0.7546771E-02  0.1177998E+00
          2   -1    0    0  502    0 -0.00000000000E+00  0.00000000000E+00  0.20793571837E+03  0.20793571837E+03  0.00000000000E+00 0. -1.
         21   -1    0    0  501  502  0.00000000000E+00 -0.00000000000E+00 -0.28718582762E+03  0.28718582762E+03  0.00000000000E+00 0. -1.
         24    2    1    2    0    0  0.70936233637E+02  0.11535185702E+03  0.74034857601E+02  0.17399299075E+03  0.80339283840E+02 0.  0.
         23    2    1    2    0    0 -0.63922245514E+02 -0.17102000808E+03 -0.16563559156E+03  0.26367703653E+03  0.93576352587E+02 0.  0.
        -13    1    3    3    0    0  0.59048526347E+02  0.21479805510E+02  0.29388013967E+02  0.69366893208E+02  0.00000000000E+00 0.  1.
         14    1    3    3    0    0  0.11887707290E+02  0.93872051510E+02  0.44646843634E+02  0.10462609754E+03  0.00000000000E+00 0. -1.
        -13    1    4    4    0    0 -0.58141086098E+02 -0.61814531423E+02 -0.11562900322E+03  0.14342764229E+03  0.00000000000E+00 0.  1.
         13    1    4    4    0    0 -0.57811594165E+01 -0.10920547666E+03 -0.50006588346E+02  0.12024939424E+03  0.00000000000E+00 0. -1.
          1    1    1    2  501    0 -0.70139881229E+01  0.55668151062E+02  0.12350624710E+02  0.57451518716E+02  0.00000000000E+00 0. -1.
<scales pt_clust_5="13000.00000" pt_clust_6="13000.00000" pt_clust_7="13000.00000" pt_clust_8="13000.00000" pt_clust_9="56.10831"></scales>
<clustering>
<clus scale="   56.108">  2  9  1 -1</clus>
<clus scale="   80.339">  5  6 -1 -1</clus>
<clus scale="   93.576">  7  8 -1 -1</clus>
<clus scale="  164.749">  1  5  2 -1</clus>
<clus scale="   56.108">  2  5  1 -1</clus>
</clustering>
</event>
<event>
 9    2  0.9254368E-005  0.1024395E+03  0.7546771E-02  0.1279725E+00
          2   -1    0    0  502    0 -0.00000000000E+00  0.00000000000E+00  0.16831747642E+04  0.16831747642E+04  0.00000000000E+00 0. -1.
         21   -1    0    0  501  502  0.00000000000E+00 -0.00000000000E+00 -0.72774303756E+02  0.72774303756E+02  0.00000000000E+00 0.  1.
         24    2    1    2    0    0 -0.36908034179E+02  0.37463209492E+02  0.15729060003E+04  0.15757841954E+04  0.79352692520E+02 0.  0.
         23    2    1    2    0    0  0.74855572833E+01  0.33559514484E+02  0.21953429752E+01  0.95572100124E+02  0.89145567535E+02 0.  0.
        -13    1    3    3    0    0  0.53614453927E+01  0.20265443212E+02  0.10010141026E+03  0.10227280001E+03  0.00000000000E+00 0.  1.
         14    1    3    3    0    0 -0.42269479571E+02  0.17197766279E+02  0.14728045900E+04  0.14735113954E+04  0.00000000000E+00 0. -1.
        -11    1    4    4    0    0  0.39718615960E+02  0.44182252720E+02  0.11205019078E+02  0.60458186888E+02  0.00000000000E+00 0.  1.
         11    1    4    4    0    0 -0.32233058677E+02 -0.10622738236E+02 -0.90096761026E+01  0.35113913236E+02  0.00000000000E+00 0. -1.
          1    1    1    2  501    0  0.29422476895E+02 -0.71022723976E+02  0.35299117188E+02  0.84592772397E+02  0.00000000000E+00 0. -1.
<scales pt_clust_5="13000.00000" pt_clust_6="13000.00000" pt_clust_7="13000.00000" pt_clust_8="13000.00000" pt_clust_9="76.87594"></scales>
<clustering>
<clus scale="   76.876">  2  9  1 -1</clus>
<clus scale="   79.353">  5  6 -1 -1</clus>
<clus scale="   89.146">  7  8 -1 -1</clus>
<clus scale="   94.041">  1  5  2 -1</clus>
<clus scale="   76.876">  2  5  1 -1</clus>
</clustering>
</event>
<event>
 9    2  0.9254368E-005  0.1870017E+03  0.7546771E-02  0.1162489E+00
         -1   -1    0    0    0  501 -0.00000000000E+00  0.00000000000E+00  0.34234205787E+03  0.34234205787E+03  0.00000000000E+00 0.  1.
         21   -1    0    0  501  502  0.00000000000E+00 -0.00000000000E+00 -0.18363085693E+03  0.18363085693E+03  0.00000000000E+00 0.  1.
         23    2    1    2    0    0 -0.10980845850E+03  0.13868899046E+03  0.20798360950E+03  0.28823530687E+03  0.92357331447E+02 0.  0.
         24    2    1    2    0    0  0.54572027547E+02 -0.12702028304E+03  0.40812142485E+01  0.16005986913E+03  0.80562068623E+02 0.  0.
        -11    1    4    4    0    0  0.47925845315E+02 -0.13769200145E+03 -0.26108095495E+01  0.14581766093E+03  0.00000000000E+00 0.  1.
         12    1    4    4    0    0  0.66461822313E+01  0.10671718404E+02  0.66920237980E+01  0.14242208202E+02  0.00000000000E+00 0. -1.
        -13    1    3    3    0    0 -0.83471281365E+02  0.79447187319E+02  0.67590712399E+02  0.13359571396E+03  0.00000000000E+00 0.  1.
         13    1    3    3    0    0 -0.26337177136E+02  0.59241803144E+02  0.14039289710E+03  0.15463959291E+03  0.00000000000E+00 0. -1.
         -2    1    1    2    0  502  0.55236430955E+02 -0.11668707421E+02 -0.53353622812E+02  0.77677738798E+02  0.00000000000E+00 0.  1.
<scales pt_clust_5="13000.00000" pt_clust_6="13000.00000" pt_clust_7="13000.00000" pt_clust_8="13000.00000" pt_clust_9="56.45549"></scales>
<clustering>
<clus scale="   56.455">  2  9  1 -1</clus>
<clus scale="   80.562">  5  6 -1 -1</clus>
<clus scale="   92.357">  7  8 -1 -1</clus>
<clus scale="  181.466">  2  5  1 -1</clus>
<clus scale="   56.455">  2  5  1 -1</clus>
</clustering>
</event>
<event>
 9    2  0.9254368E-005  0.1028305E+03  0.7546771E-02  0.1279423E+00
         21   -1    0    0  501  502  0.00000000000E+00  0.00000000000E+00  0.20748383408E+03  0.20748383408E+03  0.00000000000E+00 0.  1.
          2   -1    0    0  502    0 -0.00000000000E+00 -0.00000000000E+00 -0.28714401206E+03  0.28714401206E+03  0.00000000000E+00 0. -1.
         23    2    1    2    0    0  0.44303240580E+02  0.35502585217E-01 -0.18185942924E+03  0.20911302607E+03  0.93234260256E+02 0.  0.
         24    2    1    2    0    0 -0.27313777422E+02  0.70593745263E+02  0.15808433490E+03  0.19386180547E+03  0.82838537958E+02 0.  0.
        -11    1    4    4    0    0 -0.11246768673E+02  0.32168715405E+02  0.14681086336E+03  0.15071411897E+03  0.00000000000E+00 0.  1.
         12    1    4    4    0    0 -0.16067008749E+02  0.38425029857E+02  0.11273471543E+02  0.43147686500E+02  0.00000000000E+00 0. -1.
        -11    1    3    3    0    0 -0.18457287039E+02 -0.28523781089E+02 -0.52745095028E+02  0.62740119397E+02  0.00000000000E+00 0.  1.
         11    1    3    3    0    0  0.62760527619E+02  0.28559283675E+02 -0.12911433421E+03  0.14637290668E+03  0.00000000000E+00 0. -1.
          1    1    1    2  501    0 -0.16989463158E+02 -0.70629247848E+02 -0.55885083643E+02  0.91653014592E+02  0.00000000000E+00 0. -1.
<scales pt_clust_5="13000.00000" pt_clust_6="13000.00000" pt_clust_7="13000.00000" pt_clust_8="13000.00000" pt_clust_9="72.64391"></scales>
<clustering>
<clus scale="   72.644">  1  9  2 -1</clus>
<clus scale="   82.839">  5  6 -1 -1</clus>
<clus scale="   93.234">  7  8 -1 -1</clus>
<clus scale="   93.508">  1  5  2 -1</clus>
<clus scale="   72.644">  1  5  2 -1</clus>
</clustering>
</event>
<event>
 9    2  0.9254368E-005  0.1562236E+03  0.7546771E-02  0.1214185E+00
          2   -1    0    0  502    0 -0.00000000000E+00  0.00000000000E+00  0.16395959783E+03  0.16395959783E+03  0.00000000000E+00 0. -1.
         21   -1    0    0  501  502  0.00000000000E+00 -0.00000000000E+00 -0.23476650550E+03  0.23476650550E+03  0.00000000000E+00 0. -1.
         24    2    1    2    0    0 -0.43297654744E+02 -0.38102904675E+02  0.10766754381E+02  0.99526424478E+02  0.80393208161E+02 0.  0.
         23    2    1    2    0    0 -0.38996831688E+02  0.12879984429E+03 -0.35765091095E+02  0.16844516641E+03  0.94786494692E+02 0.  0.
        -13    1    3    3    0    0 -0.26890176275E+01 -0.30531093154E+02 -0.28994678937E+02  0.42190874270E+02  0.00000000000E+00 0.  1.
         14    1    3    3    0    0 -0.40608637116E+02 -0.75718115209E+01  0.39761433318E+02  0.57335550208E+02  0.00000000000E+00 0. -1.
        -13    1    4    4    0    0  0.24859309976E+02  0.10485363922E+02  0.60418210905E+01  0.27648358923E+02  0.00000000000E+00 0.  1.
         13    1    4    4    0    0 -0.63856141664E+02  0.11831448036E+03 -0.41806912185E+02  0.14079680749E+03  0.00000000000E+00 0. -1.
          1    1    1    2  501    0  0.82294486432E+02 -0.90696939611E+02 -0.45808570957E+02  0.13075451245E+03  0.00000000000E+00 0. -1.
<scales pt_clust_5="13000.00000" pt_clust_6="13000.00000" pt_clust_7="13000.00000" pt_clust_8="13000.00000" pt_clust_9="124.18269"></scales>
<clustering>
<clus scale="   80.393">  5  6 -1 -1</clus>
<clus scale="   94.786">  7  8 -1 -1</clus>
<clus scale="   98.942">  1  5  2 -1</clus>
<clus scale="  124.183">  2  9  1 -1</clus>
<clus scale="  124.183">  2  5  1 -1</clus>
</clustering>
</event>
<event>
 9    2  0.9254368E-005  0.1322601E+03  0.7546771E-02  0.1242206E+00
          2   -1    0    0  502    0 -0.00000000000E+00  0.00000000000E+00  0.54268927819E+03  0.54268927819E+03  0.00000000000E+00 0. -1.
         21   -1    0    0  501  502  0.00000000000E+00 -0.00000000000E+00 -0.78659572202E+02  0.78659572202E+02  0.00000000000E+00 0.  1.
         23    2    1    2    0    0  0.18587588288E+02  0.31089681750E+01  0.82200227569E+02  0.12281967820E+03  0.89289595251E+02 0.  0.
         24    2    1    2    0    0 -0.97975167848E+02  0.46323725761E+02  0.34791511671E+02  0.13911112954E+03  0.79977721860E+02 0.  0.
        -11    1    4    4    0    0 -0.85317411081E+02  0.44963496350E+02 -0.57559215925E+01  0.96612148671E+02  0.00000000000E+00 0.  1.
         12    1    4    4    0    0 -0.12657756767E+02  0.13602294117E+01  0.40547433264E+02  0.42498980867E+02  0.00000000000E+00 0. -1.
        -13    1    3    3    0    0  0.39498493408E+01 -0.42157763711E+02  0.28311218201E+02  0.50935286659E+02  0.00000000000E+00 0.  1.
         13    1    3    3    0    0  0.14637738947E+02  0.45266731886E+02  0.53889009367E+02  0.71884391545E+02  0.00000000000E+00 0. -1.
          1    1    1    2  501    0  0.79387579560E+02 -0.49432693936E+02  0.34703796675E+03  0.35941804265E+03  0.00000000000E+00 0. -1.
<scales pt_clust_5="13000.00000" pt_clust_6="13000.00000" pt_clust_7="13000.00000" pt_clust_8="13000.00000" pt_clust_9="105.33904"></scales>
<clustering>
<clus scale="   79.978">  5  6 -1 -1</clus>
<clus scale="   89.290">  7  8 -1 -1</clus>
<clus scale="   91.257">  1  7  2 -1</clus>
<clus scale="  105.339">  2  9  1 -1</clus>
<clus scale="  105.339">  2  5  1 -1</clus>
</clustering>
</event>
<event>
 9    2  0.9254368E-005  0.2809052E+03  0.7546771E-02  0.1095437E+00
          2   -1    0    0  502    0 -0.00000000000E+00  0.00000000000E+00  0.24615412438E+03  0.24615412438E+03  0.00000000000E+00 0. -1.
         21   -1    0    0  501  502  0.00000000000E+00 -0.00000000000E+00 -0.51624874709E+03  0.51624874709E+03  0.00000000000E+00 0. -1.
         23    2    1    2    0    0  0.19432505813E+03 -0.19839164431E+03  0.80100592150E+02  0.30185083700E+03  0.87042232193E+02 0.  0.
         24    2    1    2    0    0 -0.17293732017E+03  0.16264757307E+03 -0.26058014416E+03  0.36172928983E+03  0.81145042078E+02 0.  0.
        -11    1    4    4    0    0 -0.37877554343E+02  0.80955457663E+02 -0.12489991694E+03  0.15358543062E+03  0.00000000000E+00 0.  1.
         12    1    4    4    0    0 -0.13505976583E+03  0.81692115409E+02 -0.13568022722E+03  0.20814385920E+03  0.00000000000E+00 0. -1.
        -13    1    3    3    0    0  0.15495998659E+03 -0.15818332482E+03  0.24573891061E+02  0.22279685324E+03  0.00000000000E+00 0. -1.
         13    1    3    3    0    0  0.39365071542E+02 -0.40208319499E+02  0.55526701089E+02  0.79053983760E+02  0.00000000000E+00 0.  1.
          1    1    1    2  501    0 -0.21387737960E+02  0.35744071243E+02 -0.89615070694E+02  0.98822744647E+02  0.00000000000E+00 0. -1.
<scales pt_clust_5="13000.00000" pt_clust_6="13000.00000" pt_clust_7="13000.00000" pt_clust_8="13000.00000" pt_clust_9="41.65422"></scales>
<clustering>
<clus scale="   41.654">  2  9  1 -1</clus>
<clus scale="   81.145">  5  6 -1 -1</clus>
<clus scale="   87.042">  7  8 -1 -1</clus>
<clus scale="  279.134">  2  5  1 -1</clus>
<clus scale="   41.654">  2  5  1 -1</clus>
</clustering>
</event>
<event>
 9    2  0.9744772E-005  0.2065486E+03  0.7546771E-02  0.1174678E+00
         -1   -1    0    0    0  501 -0.00000000000E+00  0.00000000000E+00  0.28107894594E+03  0.28107894594E+03  0.00000000000E+00 0.  1.
         21   -1    0    0  501  502  0.00000000000E+00 -0.00000000000E+00 -0.39821507881E+03  0.39821507881E+03  0.00000000000E+00 0.  1.
         24    2    1    2    0    0 -0.60257715048E+02 -0.96805137444E+01 -0.37192828177E+02  0.10840956401E+03  0.81514554106E+02 0.  0.
         23    2    1    2    0    0 -0.11481808916E+03  0.11618142460E+03 -0.23791745149E+03  0.31213784282E+03  0.11892855913E+03 0.  0.
        -13    1    3    3    0    0 -0.77630288229E+02 -0.21185068790E+02 -0.33883551735E+02  0.87311877018E+02  0.00000000000E+00 0.  1.
         14    1    3    3    0    0  0.17372573181E+02  0.11504555045E+02 -0.33092764419E+01  0.21097686989E+02  0.00000000000E+00 0. -1.
        -11    1    4    4    0    0 -0.20554179539E+02  0.10497746554E+03 -0.13213699923E+03  0.17000861487E+03  0.00000000000E+00 0.  1.
         11    1    4    4    0    0 -0.94263909618E+02  0.11203959068E+02 -0.10578045226E+03  0.14212922794E+03  0.00000000000E+00 0. -1.
         -2    1    1    2    0  502  0.17507580420E+03 -0.10650091086E+03  0.15797414680E+03  0.25874661793E+03  0.00000000000E+00 0.  1.
<scales pt_clust_5="13000.00000" pt_clust_6="13000.00000" pt_clust_7="13000.00000" pt_clust_8="13000.00000" pt_clust_9="168.87374"></scales>
<clustering>
<clus scale="   81.515">  5  6 -1 -1</clus>
<clus scale="  101.830">  1  5  2 -1</clus>
<clus scale="  118.929">  7  8 -1 -1</clus>
<clus scale="  168.874">  2  9  1 -1</clus>
<clus scale="  168.874">  2  5  1 -1</clus>
</clustering>
</event>
<event>
 9    2  0.9254368E-005  0.1188850E+03  0.7546771E-02  0.1249483E+00
         -1   -1    0    0    0  501 -0.00000000000E+00  0.00000000000E+00  0.72263668527E+03  0.72263668527E+03  0.00000000000E+00 0.  1.
         21   -1    0    0  501  502  0.00000000000E+00 -0.00000000000E+00 -0.59375933917E+02  0.59375933917E+02  0.00000000000E+00 0.  1.
         24    2    1    2    0    0 -0.38911714688E+02 -0.93092073763E+02  0.46014716916E+03  0.47773627896E+03  0.79475022551E+02 0.  0.
         23    2    1    2    0    0  0.49642517105E+02  0.86066356712E+01  0.19083557887E+03  0.21823164989E+03  0.93104141541E+02 0.  0.
        -11    1    3    3    0    0 -0.33761302761E+02 -0.77182100145E+02  0.45074841479E+03  0.45855319820E+03  0.00000000000E+00 0.  1.
         12    1    3    3    0    0 -0.51504119271E+01 -0.15909973618E+02  0.93987543702E+01  0.19183080755E+02  0.00000000000E+00 0. -1.
        -11    1    4    4    0    0 -0.62676281734E+01  0.30667789201E+02  0.20036039979E+02  0.37165028662E+02  0.00000000000E+00 0.  1.
         11    1    4    4    0    0  0.55910145278E+02 -0.22061153530E+02  0.17079953889E+03  0.18106662123E+03  0.00000000000E+00 0. -1.
         -2    1    1    2    0  502 -0.10730802416E+02  0.84485438092E+02  0.12278003332E+02  0.86044690341E+02  0.00000000000E+00 0.  1.
<scales pt_clust_5="13000.00000" pt_clust_6="13000.00000" pt_clust_7="13000.00000" pt_clust_8="13000.00000" pt_clust_9="85.16419"></scales>
<clustering>
<clus scale="   79.475">  5  6 -1 -1</clus>
<clus scale="   85.164">  2  9  1 -1</clus>
<clus scale="   93.104">  7  8 -1 -1</clus>
<clus scale="  108.543">  1  5  2 -1</clus>
<clus scale="   85.164">  2  5  1 -1</clus>
</clustering>
</event>
<event>
 9    2  0.9254368E-005  0.1120059E+03  0.7546771E-02  0.1261419E+00
          2   -1    0    0  502    0 -0.00000000000E+00  0.00000000000E+00  0.11227982229E+04  0.11227982229E+04  0.00000000000E+00 0. -1.
         21   -1    0    0  501  502  0.00000000000E+00 -0.00000000000E+00 -0.14429131900E+02  0.14429131900E+02  0.00000000000E+00 0. -1.
         23    2    1    2    0    0  0.15645698464E+02 -0.60159673035E+02  0.53312532878E+03  0.54462998702E+03  0.92386321725E+02 0.  0.
         24    2    1    2    0    0  0.16463313667E+02  0.67306621131E+02  0.37897047850E+03  0.39358664086E+03  0.80564249757E+02 0.  0.
        -13    1    4    4    0    0  0.41458143775E+02  0.16247511574E+02  0.22711614452E+03  0.23144006226E+03  0.00000000000E+00 0.  1.
         14    1    4    4    0    0 -0.24994830107E+02  0.51059109558E+02  0.15185433398E+03  0.16214657860E+03  0.00000000000E+00 0. -1.
        -11    1    3    3    0    0  0.12679918782E+02  0.22869824040E+02  0.87422281756E+02  0.91249463228E+02  0.00000000000E+00 0.  1.
         11    1    3    3    0    0  0.29657796824E+01 -0.83029497075E+02  0.44570304702E+03  0.45338052379E+03  0.00000000000E+00 0. -1.
          1    1    1    2  501    0 -0.32109012132E+02 -0.71469480965E+01  0.19627328373E+03  0.19901072693E+03  0.00000000000E+00 0. -1.
<scales pt_clust_5="13000.00000" pt_clust_6="13000.00000" pt_clust_7="13000.00000" pt_clust_8="13000.00000" pt_clust_9="32.89481"></scales>
<clustering>
<clus scale="   32.895">  2  9  1 -1</clus>
<clus scale="   80.564">  5  6 -1 -1</clus>
<clus scale="   92.386">  7  8 -1 -1</clus>
<clus scale="  102.473">  2  5  1 -1</clus>
<clus scale="   32.895">  2  5  1 -1</clus>
</clustering>
</event>
<event>
 9    2  0.9254368E-005  0.9654228E+02  0.7546771E-02  0.1296910E+00
         -1   -1    0    0    0  501 -0.00000000000E+00  0.00000000000E+00  0.44387231772E+03  0.44387231772E+03  0.00000000000E+00 0.  1.
         21   -1    0    0  501  502  0.00000000000E+00 -0.00000000000E+00 -0.30802220286E+02  0.30802220286E+02  0.00000000000E+00 0. -1.
         23    2    1    2    0    0 -0.10274601190E+02  0.20251970283E+02  0.26314840723E+03  0.28081297795E+03  0.95357929007E+02 0.  0.
         24    2    1    2    0    0 -0.69447436108E+01 -0.88726854782E+01  0.15299737514E+03  0.17299403036E+03  0.79948631819E+02 0.  0.
        -13    1    4    4    0    0  0.36625580105E+02 -0.46579026335E+01  0.72867282625E+02  0.81687024992E+02  0.00000000000E+00 0.  1.
         14    1    4    4    0    0 -0.43570323716E+02 -0.42147828447E+01  0.80130092512E+02  0.91307005367E+02  0.00000000000E+00 0. -1.
        -11    1    3    3    0    0  0.64044538451E+01  0.49771771859E+02  0.22147413638E+03  0.22708817536E+03  0.00000000000E+00 0.  1.
         11    1    3    3    0    0 -0.16679055035E+02 -0.29519801576E+02  0.41674270853E+02  0.53724802588E+02  0.00000000000E+00 0. -1.
         -2    1    1    2    0  502  0.17219344801E+02 -0.11379284805E+02 -0.30756849327E+01  0.20867529702E+02  0.00000000000E+00 0.  1.
<scales pt_clust_5="13000.00000" pt_clust_6="13000.00000" pt_clust_7="13000.00000" pt_clust_8="13000.00000" pt_clust_9="20.63962"></scales>
<clustering>
<clus scale="   20.640">  2  9  1 -1</clus>
<clus scale="   79.949">  5  6 -1 -1</clus>
<clus scale="   81.358">  2  5  1 -1</clus>
<clus scale="   95.358">  7  8 -1 -1</clus>
<clus scale="   20.640">  2  5  1 -1</clus>
</clustering>
</event>
<event>
 9    2  0.9254368E-005  0.9515609E+02  0.7546771E-02  0.1297027E+00
         21   -1    0    0  501  502  0.00000000000E+00  0.00000000000E+00  0.50507624430E+03  0.50507624430E+03  0.00000000000E+00 0. -1.
         -3   -1    0    0    0  501 -0.00000000000E+00 -0.00000000000E+00 -0.69113271957E+02  0.69113271957E+02  0.00000000000E+00 0.  1.
         23    2    1    2    0    0 -0.92997329427E+01  0.29809206200E+02 -0.18802825011E+02  0.98254663520E+02  0.91243404517E+02 0.  0.
         24    2    1    2    0    0 -0.13366132897E+02  0.10009028944E+02  0.37562062312E+03  0.38448436379E+03  0.80365037902E+02 0.  0.
        -11    1    4    4    0    0 -0.41694602912E+02  0.25020301425E+02  0.25964622356E+03  0.26416021048E+03  0.00000000000E+00 0.  1.
         12    1    4    4    0    0  0.28328470015E+02 -0.15011272481E+02  0.11597439957E+03  0.12032415331E+03  0.00000000000E+00 0. -1.
        -13    1    3    3    0    0  0.60076838745E+00  0.60918535376E+02 -0.23449884151E+02  0.65278832264E+02  0.00000000000E+00 0.  1.
         13    1    3    3    0    0 -0.99005013301E+01 -0.31109329176E+02  0.46470591407E+01  0.32975831256E+02  0.00000000000E+00 0. -1.
         -4    1    1    2    0  502  0.22665865840E+02 -0.39818235144E+02  0.79145174228E+02  0.91450488942E+02  0.00000000000E+00 0.  1.
<scales pt_clust_5="13000.00000" pt_clust_6="13000.00000" pt_clust_7="13000.00000" pt_clust_8="13000.00000" pt_clust_9="45.81739"></scales>
<clustering>
<clus scale="   45.817">  1  9  2 -1</clus>
<clus scale="   80.365">  5  6 -1 -1</clus>
<clus scale="   84.781">  1  5  2 -1</clus>
<clus scale="   91.243">  7  8 -1 -1</clus>
<clus scale="   45.817">  1  5  2 -1</clus>
</clustering>
</event>
<event>
 9    2  0.9254368E-005  0.1181320E+03  0.7546771E-02  0.1249596E+00
         21   -1    0    0  501  502  0.00000000000E+00  0.00000000000E+00  0.50396032454E+03  0.50396032454E+03  0.00000000000E+00 0. -1.
         -1   -1    0    0    0  501 -0.00000000000E+00 -0.00000000000E+00 -0.78126061077E+02  0.78126061077E+02  0.00000000000E+00 0.  1.
         24    2    1    2    0    0  0.57549656593E+02 -0.42552667056E+02 -0.10241284149E+01  0.10851840264E+03  0.81562874062E+02 0.  0.
         23    2    1    2    0    0 -0.77618644496E+02  0.58474602677E+02  0.42753204402E+03  0.44794131491E+03  0.91781478561E+02 0.  0.
        -13    1    3    3    0    0  0.55810388094E+02 -0.64286419001E+02  0.66797467920E+01  0.85394157320E+02  0.00000000000E+00 0.  1.
         14    1    3    3    0    0  0.17392684992E+01  0.21733751944E+02 -0.77038752069E+01  0.23124245322E+02  0.00000000000E+00 0. -1.
        -11    1    4    4    0    0 -0.46029445523E+02  0.78894106478E+02  0.35064837374E+03  0.36234965420E+03  0.00000000000E+00 0. -1.
         11    1    4    4    0    0 -0.31589198973E+02 -0.20419503801E+02  0.76883670278E+02  0.85591660707E+02  0.00000000000E+00 0.  1.
         -2    1    1    2    0  502  0.20068987903E+02 -0.15921935621E+02 -0.67365213420E+00  0.25626668074E+02  0.00000000000E+00 0.  1.
<scales pt_clust_5="13000.00000" pt_clust_6="13000.00000" pt_clust_7="13000.00000" pt_clust_8="13000.00000" pt_clust_9="25.61783"></scales>
<clustering>
<clus scale="   25.618">  1  9  2 -1</clus>
<clus scale="   81.563">  5  6 -1 -1</clus>
<clus scale="   91.781">  7  8 -1 -1</clus>
<clus scale="  110.380">  2  5  1 -1</clus>
<clus scale="   25.618">  1  5  2 -1</clus>
</clustering>
</event>
<event>
 9    2  0.9254368E-005  0.2110055E+03  0.7546771E-02  0.1141386E+00
          2   -1    0    0  502    0 -0.00000000000E+00  0.00000000000E+00  0.23447623434E+03  0.23447623434E+03  0.00000000000E+00 0. -1.
         21   -1    0    0  501  502  0.00000000000E+00 -0.00000000000E+00 -0.27128305017E+03  0.27128305017E+03  0.00000000000E+00 0. -1.
         23    2    1    2    0    0 -0.13515156689E+03  0.12540895104E+03  0.31850371931E+02  0.20992818242E+03  0.95194771629E+02 0.  0.
         24    2    1    2    0    0  0.18409709068E+03 -0.81964311716E+02 -0.68577179970E+02  0.23038564857E+03  0.88118274283E+02 0.  0.
        -13    1    4    4    0    0  0.54709329166E+02 -0.67126966263E+02 -0.46498667710E+02  0.98291741241E+02  0.00000000000E+00 0.  1.
         14    1    4    4    0    0  0.12938776152E+03 -0.14837345453E+02 -0.22078512261E+02  0.13209390733E+03  0.00000000000E+00 0. -1.
        -13    1    3    3    0    0 -0.77189059921E+02  0.83573450677E+02  0.65116631875E+02  0.13108336422E+03  0.00000000000E+00 0. -1.
         13    1    3    3    0    0 -0.57962506971E+02  0.41835500367E+02 -0.33266259944E+02  0.78844818193E+02  0.00000000000E+00 0.  1.
          1    1    1    2  501    0 -0.48945523789E+02 -0.43444639328E+02 -0.80007784171E-01  0.65445453521E+02  0.00000000000E+00 0. -1.
<scales pt_clust_5="13000.00000" pt_clust_6="13000.00000" pt_clust_7="13000.00000" pt_clust_8="13000.00000" pt_clust_9="65.44544"></scales>
<clustering>
<clus scale="   65.445">  2  9  1 -1</clus>
<clus scale="   88.118">  5  6 -1 -1</clus>
<clus scale="   95.195">  7  8 -1 -1</clus>
<clus scale="  207.909">  2  5  1 -1</clus>
<clus scale="   65.445">  2  5  1 -1</clus>
</clustering>
</event>
<event>
 9    2  0.9254368E-005  0.2197330E+03  0.7546771E-02  0.1167158E+00
          2   -1    0    0  502    0 -0.00000000000E+00  0.00000000000E+00  0.18257994665E+04  0.18257994665E+04  0.00000000000E+00 0. -1.
         21   -1    0    0  501  502  0.00000000000E+00 -0.00000000000E+00 -0.44626502022E+02  0.44626502022E+02  0.00000000000E+00 0. -1.
         23    2    1    2    0    0  0.42440222961E+02 -0.16085257708E+01  0.43057728330E+03  0.44213342790E+03  0.91002259810E+02 0.  0.
         24    2    1    2    0    0  0.15021771819E+03  0.12419202718E+03  0.41466863951E+03  0.46491139880E+03  0.78762336577E+02 0.  0.
        -13    1    4    4    0    0  0.21071249692E+01  0.28797250071E+02  0.10219839503E+03  0.10619902793E+03  0.00000000000E+00 0.  1.
         14    1    4    4    0    0  0.14811059322E+03  0.95394777109E+02  0.31247024448E+03  0.35871237087E+03  0.00000000000E+00 0. -1.
        -11    1    3    3    0    0 -0.22063829513E+02  0.11421125104E+02  0.49165752018E+02  0.55086530504E+02  0.00000000000E+00 0.  1.
         11    1    3    3    0    0  0.64504052474E+02 -0.13029650875E+02  0.38141153128E+03  0.38704689739E+03  0.00000000000E+00 0. -1.
          1    1    1    2  501    0 -0.19265794115E+03 -0.12258350141E+03  0.93592704168E+03  0.96338114184E+03  0.00000000000E+00 0. -1.
<scales pt_clust_5="13000.00000" pt_clust_6="13000.00000" pt_clust_7="13000.00000" pt_clust_8="13000.00000" pt_clust_9="205.13203"></scales>
<clustering>
<clus scale="   78.762">  5  6 -1 -1</clus>
<clus scale="   91.002">  7  8 -1 -1</clus>
<clus scale="  100.425">  1  7  2 -1</clus>
<clus scale="  205.132">  2  9  1 -1</clus>
<clus scale="  205.132">  2  5  1 -1</clus>
</clustering>
</event>
<event>
 9    2  0.9254368E-005  0.1244889E+03  0.7546771E-02  0.1240526E+00
         -3   -1    0    0    0  501 -0.00000000000E+00  0.00000000000E+00  0.84080429467E+02  0.84080429467E+02  0.00000000000E+00 0.  1.
         21   -1    0    0  501  502  0.00000000000E+00 -0.00000000000E+00 -0.44852198874E+03  0.44852198874E+03  0.00000000000E+00 0.  1.
         24    2    1    2    0    0  0.16985083178E+02  0.79946298523E+02 -0.92251386876E+02  0.14801934868E+03  0.81972589966E+02 0.  0.
         23    2    1    2    0    0  0.38441413765E+02 -0.73295674652E+02 -0.29722419788E+03  0.32340276393E+03  0.96938772927E+02 0.  0.
        -11    1    3    3    0    0  0.66952932449E+01  0.93612368435E+02 -0.91224694473E+02  0.13088180682E+03  0.00000000000E+00 0.  1.
         12    1    3    3    0    0  0.10289789933E+02 -0.13666069912E+02 -0.10266924028E+01  0.17137541859E+02  0.00000000000E+00 0. -1.
        -11    1    4    4    0    0 -0.26098087970E+02 -0.47955356390E+02 -0.16944842285E+03  0.17802694854E+03  0.00000000000E+00 0. -1.
         11    1    4    4    0    0  0.64539501735E+02 -0.25340318261E+02 -0.12777577503E+03  0.14537581538E+03  0.00000000000E+00 0.  1.
         -4    1    1    2    0  502 -0.55426496942E+02 -0.66506238718E+01  0.25034025481E+02  0.61180305597E+02  0.00000000000E+00 0.  1.
<scales pt_clust_5="13000.00000" pt_clust_6="13000.00000" pt_clust_7="13000.00000" pt_clust_8="13000.00000" pt_clust_9="55.82410"></scales>
<clustering>
<clus scale="   55.824">  2  9  1 -1</clus>
<clus scale="   81.973">  5  6 -1 -1</clus>
<clus scale="   96.939">  7  8 -1 -1</clus>
<clus scale="  113.225">  1  5  2 -1</clus>
<clus scale="   55.824">  2  5  1 -1</clus>
</clustering>
</event>
<event>
 9    2  0.9254368E-005  0.1118250E+03  0.7546771E-02  0.1260929E+00
          2   -1    0    0  502    0 -0.00000000000E+00  0.00000000000E+00  0.97485523236E+03  0.97485523236E+03  0.00000000000E+00 0. -1.
         21   -1    0    0  501  502  0.00000000000E+00 -0.00000000000E+00 -0.31354571527E+02  0.31354571527E+02  0.00000000000E+00 0.  1.
         24    2    1    2    0    0 -0.55746917085E+02 -0.83206282635E+02  0.37218246507E+03  0.39343825980E+03  0.79011851861E+02 0.  0.
         23    2    1    2    0    0  0.20778453571E+02  0.47634219290E+01  0.10828555025E+03  0.14184128742E+03  0.89099697541E+02 0.  0.
        -11    1    3    3    0    0 -0.75405386202E+02 -0.55666785574E+02  0.27513389490E+03  0.29066032307E+03  0.00000000000E+00 0.  1.
         12    1    3    3    0    0  0.19658469117E+02 -0.27539497061E+02  0.97048570170E+02  0.10277793673E+03  0.00000000000E+00 0. -1.
        -11    1    4    4    0    0  0.37928038157E+02 -0.24490559630E+02  0.95439390797E+02  0.10557935833E+03  0.00000000000E+00 0.  1.
         11    1    4    4    0    0 -0.17149584587E+02  0.29253981559E+02  0.12846159456E+02  0.36261929090E+02  0.00000000000E+00 0. -1.
          1    1    1    2  501    0  0.34968463515E+02  0.78442860706E+02  0.46303264551E+03  0.47093025667E+03  0.00000000000E+00 0. -1.
<scales pt_clust_5="13000.00000" pt_clust_6="13000.00000" pt_clust_7="13000.00000" pt_clust_8="13000.00000" pt_clust_9="85.88413"></scales>
<clustering>
<clus scale="   79.012">  5  6 -1 -1</clus>
<clus scale="   85.884">  2  9  1 -1</clus>
<clus scale="   89.100">  7  8 -1 -1</clus>
<clus scale="  103.966">  1  5  2 -1</clus>
<clus scale="   85.884">  2  5  1 -1</clus>
</clustering>
</event>
<event>
 9    2  0.9254368E-005  0.9170223E+02  0.7546771E-02  0.1304814E+00
         21   -1    0    0  501  502  0.00000000000E+00  0.00000000000E+00  0.53201806040E+02  0.53201806040E+02  0.00000000000E+00 0. -1.
          2   -1    0    0  502    0 -0.00000000000E+00 -0.00000000000E+00 -0.21732471730E+03  0.21732471730E+03  0.00000000000E+00 0. -1.
         23    2    1    2    0    0  0.15986542680E+02  0.16808431339E+02 -0.11287929263E+03  0.14658748275E+03  0.90598358066E+02 0.  0.
         24    2    1    2    0    0  0.23157848582E+00  0.36080751414E+01 -0.20210401487E+02  0.83406069351E+02  0.80839595753E+02 0.  0.
        -13    1    4    4    0    0  0.36422554615E+02 -0.13375623659E+02 -0.43229262731E+00  0.38803307461E+02  0.00000000000E+00 0.  1.
         14    1    4    4    0    0 -0.36190976130E+02  0.16983698800E+02 -0.19778108859E+02  0.44602761890E+02  0.00000000000E+00 0. -1.
        -11    1    3    3    0    0  0.17729678262E+02 -0.29584608708E+02 -0.13759188030E+02  0.37133621139E+02  0.00000000000E+00 0.  1.
         11    1    3    3    0    0 -0.17431355817E+01  0.46393040047E+02 -0.99120104595E+02  0.10945386161E+03  0.00000000000E+00 0. -1.
          1    1    1    2  501    0 -0.16218121166E+02 -0.20416506480E+02 -0.31033217152E+02  0.40532971243E+02  0.00000000000E+00 0. -1.
<scales pt_clust_5="13000.00000" pt_clust_6="13000.00000" pt_clust_7="13000.00000" pt_clust_8="13000.00000" pt_clust_9="26.07416"></scales>
<clustering>
<clus scale="   26.074">  1  9  2 -1</clus>
<clus scale="   80.840">  5  6 -1 -1</clus>
<clus scale="   82.075">  1  5  2 -1</clus>
<clus scale="   90.598">  7  8 -1 -1</clus>
<clus scale="   26.074">  1  5  2 -1</clus>
</clustering>
</event>
<event>
 9    2  0.9254368E-005  0.1852029E+03  0.7546771E-02  0.1177913E+00
         21   -1    0    0  501  502  0.00000000000E+00  0.00000000000E+00  0.42836401435E+03  0.42836401435E+03  0.00000000000E+00 0. -1.
          2   -1    0    0  502    0 -0.00000000000E+00 -0.00000000000E+00 -0.34107589014E+03  0.34107589014E+03  0.00000000000E+00 0. -1.
         24    2    1    2    0    0 -0.23700518639E+02  0.10012790301E+03 -0.82905160240E+01  0.13154546409E+03  0.81536279784E+02 0.  0.
         23    2    1    2    0    0  0.59331285804E+02  0.13940138179E+03  0.28105426179E+03  0.33286159620E+03  0.94087179970E+02 0.  0.
        -13    1    3    3    0    0 -0.52526704928E+02  0.51772193765E+02 -0.13614337783E+02  0.74998433124E+02  0.00000000000E+00 0.  1.
         14    1    3    3    0    0  0.28826186289E+02  0.48355709248E+02  0.53238217594E+01  0.56547030966E+02  0.00000000000E+00 0. -1.
        -13    1    4    4    0    0  0.47978084723E+02  0.25368009933E+02  0.14587920251E+03  0.15564759641E+03  0.00000000000E+00 0.  1.
         13    1    4    4    0    0  0.11353201081E+02  0.11403337186E+03  0.13517505928E+03  0.17721399980E+03  0.00000000000E+00 0. -1.
          1    1    1    2  501    0 -0.35630767166E+02 -0.23952928481E+03 -0.18547562155E+03  0.30503284420E+03  0.00000000000E+00 0. -1.
<scales pt_clust_5="13000.00000" pt_clust_6="13000.00000" pt_clust_7="13000.00000" pt_clust_8="13000.00000" pt_clust_9="159.52345"></scales>
<clustering>
<clus scale="   81.536">  5  6 -1 -1</clus>
<clus scale="   94.087">  7  8 -1 -1</clus>
<clus scale="  131.284">  2  5  1 -1</clus>
<clus scale="  159.523">  1  9  2 -1</clus>
<clus scale="  159.523">  1  5  2 -1</clus>
</clustering>
</event>
<event>
 9    2  0.9254368E-005  0.1618672E+03  0.7546771E-02  0.1207997E+00
         21   -1    0    0  501  502  0.00000000000E+00  0.00000000000E+00  0.10967942601E+03  0.10967942601E+03  0.00000000000E+00 0. -1.
          2   -1    0    0  502    0 -0.00000000000E+00 -0.00000000000E+00 -0.44613306422E+03  0.44613306422E+03  0.00000000000E+00 0. -1.
         23    2    1    2    0    0 -0.31620684136E+02 -0.33906901051E+02 -0.86241854197E+02  0.13318520102E+03  0.90283413492E+02 0.  0.
         24    2    1    2    0    0 -0.86416203438E+02  0.11363046506E+03 -0.39130591599E+02  0.16798278548E+03  0.79418953734E+02 0.  0.
        -13    1    4    4    0    0 -0.57220653763E+02  0.72502022803E+02 -0.63382013003E+02  0.11201797222E+03  0.00000000000E+00 0.  1.
         14    1    4    4    0    0 -0.29195549676E+02  0.41128442252E+02  0.24251421404E+02  0.55964813259E+02  0.00000000000E+00 0. -1.
        -13    1    3    3    0    0 -0.49958165436E+02 -0.50585956421E+02 -0.42285894833E+02  0.82721546060E+02  0.00000000000E+00 0. -1.
         13    1    3    3    0    0  0.18337481300E+02  0.16679055370E+02 -0.43955959364E+02  0.50463654962E+02  0.00000000000E+00 0.  1.
          1    1    1    2  501    0  0.11803688757E+03 -0.79723564004E+02 -0.21108119242E+03  0.25464450373E+03  0.00000000000E+00 0. -1.
<scales pt_clust_5="13000.00000" pt_clust_6="13000.00000" pt_clust_7="13000.00000" pt_clust_8="13000.00000" pt_clust_9="141.04477"></scales>
<clustering>
<clus scale="   79.419">  5  6 -1 -1</clus>
<clus scale="   90.283">  7  8 -1 -1</clus>
<clus scale="  101.492">  2  7  1 -1</clus>
<clus scale="  141.045">  1  9  2 -1</clus>
<clus scale="  141.045">  1  5  2 -1</clus>
</clustering>
</event>
<event>
 9    2  0.9254368E-005  0.1666471E+03  0.7546771E-02  0.1183405E+00
         -3   -1    0    0    0  501 -0.00000000000E+00  0.00000000000E+00  0.61263700216E+03  0.61263700216E+03  0.00000000000E+00 0.  1.
         21   -1    0    0  501  502  0.00000000000E+00 -0.00000000000E+00 -0.97632697316E+02  0.97632697316E+02  0.00000000000E+00 0.  1.
         23    2    1    2    0    0  0.15449319846E+02  0.15267664571E+03  0.48829263909E+03  0.52043451088E+03  0.94199464428E+02 0.  0.
         24    2    1    2    0    0  0.47352449017E+01 -0.90365844457E+02  0.28091125757E+02  0.12432217067E+03  0.80489020284E+02 0.  0.
        -13    1    4    4    0    0 -0.40561118752E+01 -0.76998604279E+02  0.53815458109E+02  0.94028403347E+02  0.00000000000E+00 0.  1.
         14    1    4    4    0    0  0.87913567768E+01 -0.13367240177E+02 -0.25724332352E+02  0.30293767327E+02  0.00000000000E+00 0. -1.
        -13    1    3    3    0    0 -0.29498959821E+02  0.48351604126E+02  0.90700459072E+02  0.10693287393E+03  0.00000000000E+00 0. -1.
         13    1    3    3    0    0  0.44948279667E+02  0.10432504158E+03  0.39759218002E+03  0.41350163695E+03  0.00000000000E+00 0.  1.
         -4    1    1    2    0  502 -0.20184564748E+02 -0.62310801251E+02 -0.13794600076E+01  0.65513017916E+02  0.00000000000E+00 0.  1.
<scales pt_clust_5="13000.00000" pt_clust_6="13000.00000" pt_clust_7="13000.00000" pt_clust_8="13000.00000" pt_clust_9="65.49849"></scales>
<clustering>
<clus scale="   65.498">  2  9  1 -1</clus>
<clus scale="   80.489">  5  6 -1 -1</clus>
<clus scale="   94.199">  7  8 -1 -1</clus>
<clus scale="  159.299">  2  5  1 -1</clus>
<clus scale="   65.498">  2  5  1 -1</clus>
</clustering>
</event>
<event>
 9    2  0.9254368E-005  0.1571405E+03  0.7546771E-02  0.1193594E+00
         21   -1    0    0  501  502  0.00000000000E+00  0.00000000000E+00  0.10868535628E+04  0.10868535628E+04  0.00000000000E+00 0. -1.
          2   -1    0    0  502    0 -0.00000000000E+00 -0.00000000000E+00 -0.50469837676E+02  0.50469837676E+02  0.00000000000E+00 0. -1.
         24    2    1    2    0    0 -0.98944271528E+02  0.43980518739E+02  0.25990866256E+03  0.29302548233E+03  0.81161354850E+02 0.  0.
         23    2    1    2    0    0  0.12992165981E+03 -0.13214797592E+03  0.67709338446E+03  0.70788011494E+03  0.91082822820E+02 0.  0.
        -11    1    3    3    0    0 -0.14691707619E+02  0.41901237008E+02  0.13685443187E+03  0.14387736256E+03  0.00000000000E+00 0.  1.
         12    1    3    3    0    0 -0.84252563909E+02  0.20792817310E+01  0.12305423069E+03  0.14914811976E+03  0.00000000000E+00 0. -1.
        -11    1    4    4    0    0  0.92130659187E+02 -0.10908850121E+03  0.61660482771E+03  0.63292169580E+03  0.00000000000E+00 0. -1.
         11    1    4    4    0    0  0.37791000619E+02 -0.23059474706E+02  0.60488556758E+02  0.74958419141E+02  0.00000000000E+00 0.  1.
          1    1    1    2  501    0 -0.30977388278E+02  0.88167457182E+02  0.99381678082E+02  0.13641780320E+03  0.00000000000E+00 0. -1.
<scales pt_clust_5="13000.00000" pt_clust_6="13000.00000" pt_clust_7="13000.00000" pt_clust_8="13000.00000" pt_clust_9="93.45110"></scales>
<clustering>
<clus scale="   81.161">  5  6 -1 -1</clus>
<clus scale="   91.083">  7  8 -1 -1</clus>
<clus scale="   93.451">  1  9  2 -1</clus>
<clus scale="  151.606">  2  5  1 -1</clus>
<clus scale="   93.451">  1  5  2 -1</clus>
</clustering>
</event>
<event>
 9    2  0.9254368E-005  0.1397931E+03  0.7546771E-02  0.1232995E+00
         21   -1    0    0  501  502  0.00000000000E+00  0.00000000000E+00  0.35881792271E+03  0.35881792271E+03  0.00000000000E+00 0. -1.
          2   -1    0    0  502    0 -0.00000000000E+00 -0.00000000000E+00 -0.16962336393E+03  0.16962336393E+03  0.00000000000E+00 0. -1.
         23    2    1    2    0    0  0.30728943830E+01  0.23114596370E+02  0.24786175800E+02  0.96490223938E+02  0.90289985932E+02 0.  0.
         24    2    1    2    0    0  0.45245301451E+01  0.10410381427E+03  0.24518221125E+03  0.28106482675E+03  0.89582613279E+02 0.  0.
        -11    1    4    4    0    0  0.25766628328E+02  0.29575099391E+02  0.16482000569E+03  0.16942325671E+03  0.00000000000E+00 0.  1.
         12    1    4    4    0    0 -0.21242098182E+02  0.74528714884E+02  0.80362205558E+02  0.11164157003E+03  0.00000000000E+00 0. -1.
        -11    1    3    3    0    0 -0.38531168398E+02  0.30364121837E+01  0.31433250510E+02  0.49818871672E+02  0.00000000000E+00 0.  1.
         11    1    3    3    0    0  0.41604062781E+02  0.20078184186E+02 -0.66470747094E+01  0.46671352266E+02  0.00000000000E+00 0. -1.
          1    1    1    2  501    0 -0.75974245281E+01 -0.12721841064E+03 -0.80773828270E+02  0.15088623595E+03  0.00000000000E+00 0. -1.
<scales pt_clust_5="13000.00000" pt_clust_6="13000.00000" pt_clust_7="13000.00000" pt_clust_8="13000.00000" pt_clust_9="107.31758"></scales>
<clustering>
<clus scale="   89.583">  5  6 -1 -1</clus>
<clus scale="   90.290">  7  8 -1 -1</clus>
<clus scale="   93.252">  2  7  1 -1</clus>
<clus scale="  107.318">  1  9  2 -1</clus>
<clus scale="  107.318">  1  5  2 -1</clus>
</clustering>
</event>
<event>
 9    2  0.9254368E-005  0.9374554E+02  0.7546771E-02  0.1294481E+00
          2   -1    0    0  502    0 -0.00000000000E+00  0.00000000000E+00  0.30776581502E+03  0.30776581502E+03  0.00000000000E+00 0. -1.
         21   -1    0    0  501  502  0.00000000000E+00 -0.00000000000E+00 -0.64441745152E+02  0.64441745152E+02  0.00000000000E+00 0. -1.
         24    2    1    2    0    0  0.22695072996E+02  0.20650375354E+02  0.21750483229E+03  0.23721894417E+03  0.89571039209E+02 0.  0.
         23    2    1    2    0    0 -0.14396317682E+02  0.56299449240E+01  0.44264365160E+02  0.10182617784E+03  0.90389635623E+02 0.  0.
        -11    1    3    3    0    0  0.44491504862E+02  0.13516738285E+02  0.20670244098E+03  0.21186810833E+03  0.00000000000E+00 0.  1.
         12    1    3    3    0    0 -0.21796431866E+02  0.71336370689E+01  0.10802391302E+02  0.25350835840E+02  0.00000000000E+00 0. -1.
        -13    1    4    4    0    0 -0.37351713079E+02 -0.11840132733E+02 -0.99392430143E+01  0.40424346189E+02  0.00000000000E+00 0.  1.
         13    1    4    4    0    0  0.22955395397E+02  0.17470077657E+02  0.54203608174E+02  0.61401831652E+02  0.00000000000E+00 0. -1.
          1    1    1    2  501    0 -0.82987553139E+01 -0.26280320278E+02 -0.18445127575E+02  0.33162438163E+02  0.00000000000E+00 0. -1.
<scales pt_clust_5="13000.00000" pt_clust_6="13000.00000" pt_clust_7="13000.00000" pt_clust_8="13000.00000" pt_clust_9="27.55947"></scales>
<clustering>
<clus scale="   27.559">  2  9  1 -1</clus>
<clus scale="   89.571">  5  6 -1 -1</clus>
<clus scale="   90.390">  7  8 -1 -1</clus>
<clus scale="   92.957">  1  5  2 -1</clus>
<clus scale="   27.559">  2  5  1 -1</clus>
</clustering>
</event>
<event>
 9    2  0.9254368E-005  0.1338032E+03  0.7546771E-02  0.1226042E+00
         21   -1    0    0  501  502  0.00000000000E+00  0.00000000000E+00  0.51426160042E+02  0.51426160042E+02  0.00000000000E+00 0. -1.
          2   -1    0    0  502    0 -0.00000000000E+00 -0.00000000000E+00 -0.83529135371E+03  0.83529135371E+03  0.00000000000E+00 0. -1.
         24    2    1    2    0    0  0.86597053433E+02 -0.23113412608E+02 -0.60323051047E+03  0.61515130630E+03  0.80565509841E+02 0.  0.
         23    2    1    2    0    0 -0.11114840205E+03  0.28990455565E+02 -0.84566007891E+02  0.17223595663E+03  0.96537046127E+02 0.  0.
        -11    1    3    3    0    0  0.10063475650E+03 -0.17589964850E+02 -0.56282460155E+03  0.57202123491E+03  0.00000000000E+00 0.  1.
         12    1    3    3    0    0 -0.14037703065E+02 -0.55234477577E+01 -0.40405908923E+02  0.43130071393E+02  0.00000000000E+00 0. -1.
        -13    1    4    4    0    0 -0.28361560669E+02  0.55566468017E+02 -0.27127098005E+02  0.68028596470E+02  0.00000000000E+00 0.  1.
         13    1    4    4    0    0 -0.82786841377E+02 -0.26576012452E+02 -0.57438909885E+02  0.10420736016E+03  0.00000000000E+00 0. -1.
          1    1    1    2  501    0  0.24551348613E+02 -0.58770429575E+01 -0.96068675306E+02  0.99330250818E+02  0.00000000000E+00 0. -1.
<scales pt_clust_5="13000.00000" pt_clust_6="13000.00000" pt_clust_7="13000.00000" pt_clust_8="13000.00000" pt_clust_9="25.24498"></scales>
<clustering>
<clus scale="   25.245">  1  9  2 -1</clus>
<clus scale="   80.566">  5  6 -1 -1</clus>
<clus scale="   96.537">  7  8 -1 -1</clus>
<clus scale="  122.779">  2  5  1 -1</clus>
<clus scale="   25.245">  1  5  2 -1</clus>
</clustering>
</event>
<event>
 9    2  0.9254368E-005  0.1644874E+03  0.7546771E-02  0.1189503E+00
          4   -1    0    0  502    0 -0.00000000000E+00  0.00000000000E+00  0.51067135115E+02  0.51067135115E+02  0.00000000000E+00 0. -1.
         21   -1    0    0  501  502  0.00000000000E+00 -0.00000000000E+00 -0.11564237811E+04  0.11564237811E+04  0.00000000000E+00 0. -1.
         23    2    1    2    0    0  0.25657951447E+02  0.10832753551E+03 -0.44592941133E+03  0.46880478506E+03  0.92367208412E+02 0.  0.
         24    2    1    2    0    0  0.12173216712E+03 -0.25462618360E+02 -0.19597116068E+03  0.24534854486E+03  0.79524506914E+02 0.  0.
        -11    1    4    4    0    0  0.57299903792E+02 -0.51820708629E+02 -0.90729922357E+02  0.11916620170E+03  0.00000000000E+00 0.  1.
         12    1    4    4    0    0  0.64432263329E+02  0.26358090269E+02 -0.10524123832E+03  0.12618234316E+03  0.00000000000E+00 0. -1.
        -13    1    3    3    0    0 -0.11959126325E+02  0.91722432289E+02 -0.38006291829E+03  0.39115706200E+03  0.00000000000E+00 0.  1.
         13    1    3    3    0    0  0.37617077772E+02  0.16605103217E+02 -0.65866493036E+02  0.77647723069E+02  0.00000000000E+00 0. -1.
          3    1    1    2  501    0 -0.14739011857E+03 -0.82864917146E+02 -0.46345607398E+03  0.49333758629E+03  0.00000000000E+00 0. -1.
<scales pt_clust_5="13000.00000" pt_clust_6="13000.00000" pt_clust_7="13000.00000" pt_clust_8="13000.00000" pt_clust_9="143.98591"></scales>
<clustering>
<clus scale="   79.525">  5  6 -1 -1</clus>
<clus scale="   92.367">  7  8 -1 -1</clus>
<clus scale="  144.654">  1  7  2 -1</clus>
<clus scale="  143.986">  2  9  1 -1</clus>
<clus scale="  143.986">  2  5  1 -1</clus>
</clustering>
</event>
<event>
 9    2  0.9254368E-005  0.1489262E+03  0.7546771E-02  0.1203323E+00
         21   -1    0    0  501  502  0.00000000000E+00  0.00000000000E+00  0.33294220186E+02  0.33294220186E+02  0.00000000000E+00 0. -1.
          2   -1    0    0  502    0 -0.00000000000E+00 -0.00000000000E+00 -0.22416620268E+04  0.22416620268E+04  0.00000000000E+00 0. -1.
         24    2    1    2    0    0 -0.11217169467E+03  0.64280679782E+02 -0.17840913019E+04  0.17905161991E+04  0.79069533485E+02 0.  0.
         23    2    1    2    0    0  0.10131478420E+03  0.26714082823E+01 -0.38131111501E+03  0.40415007765E+03  0.87563102463E+02 0.  0.
        -11    1    3    3    0    0 -0.38536959976E+02  0.31544295010E+02 -0.28936191449E+03  0.29361617358E+03  0.00000000000E+00 0.  1.
         12    1    3    3    0    0 -0.73634734693E+02  0.32736384772E+02 -0.14947293874E+04  0.14969000256E+04  0.00000000000E+00 0. -1.
        -11    1    4    4    0    0  0.80700446055E+02  0.25456257384E+02 -0.35075022915E+03  0.36081339538E+03  0.00000000000E+00 0. -1.
         11    1    4    4    0    0  0.20614338146E+02 -0.22784849102E+02 -0.30560885856E+02  0.43336682269E+02  0.00000000000E+00 0.  1.
          1    1    1    2  501    0  0.10856910469E+02 -0.66952088065E+02 -0.42965389776E+02  0.80289970231E+02  0.00000000000E+00 0. -1.
<scales pt_clust_5="13000.00000" pt_clust_6="13000.00000" pt_clust_7="13000.00000" pt_clust_8="13000.00000" pt_clust_9="67.82665"></scales>
<clustering>
<clus scale="   67.827">  1  9  2 -1</clus>
<clus scale="   79.070">  5  6 -1 -1</clus>
<clus scale="   87.563">  7  8 -1 -1</clus>
<clus scale="  144.096">  2  5  1 -1</clus>
<clus scale="   67.827">  1  5  2 -1</clus>
</clustering>
</event>
<event>
 9    2  0.9254368E-005  0.1403401E+03  0.7546771E-02  0.1214717E+00
         21   -1    0    0  501  502  0.00000000000E+00  0.00000000000E+00  0.44773966082E+02  0.44773966082E+02  0.00000000000E+00 0.  1.
          2   -1    0    0  502    0 -0.00000000000E+00 -0.00000000000E+00 -0.10408617702E+04  0.10408617702E+04  0.00000000000E+00 0. -1.
         23    2    1    2    0    0 -0.89545423347E+02 -0.30735205254E+01 -0.34289862377E+03  0.36561934960E+03  0.89834365614E+02 0.  0.
         24    2    1    2    0    0  0.15708489753E+03  0.54289042632E+01 -0.22344908865E+03  0.28499492191E+03  0.81163244522E+02 0.  0.
        -13    1    4    4    0    0  0.98194313227E+02 -0.54618364923E+01 -0.71269522927E+02  0.12145492870E+03  0.00000000000E+00 0.  1.
         14    1    4    4    0    0  0.58890584301E+02  0.10890740756E+02 -0.15217956572E+03  0.16353999320E+03  0.00000000000E+00 0. -1.
        -13    1    3    3    0    0 -0.57325920772E+02  0.41825708985E+02 -0.17418166732E+03  0.18808217447E+03  0.00000000000E+00 0. -1.
         13    1    3    3    0    0 -0.32219502575E+02 -0.44899229510E+02 -0.16871695645E+03  0.17753717512E+03  0.00000000000E+00 0.  1.
          1    1    1    2  501    0 -0.67539474181E+02 -0.23553837378E+01 -0.42974009170E+03  0.43502146478E+03  0.00000000000E+00 0. -1.
<scales pt_clust_5="13000.00000" pt_clust_6="13000.00000" pt_clust_7="13000.00000" pt_clust_8="13000.00000" pt_clust_9="67.58057"></scales>
<clustering>
<clus scale="   67.581">  1  9  2 -1</clus>
<clus scale="   81.163">  5  6 -1 -1</clus>
<clus scale="   89.834">  7  8 -1 -1</clus>
<clus scale="  134.954">  1  5  2 -1</clus>
<clus scale="   67.581">  1  5  2 -1</clus>
</clustering>
</event>
<event>
 9    2  0.9254368E-005  0.2059637E+03  0.7546771E-02  0.1185536E+00
         21   -1    0    0  501  502  0.00000000000E+00  0.00000000000E+00  0.24295219667E+03  0.24295219667E+03  0.00000000000E+00 0. -1.
          4   -1    0    0  502    0 -0.00000000000E+00 -0.00000000000E+00 -0.77222358766E+03  0.77222358766E+03  0.00000000000E+00 0. -1.
         24    2    1    2    0    0  0.12372451805E+02  0.17950219871E+02 -0.12612530999E+03  0.14960484206E+03  0.77451449238E+02 0.  0.
         23    2    1    2    0    0 -0.20291843235E+03 -0.19256642109E+02 -0.57136930173E+03  0.61138886298E+03  0.76070719469E+02 0.  0.
        -13    1    3    3    0    0 -0.25724313834E+01  0.42035702836E+02 -0.36926504436E+02  0.56010574413E+02  0.00000000000E+00 0.  1.
         14    1    3    3    0    0  0.14944883188E+02 -0.24085482965E+02 -0.89198805555E+02  0.93594267643E+02  0.00000000000E+00 0. -1.
        -13    1    4    4    0    0 -0.32220250289E+02  0.12875724216E+02 -0.17840705987E+03  0.18174984956E+03  0.00000000000E+00 0.  1.
         13    1    4    4    0    0 -0.17069818206E+03 -0.32132366325E+02 -0.39296224186E+03  0.42963901342E+03  0.00000000000E+00 0. -1.
          3    1    1    2  501    0  0.19054598055E+03  0.13064222384E+01  0.16822322073E+03  0.25418207930E+03  0.00000000000E+00 0. -1.
<scales pt_clust_5="13000.00000" pt_clust_6="13000.00000" pt_clust_7="13000.00000" pt_clust_8="13000.00000" pt_clust_9="191.40087"></scales>
<clustering>
<clus scale="   76.071">  7  8 -1 -1</clus>
<clus scale="   77.451">  5  6 -1 -1</clus>
<clus scale="   80.461">  2  5  1 -1</clus>
<clus scale="  191.401">  1  9  2 -1</clus>
<clus scale="  191.401">  1  5  2 -1</clus>
</clustering>
</event>
<event>
 9    2  0.9254368E-005  0.9195935E+02  0.7546771E-02  0.1304295E+00
         -1   -1    0    0    0  501 -0.00000000000E+00  0.00000000000E+00  0.27794818609E+03  0.27794818609E+03  0.00000000000E+00 0.  1.
         21   -1    0    0  501  502  0.00000000000E+00 -0.00000000000E+00 -0.10995459617E+03  0.10995459617E+03  0.00000000000E+00 0.  1.
         23    2    1    2    0    0 -0.12135122381E+01 -0.78582498158E+01  0.16235351592E+03  0.18566118779E+03  0.89711692771E+02 0.  0.
         24    2    1    2    0    0  0.59913556888E+02  0.59560982848E+01  0.64683925797E+02  0.11896200599E+03  0.79641943771E+02 0.  0.
        -13    1    4    4    0    0 -0.22717015457E+00  0.31219302300E+02  0.72532914746E+01  0.32051625226E+02  0.00000000000E+00 0.  1.
         14    1    4    4    0    0  0.60140727043E+02 -0.25263204016E+02  0.57430634322E+02  0.86910380767E+02  0.00000000000E+00 0. -1.
        -11    1    3    3    0    0  0.42895474805E+02 -0.75716754027E+01  0.10195766220E+03  0.11087252549E+03  0.00000000000E+00 0.  1.
         11    1    3    3    0    0 -0.44108987043E+02 -0.28657441313E+00  0.60395853717E+02  0.74788662303E+02  0.00000000000E+00 0. -1.
         -2    1    1    2    0  502 -0.58700044650E+02  0.19021515310E+01 -0.59043851796E+02  0.83279588479E+02  0.00000000000E+00 0.  1.
<scales pt_clust_5="13000.00000" pt_clust_6="13000.00000" pt_clust_7="13000.00000" pt_clust_8="13000.00000" pt_clust_9="58.73086"></scales>
<clustering>
<clus scale="   58.731">  2  9  1 -1</clus>
<clus scale="   79.642">  5  6 -1 -1</clus>
<clus scale="   82.166">  2  5  1 -1</clus>
<clus scale="   89.712">  7  8 -1 -1</clus>
<clus scale="   58.731">  2  5  1 -1</clus>
</clustering>
</event>
<event>
 9    2  0.9254368E-005  0.2707884E+03  0.7546771E-02  0.1100829E+00
          2   -1    0    0  502    0 -0.00000000000E+00  0.00000000000E+00  0.16925254974E+03  0.16925254974E+03  0.00000000000E+00 0. -1.
         21   -1    0    0  501  502  0.00000000000E+00 -0.00000000000E+00 -0.33619010895E+03  0.33619010895E+03  0.00000000000E+00 0. -1.
         24    2    1    2    0    0  0.10587298313E+03 -0.91381797002E+02 -0.26656945036E+02  0.16125900314E+03  0.75724183688E+02 0.  0.
         23    2    1    2    0    0 -0.25772390300E+01 -0.66964517731E+02 -0.42831519915E+01  0.11129124293E+03  0.88749684875E+02 0.  0.
        -13    1    3    3    0    0  0.27679822948E+02  0.11366281529E+02 -0.48945808490E+01  0.30320321171E+02  0.00000000000E+00 0.  1.
         14    1    3    3    0    0  0.78193160181E+02 -0.10274807853E+03 -0.21762364187E+02  0.13093868197E+03  0.00000000000E+00 0. -1.
        -13    1    4    4    0    0 -0.38332762412E+02 -0.22234895362E+02  0.20582456551E+02  0.48861321754E+02  0.00000000000E+00 0.  1.
         13    1    4    4    0    0  0.35755523382E+02 -0.44729622369E+02 -0.24865608542E+02  0.62429921174E+02  0.00000000000E+00 0. -1.
          1    1    1    2  501    0 -0.10329574410E+03  0.15834631473E+03 -0.13599746218E+03  0.23289241262E+03  0.00000000000E+00 0. -1.
<scales pt_clust_5="13000.00000" pt_clust_6="13000.00000" pt_clust_7="13000.00000" pt_clust_8="13000.00000" pt_clust_9="189.05969"></scales>
<clustering>
<clus scale="   75.724">  5  6 -1 -1</clus>
<clus scale="   88.750">  7  8 -1 -1</clus>
<clus scale="  107.906">  5  7 -1 -1</clus>
<clus scale="  189.060">  2  9  1 -1</clus>
<clus scale="  189.060">  2  5  1 -1</clus>
</clustering>
</event>
<event>
 9    2  0.9254368E-005  0.2122939E+03  0.7546771E-02  0.1177422E+00
          4   -1    0    0  502    0 -0.00000000000E+00  0.00000000000E+00  0.12378487052E+03  0.12378487052E+03  0.00000000000E+00 0. -1.
         21   -1    0    0  501  502  0.00000000000E+00 -0.00000000000E+00 -0.74979257321E+03  0.74979257321E+03  0.00000000000E+00 0. -1.
         24    2    1    2    0    0 -0.36526992518E+02  0.39729499925E+01 -0.20877194829E+03  0.22661398707E+03  0.80113464715E+02 0.  0.
         23    2    1    2    0    0  0.15377413100E+03  0.14298218937E+03 -0.49560479100E+02  0.23401332344E+03  0.90639972518E+02 0.  0.
        -13    1    3    3    0    0 -0.20537093657E+02  0.41120827312E+02 -0.88500098831E+02  0.99724431048E+02  0.00000000000E+00 0.  1.
         14    1    3    3    0    0 -0.15989898861E+02 -0.37147877320E+02 -0.12027184946E+03  0.12688955603E+03  0.00000000000E+00 0. -1.
        -13    1    4    4    0    0  0.12445905164E+03  0.13963813843E+03 -0.13670367190E+02  0.18755197727E+03  0.00000000000E+00 0. -1.
         13    1    4    4    0    0  0.29315079364E+02  0.33440509311E+01 -0.35890111911E+02  0.46461346168E+02  0.00000000000E+00 0.  1.
          3    1    1    2  501    0 -0.11724713848E+03 -0.14695513936E+03 -0.36767527530E+03  0.41295013322E+03  0.00000000000E+00 0. -1.
<scales pt_clust_5="13000.00000" pt_clust_6="13000.00000" pt_clust_7="13000.00000" pt_clust_8="13000.00000" pt_clust_9="191.97156"></scales>
<clustering>
<clus scale="   80.113">  5  6 -1 -1</clus>
<clus scale="   88.137">  1  5  2 -1</clus>
<clus scale="   90.640">  7  8 -1 -1</clus>
<clus scale="  191.972">  2  9  1 -1</clus>
<clus scale="  191.972">  2  5  1 -1</clus>
</clustering>
</event>
<event>
 9    2  0.9254368E-005  0.1642091E+03  0.7546771E-02  0.1211044E+00
         -1   -1    0    0    0  501 -0.00000000000E+00  0.00000000000E+00  0.36973453679E+03  0.36973453679E+03  0.00000000000E+00 0.  1.
         21   -1    0    0  501  502  0.00000000000E+00 -0.00000000000E+00 -0.12443494228E+03  0.12443494228E+03  0.00000000000E+00 0.  1.
         23    2    1    2    0    0 -0.34021409724E+02 -0.68493349563E+01  0.15848126133E+02  0.92449495458E+02  0.84210310530E+02 0.  0.
         24    2    1    2    0    0 -0.10898782100E+03 -0.48347180646E+02  0.19884851144E+03  0.24540352134E+03  0.80413697740E+02 0.  0.
        -11    1    4    4    0    0 -0.30653916522E+02  0.20937153339E+02  0.34964801778E+02  0.50995728757E+02  0.00000000000E+00 0.  1.
         12    1    4    4    0    0 -0.78333904473E+02 -0.69284333985E+02  0.16388370966E+03  0.19440779259E+03  0.00000000000E+00 0. -1.
        -13    1    3    3    0    0 -0.40735513381E+02  0.13765662383E+02 -0.22400386202E+02  0.48483531361E+02  0.00000000000E+00 0. -1.
         13    1    3    3    0    0  0.67141036569E+01 -0.20614997339E+02  0.38248512334E+02  0.43965964097E+02  0.00000000000E+00 0.  1.
         -2    1    1    2    0  502  0.14300923072E+03  0.55196515603E+02  0.30602956938E+02  0.15631646228E+03  0.00000000000E+00 0.  1.
<scales pt_clust_5="13000.00000" pt_clust_6="13000.00000" pt_clust_7="13000.00000" pt_clust_8="13000.00000" pt_clust_9="143.17217"></scales>
<clustering>
<clus scale="   80.414">  5  6 -1 -1</clus>
<clus scale="   84.210">  7  8 -1 -1</clus>
<clus scale="   91.081">  1  7  2 -1</clus>
<clus scale="  143.172">  2  9  1 -1</clus>
<clus scale="  143.172">  2  5  1 -1</clus>
</clustering>
</event>
<event>
 9    2  0.9254368E-005  0.9182422E+02  0.7546771E-02  0.1305345E+00
         21   -1    0    0  501  502  0.00000000000E+00  0.00000000000E+00  0.23051830364E+02  0.23051830364E+02  0.00000000000E+00 0.  1.
          2   -1    0    0  502    0 -0.00000000000E+00 -0.00000000000E+00 -0.86385411649E+03  0.86385411649E+03  0.00000000000E+00 0. -1.
         24    2    1    2    0    0  0.67929737788E+01 -0.50818151756E+02 -0.62485045291E+03  0.63204483176E+03  0.80087151385E+02 0.  0.
         23    2    1    2    0    0  0.39344275319E+02  0.23904395887E+02 -0.12143247229E+03  0.14629359878E+03  0.67354135530E+02 0.  0.
        -11    1    3    3    0    0 -0.21597845479E+02 -0.36506021776E+02 -0.14329699548E+03  0.14944291710E+03  0.00000000000E+00 0.  1.
         12    1    3    3    0    0  0.28390819258E+02 -0.14312129980E+02 -0.48155345743E+03  0.48260191467E+03  0.00000000000E+00 0. -1.
        -11    1    4    4    0    0 -0.20660174619E+01  0.37160123334E+02 -0.45384338328E+02  0.58693111690E+02  0.00000000000E+00 0.  1.
         11    1    4    4    0    0  0.41410292781E+02 -0.13255727448E+02 -0.76048133967E+02  0.87600487089E+02  0.00000000000E+00 0. -1.
          1    1    1    2  501    0 -0.46137249098E+02  0.26913755869E+02 -0.94519360925E+02  0.10856751632E+03  0.00000000000E+00 0. -1.
<scales pt_clust_5="13000.00000" pt_clust_6="13000.00000" pt_clust_7="13000.00000" pt_clust_8="13000.00000" pt_clust_9="53.41344"></scales>
<clustering>
<clus scale="   53.413">  1  9  2 -1</clus>
<clus scale="   67.354">  7  8 -1 -1</clus>
<clus scale="   80.087">  5  6 -1 -1</clus>
<clus scale="   80.959">  1  7  2 -1</clus>
<clus scale="   53.413">  1  5  2 -1</clus>
</clustering>
</event>
<event>
 9    2  0.9254368E-005  0.2005658E+03  0.7546771E-02  0.1152321E+00
         21   -1    0    0  501  502  0.00000000000E+00  0.00000000000E+00  0.12577890573E+03  0.12577890573E+03  0.00000000000E+00 0. -1.
          2   -1    0    0  502    0 -0.00000000000E+00 -0.00000000000E+00 -0.36994922255E+03  0.36994922255E+03  0.00000000000E+00 0. -1.
         23    2    1    2    0    0 -0.75861689830E+02  0.13186258976E+03 -0.97496154015E+02  0.21106285568E+03  0.10908386883E+03 0.  0.
         24    2    1    2    0    0  0.91316080304E+02 -0.16249821113E+03 -0.98890320589E+02  0.22583777003E+03  0.80492904815E+02 0.  0.
        -13    1    4    4    0    0  0.37429159561E+02 -0.82277055583E+01 -0.91228097198E+01  0.39393689614E+02  0.00000000000E+00 0.  1.
         14    1    4    4    0    0  0.53886920743E+02 -0.15427050557E+03 -0.89767510869E+02  0.18644408042E+03  0.00000000000E+00 0. -1.
        -11    1    3    3    0    0 -0.91214277263E+02  0.53542231809E+02 -0.69154375576E+02  0.12636907306E+03  0.00000000000E+00 0. -1.
         11    1    3    3    0    0  0.15352587433E+02  0.78320357953E+02 -0.28341778439E+02  0.84693782629E+02  0.00000000000E+00 0.  1.
          1    1    1    2  501    0 -0.15454390474E+02  0.30635621364E+02 -0.47783842216E+02  0.58827502567E+02  0.00000000000E+00 0. -1.
<scales pt_clust_5="13000.00000" pt_clust_6="13000.00000" pt_clust_7="13000.00000" pt_clust_8="13000.00000" pt_clust_9="34.31298"></scales>
<clustering>
<clus scale="   34.313">  1  9  2 -1</clus>
<clus scale="   80.493">  5  6 -1 -1</clus>
<clus scale="  109.084">  7  8 -1 -1</clus>
<clus scale="  186.565">  1  5  2 -1</clus>
<clus scale="   34.313">  1  5  2 -1</clus>
</clustering>
</event>
<event>
 9    2  0.9254368E-005  0.1883068E+03  0.7546771E-02  0.1195255E+00
          2   -1    0    0  502    0 -0.00000000000E+00  0.00000000000E+00  0.21646215696E+03  0.21646215696E+03  0.00000000000E+00 0. -1.
         21   -1    0    0  501  502  0.00000000000E+00 -0.00000000000E+00 -0.32285198525E+03  0.32285198525E+03  0.00000000000E+00 0. -1.
         24    2    1    2    0    0  0.26131514309E+02 -0.25649770344E+02 -0.32411014358E+02  0.90923015813E+02  0.76653468245E+02 0.  0.
         23    2    1    2    0    0  0.14115502537E+03 -0.68042083649E+01  0.10749811875E+03  0.19944951841E+03  0.90847269741E+02 0.  0.
        -11    1    3    3    0    0 -0.14304782410E+02  0.18903689171E+02 -0.15855065427E+02  0.28519455882E+02  0.00000000000E+00 0.  1.
         12    1    3    3    0    0  0.40436296719E+02 -0.44553459515E+02 -0.16555948931E+02  0.62403559931E+02  0.00000000000E+00 0. -1.
        -13    1    4    4    0    0  0.83272618289E+02  0.26651310968E+02  0.20631938961E+02  0.89834838667E+02  0.00000000000E+00 0.  1.
         13    1    4    4    0    0  0.57882407079E+02 -0.33455519333E+02  0.86866179790E+02  0.10961467974E+03  0.00000000000E+00 0. -1.
          1    1    1    2  501    0 -0.16728653968E+03  0.32453978709E+02 -0.18147693269E+03  0.24894160799E+03  0.00000000000E+00 0. -1.
<scales pt_clust_5="13000.00000" pt_clust_6="13000.00000" pt_clust_7="13000.00000" pt_clust_8="13000.00000" pt_clust_9="164.94308"></scales>
<clustering>
<clus scale="   76.653">  5  6 -1 -1</clus>
<clus scale="   84.950">  1  5  2 -1</clus>
<clus scale="   90.847">  7  8 -1 -1</clus>
<clus scale="  164.943">  2  9  1 -1</clus>
<clus scale="  164.943">  2  5  1 -1</clus>
</clustering>
</event>
<event>
 9    2  0.9254368E-005  0.1374185E+03  0.7546771E-02  0.1219227E+00
         -1   -1    0    0    0  501 -0.00000000000E+00  0.00000000000E+00  0.10504073935E+04  0.10504073935E+04  0.00000000000E+00 0.  1.
         21   -1    0    0  501  502  0.00000000000E+00 -0.00000000000E+00 -0.41013053955E+02  0.41013053955E+02  0.00000000000E+00 0.  1.
         24    2    1    2    0    0 -0.81004249183E+02 -0.99971757206E+01  0.25702191222E+03  0.28121195913E+03  0.79738765292E+02 0.  0.
         23    2    1    2    0    0  0.12955413254E+03  0.87423517071E+02  0.31207222979E+03  0.36052393949E+03  0.90339856889E+02 0.  0.
        -13    1    3    3    0    0 -0.49879898073E+02 -0.41834127632E+02  0.11239996082E+03  0.12989168433E+03  0.00000000000E+00 0.  1.
         14    1    3    3    0    0 -0.31124351110E+02  0.31836951911E+02  0.14462195140E+03  0.15132027480E+03  0.00000000000E+00 0. -1.
        -13    1    4    4    0    0  0.79755491331E+02  0.45436075392E+02  0.87935748524E+02  0.12711440207E+03  0.00000000000E+00 0. -1.
         13    1    4    4    0    0  0.49798641213E+02  0.41987441680E+02  0.22413648127E+03  0.23340953742E+03  0.00000000000E+00 0.  1.
         -2    1    1    2    0  502 -0.48549883361E+02 -0.77426341351E+02  0.44030019758E+03  0.44968454887E+03  0.00000000000E+00 0.  1.
<scales pt_clust_5="13000.00000" pt_clust_6="13000.00000" pt_clust_7="13000.00000" pt_clust_8="13000.00000" pt_clust_9="91.38894"></scales>
<clustering>
<clus scale="   79.739">  5  6 -1 -1</clus>
<clus scale="   90.340">  7  8 -1 -1</clus>
<clus scale="   91.389">  2  9  1 -1</clus>
<clus scale="  130.694">  1  5  2 -1</clus>
<clus scale="   91.389">  2  5  1 -1</clus>
</clustering>
</event>
<event>
 9    2  0.9254368E-005  0.1034262E+03  0.7546771E-02  0.1277820E+00
          2   -1    0    0  502    0 -0.00000000000E+00  0.00000000000E+00  0.56615833659E+03  0.56615833659E+03  0.00000000000E+00 0. -1.
         21   -1    0    0  501  502  0.00000000000E+00 -0.00000000000E+00 -0.27924891229E+02  0.27924891229E+02  0.00000000000E+00 0.  1.
         23    2    1    2    0    0  0.23232706092E+01 -0.57947137793E+02  0.36790889266E+03  0.38357562950E+03  0.91706280507E+02 0.  0.
         24    2    1    2    0    0 -0.33813848115E+01  0.33050453351E+02  0.16152461177E+03  0.18408027416E+03  0.81802083696E+02 0.  0.
        -11    1    4    4    0    0 -0.95571057381E+01  0.23508452580E+02  0.34647923686E+01  0.25612309520E+02  0.00000000000E+00 0.  1.
         12    1    4    4    0    0  0.61757209266E+01  0.95420007712E+01  0.15805981940E+03  0.15846796464E+03  0.00000000000E+00 0. -1.
        -13    1    3    3    0    0  0.36218584231E+02 -0.19601332351E+01  0.73284720191E+02  0.81769665399E+02  0.00000000000E+00 0. -1.
         13    1    3    3    0    0 -0.33895313621E+02 -0.55987004558E+02  0.29462417247E+03  0.30180596411E+03  0.00000000000E+00 0.  1.
          1    1    1    2  501    0  0.10581142023E+01  0.24896684442E+02  0.87999409330E+01  0.26427324160E+02  0.00000000000E+00 0. -1.
<scales pt_clust_5="13000.00000" pt_clust_6="13000.00000" pt_clust_7="13000.00000" pt_clust_8="13000.00000" pt_clust_9="24.91916"></scales>
<clustering>
<clus scale="   24.919">  2  9  1 -1</clus>
<clus scale="   81.802">  5  6 -1 -1</clus>
<clus scale="   91.706">  7  8 -1 -1</clus>
<clus scale="   94.755">  2  5  1 -1</clus>
<clus scale="   24.919">  2  5  1 -1</clus>
</clustering>
</event>
<event>
 9    2  0.9254368E-005  0.1019920E+03  0.7546771E-02  0.1280676E+00
          2   -1    0    0  502    0 -0.00000000000E+00  0.00000000000E+00  0.79337028409E+02  0.79337028409E+02  0.00000000000E+00 0. -1.
         21   -1    0    0  501  502  0.00000000000E+00 -0.00000000000E+00 -0.38851977653E+03  0.38851977653E+03  0.00000000000E+00 0.  1.
         23    2    1    2    0    0 -0.35626442123E+02 -0.47856676547E+02 -0.12748170277E+03  0.16712143402E+03  0.90102632018E+02 0.  0.
         24    2    1    2    0    0 -0.51231245175E+02  0.47660761741E+02 -0.18531789537E+03  0.21380219066E+03  0.80451635762E+02 0.  0.
        -11    1    4    4    0    0 -0.10243965744E+01  0.28351024823E+02 -0.14180308022E+03  0.14461308225E+03  0.00000000000E+00 0.  1.
         12    1    4    4    0    0 -0.50206848601E+02  0.19309736919E+02 -0.43514815150E+02  0.69189108419E+02  0.00000000000E+00 0. -1.
        -13    1    3    3    0    0 -0.34226361722E+02 -0.84144974244E+01 -0.12234607791E+03  0.12732168073E+03  0.00000000000E+00 0.  1.
         13    1    3    3    0    0 -0.14000804008E+01 -0.39442179123E+02 -0.51356248669E+01  0.39799753289E+02  0.00000000000E+00 0. -1.
          1    1    1    2  501    0  0.86857687298E+02  0.19591480616E+00  0.36168500256E+01  0.86933180257E+02  0.00000000000E+00 0. -1.
<scales pt_clust_5="13000.00000" pt_clust_6="13000.00000" pt_clust_7="13000.00000" pt_clust_8="13000.00000" pt_clust_9="86.85795"></scales>
<clustering>
<clus scale="   80.452">  5  6 -1 -1</clus>
<clus scale="   86.858">  2  9  1 -1</clus>
<clus scale="   90.103">  7  8 -1 -1</clus>
<clus scale="   93.575">  2  5  1 -1</clus>
<clus scale="   86.858">  2  5  1 -1</clus>
</clustering>
</event>
<event>
 9    2  0.9254368E-005  0.2022845E+03  0.7546771E-02  0.1148755E+00
         21   -1    0    0  501  502  0.00000000000E+00  0.00000000000E+00  0.37732859316E+02  0.37732859316E+02  0.00000000000E+00 0.  1.
          2   -1    0    0  502    0 -0.00000000000E+00 -0.00000000000E+00 -0.14608870759E+04  0.14608870759E+04  0.00000000000E+00 0. -1.
         24    2    1    2    0    0 -0.16679304374E+03  0.75568337393E+02 -0.77028807564E+03  0.79578572688E+03  0.80004440981E+02 0.  0.
         23    2    1    2    0    0  0.13727626640E+03 -0.11990153572E+03 -0.46486443504E+03  0.50743381417E+03  0.90382416486E+02 0.  0.
        -13    1    3    3    0    0 -0.83702301431E+02  0.75119889944E+02 -0.35964716545E+03  0.37682244724E+03  0.00000000000E+00 0.  1.
         14    1    3    3    0    0 -0.83090742308E+02  0.44844744867E+00 -0.41064091019E+03  0.41896327964E+03  0.00000000000E+00 0. -1.
        -11    1    4    4    0    0  0.54664785609E+02  0.36049182119E+01 -0.11923881906E+03  0.13122168339E+03  0.00000000000E+00 0. -1.
         11    1    4    4    0    0  0.82611480787E+02 -0.12350645393E+03 -0.34562561598E+03  0.37621213078E+03  0.00000000000E+00 0.  1.
          1    1    1    2  501    0  0.29516777344E+02  0.44333198328E+02 -0.18800170590E+03  0.19540039417E+03  0.00000000000E+00 0. -1.
<scales pt_clust_5="13000.00000" pt_clust_6="13000.00000" pt_clust_7="13000.00000" pt_clust_8="13000.00000" pt_clust_9="53.26045"></scales>
<clustering>
<clus scale="   53.260">  1  9  2 -1</clus>
<clus scale="   80.004">  5  6 -1 -1</clus>
<clus scale="   90.382">  7  8 -1 -1</clus>
<clus scale="  197.866">  2  5  1 -1</clus>
<clus scale="   53.260">  1  5  2 -1</clus>
</clustering>
</event>
<event>
 9    2  0.9254368E-005  0.2498668E+03  0.7546771E-02  0.1114174E+00
          2   -1    0    0  502    0 -0.00000000000E+00  0.00000000000E+00  0.11295571979E+04  0.11295571979E+04  0.00000000000E+00 0. -1.
         21   -1    0    0  501  502  0.00000000000E+00 -0.00000000000E+00 -0.11123838676E+03  0.11123838676E+03  0.00000000000E+00 0. -1.
         24    2    1    2    0    0 -0.25394219040E+03  0.15210974273E+03  0.74858802525E+03  0.80875636739E+03  0.77966790082E+02 0.  0.
         23    2    1    2    0    0  0.10123536563E+03 -0.11541279417E+03  0.16282227082E+03  0.24205113615E+03  0.92243960924E+02 0.  0.
        -11    1    3    3    0    0 -0.45790127414E+02  0.50397878360E+01  0.69152761931E+02  0.83091754782E+02  0.00000000000E+00 0.  1.
         12    1    3    3    0    0 -0.20815206298E+03  0.14706995490E+03  0.67943526332E+03  0.72566461261E+03  0.00000000000E+00 0. -1.
        -11    1    4    4    0    0  0.64493133149E+02 -0.62841407004E+02  0.30617687224E+02  0.95109670531E+02  0.00000000000E+00 0. -1.
         11    1    4    4    0    0  0.36742232479E+02 -0.52571387166E+02  0.13220458359E+03  0.14694146562E+03  0.00000000000E+00 0.  1.
          1    1    1    2  501    0  0.15270682477E+03 -0.36696948564E+02  0.10690851505E+03  0.18998808109E+03  0.00000000000E+00 0. -1.
<scales pt_clust_5="13000.00000" pt_clust_6="13000.00000" pt_clust_7="13000.00000" pt_clust_8="13000.00000" pt_clust_9="157.05426"></scales>
<clustering>
<clus scale="   77.967">  5  6 -1 -1</clus>
<clus scale="   92.244">  7  8 -1 -1</clus>
<clus scale="  157.054">  2  9  1 -1</clus>
<clus scale="  244.956">  1  5  2 -1</clus>
<clus scale="  157.054">  2  5  1 -1</clus>
</clustering>
</event>
<event>
 9    2  0.9254368E-005  0.1030865E+03  0.7546771E-02  0.1277948E+00
         21   -1    0    0  501  502  0.00000000000E+00  0.00000000000E+00  0.47083913815E+02  0.47083913815E+02  0.00000000000E+00 0.  1.
          2   -1    0    0  502    0 -0.00000000000E+00 -0.00000000000E+00 -0.62354463971E+03  0.62354463971E+03  0.00000000000E+00 0. -1.
         23    2    1    2    0    0  0.44535051361E+02  0.39448710778E+01 -0.35547002287E+03  0.36923795785E+03  0.89324126400E+02 0.  0.
         24    2    1    2    0    0 -0.64475953423E+02  0.70153086907E+02 -0.16297340061E+03  0.20519208044E+03  0.80404330706E+02 0.  0.
        -13    1    4    4    0    0 -0.16836453942E+02  0.28245767606E+02 -0.29095776844E+01  0.33011440612E+02  0.00000000000E+00 0.  1.
         14    1    4    4    0    0 -0.47639499482E+02  0.41907319302E+02 -0.16006382293E+03  0.17218063983E+03  0.00000000000E+00 0. -1.
        -11    1    3    3    0    0  0.69735622176E+02  0.83575067174E+01 -0.20728508050E+03  0.21886070802E+03  0.00000000000E+00 0. -1.
         11    1    3    3    0    0 -0.25200570816E+02 -0.44126356396E+01 -0.14818494237E+03  0.15037724983E+03  0.00000000000E+00 0.  1.
          1    1    1    2  501    0  0.19940902063E+02 -0.74097957985E+02 -0.58017302421E+02  0.96198515232E+02  0.00000000000E+00 0. -1.
<scales pt_clust_5="13000.00000" pt_clust_6="13000.00000" pt_clust_7="13000.00000" pt_clust_8="13000.00000" pt_clust_9="76.73426"></scales>
<clustering>
<clus scale="   76.734">  1  9  2 -1</clus>
<clus scale="   80.404">  5  6 -1 -1</clus>
<clus scale="   89.324">  7  8 -1 -1</clus>
<clus scale="   95.461">  1  5  2 -1</clus>
<clus scale="   76.734">  1  5  2 -1</clus>
</clustering>
</event>
<event>
 9    2  0.9254368E-005  0.1244967E+03  0.7546771E-02  0.1238177E+00
          2   -1    0    0  502    0 -0.00000000000E+00  0.00000000000E+00  0.20952935518E+03  0.20952935518E+03  0.00000000000E+00 0. -1.
         21   -1    0    0  501  502  0.00000000000E+00 -0.00000000000E+00 -0.15600939446E+03  0.15600939446E+03  0.00000000000E+00 0.  1.
         24    2    1    2    0    0 -0.81924520346E+02  0.85813634531E+01  0.10910381219E+03  0.15847297346E+03  0.80154692000E+02 0.  0.
         23    2    1    2    0    0  0.11121955479E+03  0.34510492476E+02 -0.50500538341E+02  0.15471172034E+03  0.88457043691E+02 0.  0.
        -13    1    3    3    0    0 -0.54197912390E+02  0.30836766294E+02  0.25033330158E+02  0.67193656559E+02  0.00000000000E+00 0.  1.
         14    1    3    3    0    0 -0.27726607956E+02 -0.22255402841E+02  0.84070482035E+02  0.91279316901E+02  0.00000000000E+00 0. -1.
        -13    1    4    4    0    0  0.31845139866E+02  0.51049914143E+02 -0.41592238069E+02  0.73144520880E+02  0.00000000000E+00 0.  1.
         13    1    4    4    0    0  0.79374414925E+02 -0.16539421668E+02 -0.89083002720E+01  0.81567199459E+02  0.00000000000E+00 0. -1.
          1    1    1    2  501    0 -0.29295034445E+02 -0.43091855929E+02 -0.50833131322E+01  0.52354055840E+02  0.00000000000E+00 0. -1.
<scales pt_clust_5="13000.00000" pt_clust_6="13000.00000" pt_clust_7="13000.00000" pt_clust_8="13000.00000" pt_clust_9="52.10669"></scales>
<clustering>
<clus scale="   52.107">  2  9  1 -1</clus>
<clus scale="   80.155">  5  6 -1 -1</clus>
<clus scale="   88.457">  7  8 -1 -1</clus>
<clus scale="  118.742">  1  5  2 -1</clus>
<clus scale="   52.107">  2  5  1 -1</clus>
</clustering>
</event>
<event>
 9    2  0.9254368E-005  0.1067336E+03  0.7546771E-02  0.1266814E+00
          2   -1    0    0  502    0 -0.00000000000E+00  0.00000000000E+00  0.81887770397E+03  0.81887770397E+03  0.00000000000E+00 0. -1.
         21   -1    0    0  501  502  0.00000000000E+00 -0.00000000000E+00 -0.94569978856E+02  0.94569978856E+02  0.00000000000E+00 0. -1.
         24    2    1    2    0    0 -0.61044330091E+02  0.34344699073E+02  0.67091122894E+03  0.67937036193E+03  0.80723249187E+02 0.  0.
         23    2    1    2    0    0  0.92852750609E+02  0.35522226898E+02  0.82220441823E+02  0.15207742575E+03  0.80522546349E+02 0.  0.
        -11    1    3    3    0    0 -0.35589679853E+02 -0.11711558296E+02  0.11445380981E+03  0.12043031383E+03  0.00000000000E+00 0.  1.
         12    1    3    3    0    0 -0.25454650238E+02  0.46056257369E+02  0.55645741913E+03  0.55894004810E+03  0.00000000000E+00 0. -1.
        -13    1    4    4    0    0  0.30937931988E+02  0.16862902802E+02  0.79952474834E+02  0.87372257375E+02  0.00000000000E+00 0.  1.
         13    1    4    4    0    0  0.61914818621E+02  0.18659324096E+02  0.22679669888E+01  0.64705168378E+02  0.00000000000E+00 0. -1.
          1    1    1    2  501    0 -0.31808420518E+02 -0.69866925971E+02 -0.28823945650E+02  0.81999895142E+02  0.00000000000E+00 0. -1.
<scales pt_clust_5="13000.00000" pt_clust_6="13000.00000" pt_clust_7="13000.00000" pt_clust_8="13000.00000" pt_clust_9="76.76694"></scales>
<clustering>
<clus scale="   76.767">  2  9  1 -1</clus>
<clus scale="   80.523">  7  8 -1 -1</clus>
<clus scale="   80.723">  5  6 -1 -1</clus>
<clus scale="  106.582">  2  7  1 -1</clus>
<clus scale="   76.767">  2  5  1 -1</clus>
</clustering>
</event>
<event>
 9    2  0.9254368E-005  0.1452120E+03  0.7546771E-02  0.1208341E+00
         21   -1    0    0  501  502  0.00000000000E+00  0.00000000000E+00  0.52307799555E+02  0.52307799555E+02  0.00000000000E+00 0. -1.
          2   -1    0    0  502    0 -0.00000000000E+00 -0.00000000000E+00 -0.13672070048E+04  0.13672070048E+04  0.00000000000E+00 0. -1.
         24    2    1    2    0    0 -0.94977723970E+02 -0.81987151682E+02 -0.11839656137E+04  0.11933109905E+04  0.80460452842E+02 0.  0.
         23    2    1    2    0    0  0.55621258030E+02  0.18287102225E+02 -0.94224555185E+02  0.14281208132E+03  0.89938208327E+02 0.  0.
        -13    1    3    3    0    0  0.22402911706E+01 -0.34591261126E+02 -0.16376794238E+03  0.16739627595E+03  0.00000000000E+00 0.  1.
         14    1    3    3    0    0 -0.97218015141E+02 -0.47395890557E+02 -0.10201976713E+04  0.10259147145E+04  0.00000000000E+00 0. -1.
        -11    1    4    4    0    0  0.73227375731E+02 -0.57190387000E+01 -0.47706540211E+02  0.87583502665E+02  0.00000000000E+00 0.  1.
         11    1    4    4    0    0 -0.17606117701E+02  0.24006140925E+02 -0.46518014974E+02  0.55228578651E+02  0.00000000000E+00 0. -1.
          1    1    1    2  501    0  0.39356465940E+02  0.63700049458E+02 -0.36709036386E+02  0.83391732591E+02  0.00000000000E+00 0. -1.
<scales pt_clust_5="13000.00000" pt_clust_6="13000.00000" pt_clust_7="13000.00000" pt_clust_8="13000.00000" pt_clust_9="74.87742"></scales>
<clustering>
<clus scale="   74.877">  1  9  2 -1</clus>
<clus scale="   80.460">  5  6 -1 -1</clus>
<clus scale="   89.938">  7  8 -1 -1</clus>
<clus scale="  139.540">  2  5  1 -1</clus>
<clus scale="   74.877">  1  5  2 -1</clus>
</clustering>
</event>
<event>
 9    2  0.9254368E-005  0.2192214E+03  0.7546771E-02  0.1135370E+00
         21   -1    0    0  501  502  0.00000000000E+00  0.00000000000E+00  0.57576434874E+03  0.57576434874E+03  0.00000000000E+00 0. -1.
          2   -1    0    0  502    0 -0.00000000000E+00 -0.00000000000E+00 -0.66480899602E+03  0.66480899602E+03  0.00000000000E+00 0. -1.
         24    2    1    2    0    0  0.12620543233E+01  0.20528548377E+03 -0.61818608038E+03  0.65627634290E+03  0.80005535134E+02 0.  0.
         23    2    1    2    0    0  0.97830008582E+01 -0.11171122750E+03  0.24269429705E+03  0.28275082557E+03  0.92045652181E+02 0.  0.
        -11    1    3    3    0    0 -0.87693524471E+01  0.36551279703E+02 -0.44727630839E+02  0.58424811089E+02  0.00000000000E+00 0.  1.
         12    1    3    3    0    0  0.10031406770E+02  0.16873420406E+03 -0.57345844954E+03  0.59785153181E+03  0.00000000000E+00 0. -1.
        -13    1    4    4    0    0  0.39683201755E+02 -0.13991690193E+02  0.57782341537E+02  0.71479527765E+02  0.00000000000E+00 0.  1.
         13    1    4    4    0    0 -0.29900200897E+02 -0.97719537307E+02  0.18491195551E+03  0.21127129781E+03  0.00000000000E+00 0. -1.
          1    1    1    2  501    0 -0.11045055181E+02 -0.93574256265E+02  0.28644713606E+03  0.30154617629E+03  0.00000000000E+00 0. -1.
<scales pt_clust_5="13000.00000" pt_clust_6="13000.00000" pt_clust_7="13000.00000" pt_clust_8="13000.00000" pt_clust_9="94.22385"></scales>
<clustering>
<clus scale="   80.006">  5  6 -1 -1</clus>
<clus scale="   92.046">  7  8 -1 -1</clus>
<clus scale="   94.224">  1  9  2 -1</clus>
<clus scale="  214.445">  2  5  1 -1</clus>
<clus scale="   94.224">  1  5  2 -1</clus>
</clustering>
</event>
<event>
 9    2  0.9254368E-005  0.2724424E+03  0.7546771E-02  0.1133705E+00
          2   -1    0    0  502    0 -0.00000000000E+00  0.00000000000E+00  0.76923640622E+03  0.76923640622E+03  0.00000000000E+00 0. -1.
         21   -1    0    0  501  502  0.00000000000E+00 -0.00000000000E+00 -0.26507858157E+03  0.26507858157E+03  0.00000000000E+00 0. -1.
         24    2    1    2    0    0 -0.18493577692E+02 -0.82069415528E+02  0.28970704697E+03  0.31219688762E+03  0.80369908513E+02 0.  0.
         23    2    1    2    0    0  0.25625894165E+03  0.60680557131E+02 -0.12633939571E+03  0.30603181844E+03  0.91340329556E+02 0.  0.
        -13    1    3    3    0    0  0.31172118017E+02 -0.41932058602E+02  0.12043502536E+03  0.13128059192E+03  0.00000000000E+00 0.  1.
         14    1    3    3    0    0 -0.49665695709E+02 -0.40137356926E+02  0.16927202161E+03  0.18091629570E+03  0.00000000000E+00 0. -1.
        -11    1    4    4    0    0  0.82534830221E+02  0.54211837785E+02 -0.15754621820E+02  0.99995648227E+02  0.00000000000E+00 0.  1.
         11    1    4    4    0    0  0.17372411142E+03  0.64687193460E+01 -0.11058477389E+03  0.20603617022E+03  0.00000000000E+00 0. -1.
          1    1    1    2  501    0 -0.23776536395E+03  0.21388858397E+02  0.34079017340E+03  0.41608628173E+03  0.00000000000E+00 0. -1.
<scales pt_clust_5="13000.00000" pt_clust_6="13000.00000" pt_clust_7="13000.00000" pt_clust_8="13000.00000" pt_clust_9="256.67466"></scales>
<clustering>
<clus scale="   80.370">  5  6 -1 -1</clus>
<clus scale="   91.340">  7  8 -1 -1</clus>
<clus scale="  116.347">  1  5  2 -1</clus>
<clus scale="  256.675">  2  9  1 -1</clus>
<clus scale="  256.675">  2  5  1 -1</clus>
</clustering>
</event>
<event>
 9    2  0.9254368E-005  0.1271145E+03  0.7546771E-02  0.1233310E+00
          2   -1    0    0  502    0 -0.00000000000E+00  0.00000000000E+00  0.54220764147E+03  0.54220764147E+03  0.00000000000E+00 0. -1.
         21   -1    0    0  501  502  0.00000000000E+00 -0.00000000000E+00 -0.11682238952E+03  0.11682238952E+03  0.00000000000E+00 0.  1.
         24    2    1    2    0    0  0.93091004433E+02 -0.77322694585E+01  0.42713932027E+03  0.44547517866E+03  0.85290168130E+02 0.  0.
         23    2    1    2    0    0 -0.73510298846E+02 -0.13790852085E+02  0.69463264522E+02  0.13662269203E+03  0.90811140402E+02 0.  0.
        -13    1    3    3    0    0  0.16704265243E+02  0.12349971748E+02  0.14473040655E+02  0.25318435680E+02  0.00000000000E+00 0.  1.
         14    1    3    3    0    0  0.76386739190E+02 -0.20082241206E+02  0.41266627962E+03  0.42015674298E+03  0.00000000000E+00 0. -1.
        -13    1    4    4    0    0 -0.55039148903E+02  0.31530058368E+02  0.18745816782E+02  0.66142710403E+02  0.00000000000E+00 0.  1.
         13    1    4    4    0    0 -0.18471149943E+02 -0.45320910453E+02  0.50717447740E+02  0.70479981624E+02  0.00000000000E+00 0. -1.
          1    1    1    2  501    0 -0.19580705586E+02  0.21523121544E+02 -0.71217332843E+02  0.76932160307E+02  0.00000000000E+00 0. -1.
<scales pt_clust_5="13000.00000" pt_clust_6="13000.00000" pt_clust_7="13000.00000" pt_clust_8="13000.00000" pt_clust_9="29.09723"></scales>
<clustering>
<clus scale="   29.097">  2  9  1 -1</clus>
<clus scale="   85.290">  5  6 -1 -1</clus>
<clus scale="   90.811">  7  8 -1 -1</clus>
<clus scale="  123.231">  1  5  2 -1</clus>
<clus scale="   29.097">  2  5  1 -1</clus>
</clustering>
</event>
<event>
 9    2  0.9254368E-005  0.1285419E+03  0.7546771E-02  0.1246934E+00
         -1   -1    0    0    0  501 -0.00000000000E+00  0.00000000000E+00  0.14612766135E+04  0.14612766135E+04  0.00000000000E+00 0.  1.
         21   -1    0    0  501  502  0.00000000000E+00 -0.00000000000E+00 -0.31170976780E+02  0.31170976780E+02  0.00000000000E+00 0. -1.
         24    2    1    2    0    0 -0.25780039429E+02  0.24466505415E+02  0.71063365025E+03  0.71635671215E+03  0.83087507251E+02 0.  0.
         23    2    1    2    0    0 -0.69754172504E+02 -0.57298397365E+02  0.14642968588E+03  0.19421271472E+03  0.90156390401E+02 0.  0.
        -13    1    3    3    0    0 -0.94013397438E+01  0.50668714166E+02  0.28641638993E+03  0.29101555320E+03  0.00000000000E+00 0.  1.
         14    1    3    3    0    0 -0.16378699685E+02 -0.26202208751E+02  0.42421726031E+03  0.42534115895E+03  0.00000000000E+00 0. -1.
        -13    1    4    4    0    0  0.14447487114E+02 -0.33616917472E+02  0.24042167433E+02  0.43781877975E+02  0.00000000000E+00 0.  1.
         13    1    4    4    0    0 -0.84201659618E+02 -0.23681479894E+02  0.12238751844E+03  0.15043083674E+03  0.00000000000E+00 0. -1.
         -2    1    1    2    0  502  0.95534211933E+02  0.32831891951E+02  0.57304230059E+03  0.58187816341E+03  0.00000000000E+00 0.  1.
<scales pt_clust_5="13000.00000" pt_clust_6="13000.00000" pt_clust_7="13000.00000" pt_clust_8="13000.00000" pt_clust_9="91.62345"></scales>
<clustering>
<clus scale="   83.088">  5  6 -1 -1</clus>
<clus scale="   90.156">  7  8 -1 -1</clus>
<clus scale="   90.370">  1  5  2 -1</clus>
<clus scale="   91.623">  2  9  1 -1</clus>
<clus scale="   91.623">  2  5  1 -1</clus>
</clustering>
</event>
<event>
 9    2  0.9254368E-005  0.1053825E+03  0.7546771E-02  0.1274321E+00
         21   -1    0    0  501  502  0.00000000000E+00  0.00000000000E+00  0.81885196940E+03  0.81885196940E+03  0.00000000000E+00 0.  1.
         -3   -1    0    0    0  501 -0.00000000000E+00 -0.00000000000E+00 -0.34811395125E+02  0.34811395125E+02  0.00000000000E+00 0.  1.
         24    2    1    2    0    0  0.36938839343E+02  0.25885847216E+02  0.30604553274E+03  0.31962695109E+03  0.80392566918E+02 0.  0.
         23    2    1    2    0    0 -0.59842582743E+02 -0.23226455448E+02  0.49364984515E+03  0.50616659638E+03  0.91617960789E+02 0.  0.
        -11    1    3    3    0    0  0.51787015842E+02 -0.59492456330E+00  0.11421106136E+03  0.12540500581E+03  0.00000000000E+00 0.  1.
         12    1    3    3    0    0 -0.14848176499E+02  0.26480771779E+02  0.19183447138E+03  0.19422194529E+03  0.00000000000E+00 0. -1.
        -13    1    4    4    0    0 -0.53227118838E+02 -0.56260743371E+02  0.31620767640E+03  0.32555443791E+03  0.00000000000E+00 0.  1.
         13    1    4    4    0    0 -0.66154639054E+01  0.33034287923E+02  0.17744216874E+03  0.18061215848E+03  0.00000000000E+00 0. -1.
         -4    1    1    2    0  502  0.22903743400E+02 -0.26593917681E+01 -0.15654803612E+02  0.27869817051E+02  0.00000000000E+00 0.  1.
<scales pt_clust_5="13000.00000" pt_clust_6="13000.00000" pt_clust_7="13000.00000" pt_clust_8="13000.00000" pt_clust_9="23.05763"></scales>
<clustering>
<clus scale="   23.058">  1  9  2 -1</clus>
<clus scale="   80.393">  5  6 -1 -1</clus>
<clus scale="   91.618">  7  8 -1 -1</clus>
<clus scale="   95.784">  2  5  1 -1</clus>
<clus scale="   23.058">  1  5  2 -1</clus>
</clustering>
</event>
<event>
 9    2  0.9254368E-005  0.1294940E+03  0.7546771E-02  0.1232971E+00
         21   -1    0    0  501  502  0.00000000000E+00  0.00000000000E+00  0.38057546030E+03  0.38057546030E+03  0.00000000000E+00 0.  1.
         -1   -1    0    0    0  501 -0.00000000000E+00 -0.00000000000E+00 -0.92859974906E+02  0.92859974906E+02  0.00000000000E+00 0.  1.
         24    2    1    2    0    0 -0.13268714080E+02 -0.10134608544E+03  0.38788701820E+01  0.12652791214E+03  0.74479387142E+02 0.  0.
         23    2    1    2    0    0  0.65829531053E+02  0.44218101095E+02  0.16924915060E+03  0.20850039491E+03  0.92403312055E+02 0.  0.
        -11    1    3    3    0    0 -0.10332508194E+02 -0.10615699095E+03 -0.14191819936E+02  0.10759867660E+03  0.00000000000E+00 0.  1.
         12    1    3    3    0    0 -0.29362058851E+01  0.48109055084E+01  0.18070690118E+02  0.18929235540E+02  0.00000000000E+00 0. -1.
        -13    1    4    4    0    0  0.79631791451E+02  0.82061893957E+01  0.90573194093E+02  0.12088038403E+03  0.00000000000E+00 0.  1.
         13    1    4    4    0    0 -0.13802260398E+02  0.36011911699E+02  0.78675956504E+02  0.87620010889E+02  0.00000000000E+00 0. -1.
         -2    1    1    2    0  502 -0.52560816973E+02  0.57127984345E+02  0.11458746461E+03  0.13840712815E+03  0.00000000000E+00 0.  1.
<scales pt_clust_5="13000.00000" pt_clust_6="13000.00000" pt_clust_7="13000.00000" pt_clust_8="13000.00000" pt_clust_9="77.62890"></scales>
<clustering>
<clus scale="   74.479">  5  6 -1 -1</clus>
<clus scale="   77.629">  1  9  2 -1</clus>
<clus scale="   92.403">  7  8 -1 -1</clus>
<clus scale="  117.378">  2  5  1 -1</clus>
<clus scale="   77.629">  1  5  2 -1</clus>
</clustering>
</event>
<event>
 9    2  0.9254368E-005  0.1796607E+03  0.7546771E-02  0.1169048E+00
         -3   -1    0    0    0  501 -0.00000000000E+00  0.00000000000E+00  0.62174548606E+03  0.62174548606E+03  0.00000000000E+00 0.  1.
         21   -1    0    0  501  502  0.00000000000E+00 -0.00000000000E+00 -0.13045821997E+03  0.13045821997E+03  0.00000000000E+00 0.  1.
         24    2    1    2    0    0  0.12064302758E+03  0.67627663980E+02  0.29706908477E+03  0.33852762124E+03  0.84986282284E+02 0.  0.
         23    2    1    2    0    0 -0.12499334937E+03 -0.14410260019E+03  0.24330186314E+03  0.32270054419E+03  0.92471335272E+02 0.  0.
        -13    1    3    3    0    0  0.67647375344E+02 -0.99078724923E+01  0.12126898508E+03  0.13921386451E+03  0.00000000000E+00 0.  1.
         14    1    3    3    0    0  0.52995652232E+02  0.77535536472E+02  0.17580009969E+03  0.19931375673E+03  0.00000000000E+00 0. -1.
        -13    1    4    4    0    0 -0.60374525310E+02 -0.96683289473E+02  0.75452008021E+02  0.13669582029E+03  0.00000000000E+00 0. -1.
         13    1    4    4    0    0 -0.64618824058E+02 -0.47419310715E+02  0.16784985511E+03  0.18600472390E+03  0.00000000000E+00 0.  1.
         -4    1    1    2    0  502  0.43503217919E+01  0.76474936208E+02 -0.49083681811E+02  0.90975540602E+02  0.00000000000E+00 0.  1.
<scales pt_clust_5="13000.00000" pt_clust_6="13000.00000" pt_clust_7="13000.00000" pt_clust_8="13000.00000" pt_clust_9="76.59857"></scales>
<clustering>
<clus scale="   76.599">  2  9  1 -1</clus>
<clus scale="   84.986">  5  6 -1 -1</clus>
<clus scale="   92.471">  7  8 -1 -1</clus>
<clus scale="  175.925">  1  5  2 -1</clus>
<clus scale="   76.599">  2  5  1 -1</clus>
</clustering>
</event>
<event>
 9    2  0.9254368E-005  0.1302193E+03  0.7546771E-02  0.1230255E+00
         21   -1    0    0  501  502  0.00000000000E+00  0.00000000000E+00  0.81530152025E+02  0.81530152025E+02  0.00000000000E+00 0. -1.
          2   -1    0    0  502    0 -0.00000000000E+00 -0.00000000000E+00 -0.78345607642E+03  0.78345607642E+03  0.00000000000E+00 0. -1.
         24    2    1    2    0    0  0.92121097152E+02  0.32217037994E+02 -0.64052753678E+03  0.65282664670E+03  0.79892873261E+02 0.  0.
         23    2    1    2    0    0 -0.61017969975E+02 -0.37235381155E+02 -0.10607989549E+03  0.15748760140E+03  0.91868025439E+02 0.  0.
        -11    1    3    3    0    0  0.21237813038E+02 -0.18753635881E+02 -0.67785566383E+02  0.73468541372E+02  0.00000000000E+00 0.  1.
         12    1    3    3    0    0  0.70883284114E+02  0.50970673875E+02 -0.57274197040E+03  0.57935810533E+03  0.00000000000E+00 0. -1.
        -13    1    4    4    0    0 -0.57440410975E+02 -0.14606264548E+02 -0.11771395711E+03  0.13179271404E+03  0.00000000000E+00 0.  1.
         13    1    4    4    0    0 -0.35775590001E+01 -0.22629116606E+02  0.11634061614E+02  0.25694887360E+02  0.00000000000E+00 0. -1.
          1    1    1    2  501    0 -0.31103127177E+02  0.50183431609E+01  0.44681507875E+02  0.54671980340E+02  0.00000000000E+00 0. -1.
<scales pt_clust_5="13000.00000" pt_clust_6="13000.00000" pt_clust_7="13000.00000" pt_clust_8="13000.00000" pt_clust_9="31.50537"></scales>
<clustering>
<clus scale="   31.505">  1  9  2 -1</clus>
<clus scale="   79.893">  5  6 -1 -1</clus>
<clus scale="   91.868">  7  8 -1 -1</clus>
<clus scale="  122.066">  2  5  1 -1</clus>
<clus scale="   31.505">  1  5  2 -1</clus>
</clustering>
</event>
<event>
 9    2  0.9254368E-005  0.9451467E+02  0.7546771E-02  0.1295397E+00
          2   -1    0    0  502    0 -0.00000000000E+00  0.00000000000E+00  0.29040054593E+03  0.29040054593E+03  0.00000000000E+00 0. -1.
         21   -1    0    0  501  502  0.00000000000E+00 -0.00000000000E+00 -0.28322373312E+03  0.28322373312E+03  0.00000000000E+00 0. -1.
         24    2    1    2    0    0  0.14831397283E+02  0.17345290370E+02  0.61590518969E+02  0.10828303089E+03  0.86087126265E+02 0.  0.
         23    2    1    2    0    0 -0.67012396698E+02  0.33239361696E+02 -0.23916512021E+03  0.26680976774E+03  0.91607756007E+02 0.  0.
        -11    1    3    3    0    0  0.45060896555E+02  0.54359644202E+01  0.60683639926E+02  0.75779537226E+02  0.00000000000E+00 0.  1.
         12    1    3    3    0    0 -0.30229499272E+02  0.11909325949E+02  0.90687904296E+00  0.32503493665E+02  0.00000000000E+00 0. -1.
        -11    1    4    4    0    0 -0.43601556731E+01  0.32081211906E+02 -0.17172758080E+03  0.17475290305E+03  0.00000000000E+00 0. -1.
         11    1    4    4    0    0 -0.62652241025E+02  0.11581497906E+01 -0.67437539408E+02  0.92056864697E+02  0.00000000000E+00 0.  1.
          1    1    1    2  501    0  0.52180999415E+02 -0.50584652066E+02  0.18475141405E+03  0.19853148042E+03  0.00000000000E+00 0. -1.
<scales pt_clust_5="13000.00000" pt_clust_6="13000.00000" pt_clust_7="13000.00000" pt_clust_8="13000.00000" pt_clust_9="72.67509"></scales>
<clustering>
<clus scale="   72.675">  2  9  1 -1</clus>
<clus scale="   86.087">  5  6 -1 -1</clus>
<clus scale="   89.174">  1  5  2 -1</clus>
<clus scale="   91.608">  7  8 -1 -1</clus>
<clus scale="   72.675">  2  5  1 -1</clus>
</clustering>
</event>
<event>
 9    2  0.9254368E-005  0.9053332E+02  0.7546771E-02  0.1302537E+00
         21   -1    0    0  501  502  0.00000000000E+00  0.00000000000E+00  0.45700652161E+02  0.45700652161E+02  0.00000000000E+00 0.  1.
         -1   -1    0    0    0  501 -0.00000000000E+00 -0.00000000000E+00 -0.68430216667E+03  0.68430216667E+03  0.00000000000E+00 0.  1.
         23    2    1    2    0    0 -0.51236147188E+02 -0.26320625296E+02 -0.48270902653E+03  0.49258931426E+03  0.79487798679E+02 0.  0.
         24    2    1    2    0    0  0.33451406803E+01  0.60183083913E+01 -0.16550763836E+03  0.18451564363E+03  0.81276284281E+02 0.  0.
        -13    1    4    4    0    0  0.72069066421E+01 -0.37343004980E+02 -0.77878995018E+02  0.86669356691E+02  0.00000000000E+00 0.  1.
         14    1    4    4    0    0 -0.38617659619E+01  0.43361313372E+02 -0.87628643339E+02  0.97846286936E+02  0.00000000000E+00 0. -1.
        -11    1    3    3    0    0 -0.71648589056E+02 -0.16209131885E+02 -0.40508831317E+03  0.41169503002E+03  0.00000000000E+00 0.  1.
         11    1    3    3    0    0  0.20412441868E+02 -0.10111493411E+02 -0.77620713352E+02  0.80894284244E+02  0.00000000000E+00 0. -1.
         -2    1    1    2    0  502  0.47891006508E+02  0.20302316904E+02  0.96151503717E+01  0.52897860946E+02  0.00000000000E+00 0.  1.
<scales pt_clust_5="13000.00000" pt_clust_6="13000.00000" pt_clust_7="13000.00000" pt_clust_8="13000.00000" pt_clust_9="52.01666"></scales>
<clustering>
<clus scale="   52.017">  1  9  2 -1</clus>
<clus scale="   79.488">  7  8 -1 -1</clus>
<clus scale="   81.276">  5  6 -1 -1</clus>
<clus scale="   88.931">  2  7  1 -1</clus>
<clus scale="   52.017">  1  5  2 -1</clus>
</clustering>
</event>
<event>
 9    2  0.9254368E-005  0.9540158E+02  0.7546771E-02  0.1295978E+00
         21   -1    0    0  501  502  0.00000000000E+00  0.00000000000E+00  0.52002317409E+02  0.52002317409E+02  0.00000000000E+00 0.  1.
         -1   -1    0    0    0  501 -0.00000000000E+00 -0.00000000000E+00 -0.25210637644E+03  0.25210637644E+03  0.00000000000E+00 0.  1.
         23    2    1    2    0    0 -0.31126617518E+02 -0.30314745651E+02 -0.12922825903E+03  0.16352721438E+03  0.90295940039E+02 0.  0.
         24    2    1    2    0    0  0.21363832596E+02 -0.11848117009E+01 -0.68499570391E+02  0.10751819848E+03  0.80063441966E+02 0.  0.
        -11    1    4    4    0    0  0.41748555583E+02 -0.27192952502E+02 -0.41746210666E+02  0.65001112791E+02  0.00000000000E+00 0.  1.
         12    1    4    4    0    0 -0.20384722987E+02  0.26008140801E+02 -0.26753359725E+02  0.42517085692E+02  0.00000000000E+00 0. -1.
        -13    1    3    3    0    0  0.17368015599E+02 -0.27037592923E+02 -0.10382377512E+03  0.10868328149E+03  0.00000000000E+00 0. -1.
         13    1    3    3    0    0 -0.48494633117E+02 -0.32771527283E+01 -0.25404483916E+02  0.54843932884E+02  0.00000000000E+00 0.  1.
         -2    1    1    2    0  502  0.97627849218E+01  0.31499557352E+02 -0.23762296109E+01  0.33063280992E+02  0.00000000000E+00 0.  1.
<scales pt_clust_5="13000.00000" pt_clust_6="13000.00000" pt_clust_7="13000.00000" pt_clust_8="13000.00000" pt_clust_9="32.97778"></scales>
<clustering>
<clus scale="   32.978">  1  9  2 -1</clus>
<clus scale="   80.063">  5  6 -1 -1</clus>
<clus scale="   85.780">  1  5  2 -1</clus>
<clus scale="   90.296">  7  8 -1 -1</clus>
<clus scale="   32.978">  1  5  2 -1</clus>
</clustering>
</event>
<event>
 9    2  0.9254368E-005  0.3045016E+03  0.7546771E-02  0.1084014E+00
         21   -1    0    0  501  502  0.00000000000E+00  0.00000000000E+00  0.32788512093E+03  0.32788512093E+03  0.00000000000E+00 0.  1.
          2   -1    0    0  502    0 -0.00000000000E+00 -0.00000000000E+00 -0.58736189680E+03  0.58736189680E+03  0.00000000000E+00 0. -1.
         23    2    1    2    0    0  0.25081059270E+03 -0.14178042370E+03 -0.28778489366E+03  0.42082527560E+03  0.10614200680E+03 0.  0.
         24    2    1    2    0    0 -0.16942269213E+03  0.24790309699E+03 -0.81601058678E+02  0.32131472547E+03  0.80152516624E+02 0.  0.
        -11    1    4    4    0    0 -0.14685024512E+03  0.23936202912E+03 -0.56410088153E+02  0.28642847889E+03  0.00000000000E+00 0.  1.
         12    1    4    4    0    0 -0.22572447007E+02  0.85410678729E+01 -0.25190970524E+02  0.34886246578E+02  0.00000000000E+00 0. -1.
        -11    1    3    3    0    0  0.16331417082E+03 -0.36198591678E+02 -0.13051252254E+03  0.21216827041E+03  0.00000000000E+00 0.  1.
         11    1    3    3    0    0  0.87496421886E+02 -0.10558183202E+03 -0.15727237112E+03  0.20865700519E+03  0.00000000000E+00 0. -1.
          1    1    1    2  501    0 -0.81387900573E+02 -0.10612267329E+03  0.10990917646E+03  0.17310701666E+03  0.00000000000E+00 0. -1.
<scales pt_clust_5="13000.00000" pt_clust_6="13000.00000" pt_clust_7="13000.00000" pt_clust_8="13000.00000" pt_clust_9="133.73860"></scales>
<clustering>
<clus scale="   80.153">  5  6 -1 -1</clus>
<clus scale="  106.142">  7  8 -1 -1</clus>
<clus scale="  133.739">  1  9  2 -1</clus>
<clus scale="  296.445">  1  5  2 -1</clus>
<clus scale="  133.739">  1  5  2 -1</clus>
</clustering>
</event>
<event>
 9    2  0.9254368E-005  0.1702595E+03  0.7546771E-02  0.1179402E+00
         21   -1    0    0  501  502  0.00000000000E+00  0.00000000000E+00  0.12342000543E+03  0.12342000543E+03  0.00000000000E+00 0.  1.
         -1   -1    0    0    0  501 -0.00000000000E+00 -0.00000000000E+00 -0.29208580625E+03  0.29208580625E+03  0.00000000000E+00 0.  1.
         24    2    1    2    0    0 -0.12504324737E+03  0.81554456462E+02 -0.80098149348E+02  0.18614576127E+03  0.77120605717E+02 0.  0.
         23    2    1    2    0    0  0.10507403935E+03 -0.89381304753E+02 -0.31108733742E+02  0.16802852466E+03  0.90753845100E+02 0.  0.
        -13    1    3    3    0    0 -0.13117257295E+03  0.57566524260E+02 -0.67167235019E+02  0.15821373541E+03  0.00000000000E+00 0.  1.
         14    1    3    3    0    0  0.61293255802E+01  0.23987932201E+02 -0.12930914328E+02  0.27932025862E+02  0.00000000000E+00 0. -1.
        -13    1    4    4    0    0  0.60943687370E+02 -0.73067607007E+02 -0.60312581149E+02  0.11265263276E+03  0.00000000000E+00 0.  1.
         13    1    4    4    0    0  0.44130351981E+02 -0.16313697746E+02  0.29203847408E+02  0.55375891898E+02  0.00000000000E+00 0. -1.
         -2    1    1    2    0  502  0.19969208023E+02  0.78268482911E+01 -0.57458917733E+02  0.61331525745E+02  0.00000000000E+00 0.  1.
<scales pt_clust_5="13000.00000" pt_clust_6="13000.00000" pt_clust_7="13000.00000" pt_clust_8="13000.00000" pt_clust_9="21.44829"></scales>
<clustering>
<clus scale="   21.448">  1  9  2 -1</clus>
<clus scale="   77.121">  5  6 -1 -1</clus>
<clus scale="   90.754">  7  8 -1 -1</clus>
<clus scale="  163.400">  2  5  1 -1</clus>
<clus scale="   21.448">  1  5  2 -1</clus>
</clustering>
</event>
<event>
 9    2  0.9254368E-005  0.1475436E+03  0.7546771E-02  0.1218543E+00
          2   -1    0    0  502    0 -0.00000000000E+00  0.00000000000E+00  0.70752229301E+03  0.70752229301E+03  0.00000000000E+00 0. -1.
         21   -1    0    0  501  502  0.00000000000E+00 -0.00000000000E+00 -0.75099194578E+03  0.75099194578E+03  0.00000000000E+00 0.  1.
         24    2    1    2    0    0 -0.10808336033E+02 -0.57824345086E+02 -0.36021951197E+03  0.37581012185E+03  0.89524722099E+02 0.  0.
         23    2    1    2    0    0 -0.86834561832E+02 -0.61186849728E+01  0.68496355881E+03  0.69643455409E+03  0.90930367870E+02 0.  0.
        -11    1    3    3    0    0  0.16464414682E+02 -0.70883988035E+02 -0.29620467880E+03  0.30501283326E+03  0.00000000000E+00 0.  1.
         12    1    3    3    0    0 -0.27272750714E+02  0.13059642950E+02 -0.64014833170E+02  0.70797288587E+02  0.00000000000E+00 0. -1.
        -11    1    4    4    0    0 -0.94383285908E+02 -0.31385363375E+02  0.53361866003E+03  0.54280946936E+03  0.00000000000E+00 0. -1.
         11    1    4    4    0    0  0.75487240756E+01  0.25266678402E+02  0.15134489878E+03  0.15362508474E+03  0.00000000000E+00 0.  1.
          1    1    1    2  501    0  0.97642897865E+02  0.63943030058E+02 -0.36821369962E+03  0.38626956285E+03  0.00000000000E+00 0. -1.
<scales pt_clust_5="13000.00000" pt_clust_6="13000.00000" pt_clust_7="13000.00000" pt_clust_8="13000.00000" pt_clust_9="116.19286"></scales>
<clustering>
<clus scale="   89.525">  5  6 -1 -1</clus>
<clus scale="   90.930">  7  8 -1 -1</clus>
<clus scale="  107.122">  1  5  2 -1</clus>
<clus scale="  116.193">  2  9  1 -1</clus>
<clus scale="  116.193">  2  5  1 -1</clus>
</clustering>
</event>
<event>
 9    2  0.9254368E-005  0.1436954E+03  0.7546771E-02  0.1210843E+00
         21   -1    0    0  501  502  0.00000000000E+00  0.00000000000E+00  0.32221518221E+03  0.32221518221E+03  0.00000000000E+00 0.  1.
         -1   -1    0    0    0  501 -0.00000000000E+00 -0.00000000000E+00 -0.81222657188E+02  0.81222657188E+02  0.00000000000E+00 0.  1.
         24    2    1    2    0    0 -0.28644060169E+01 -0.10028363303E+03  0.66443881811E+02  0.14332031378E+03  0.77851853128E+02 0.  0.
         23    2    1    2    0    0 -0.20338672569E+01  0.13258466210E+03  0.14577953696E+03  0.21658580116E+03  0.89860484249E+02 0.  0.
        -11    1    3    3    0    0 -0.34993863872E+02 -0.75862732844E+02  0.59012428241E+02  0.10228485435E+03  0.00000000000E+00 0.  1.
         12    1    3    3    0    0  0.32129457855E+02 -0.24420900191E+02  0.74314535700E+01  0.41035459427E+02  0.00000000000E+00 0. -1.
        -11    1    4    4    0    0 -0.39935382505E+02  0.85196135659E+02  0.11486714334E+03  0.14848460165E+03  0.00000000000E+00 0.  1.
         11    1    4    4    0    0  0.37901515248E+02  0.47388526437E+02  0.30912393616E+02  0.68101199513E+02  0.00000000000E+00 0. -1.
         -2    1    1    2    0  502  0.48982732738E+01 -0.32301029062E+02  0.28769106251E+02  0.43531724455E+02  0.00000000000E+00 0.  1.
<scales pt_clust_5="13000.00000" pt_clust_6="13000.00000" pt_clust_7="13000.00000" pt_clust_8="13000.00000" pt_clust_9="32.67032"></scales>
<clustering>
<clus scale="   32.670">  1  9  2 -1</clus>
<clus scale="   77.852">  5  6 -1 -1</clus>
<clus scale="   89.860">  7  8 -1 -1</clus>
<clus scale="  136.508">  2  5  1 -1</clus>
<clus scale="   32.670">  1  5  2 -1</clus>
</clustering>
</event>
<event>
 9    2  0.9254368E-005  0.1758015E+03  0.7546771E-02  0.1172732E+00
          2   -1    0    0  502    0 -0.00000000000E+00  0.00000000000E+00  0.29531489155E+03  0.29531489155E+03  0.00000000000E+00 0. -1.
         21   -1    0    0  501  502  0.00000000000E+00 -0.00000000000E+00 -0.76257834918E+03  0.76257834918E+03  0.00000000000E+00 0. -1.
         24    2    1    2    0    0 -0.11739265561E+03 -0.96280181234E+02  0.23307841139E+03  0.29008380758E+03  0.82293138662E+02 0.  0.
         23    2    1    2    0    0  0.49559560135E+02  0.17318560250E+03 -0.35850703834E+03  0.41092454397E+03  0.88782213204E+02 0.  0.
        -13    1    3    3    0    0 -0.34653065216E+02 -0.51222335847E+02  0.35785445499E+02  0.71450407473E+02  0.00000000000E+00 0.  1.
         14    1    3    3    0    0 -0.82739590391E+02 -0.45057845387E+02  0.19729296589E+03  0.21863340010E+03  0.00000000000E+00 0. -1.
        -11    1    4    4    0    0  0.45043789907E+02  0.11207145401E+03 -0.14458350711E+03  0.18839677370E+03  0.00000000000E+00 0.  1.
         11    1    4    4    0    0  0.45157702281E+01  0.61114148497E+02 -0.21392353123E+03  0.22252777027E+03  0.00000000000E+00 0. -1.
          1    1    1    2  501    0  0.67833095472E+02 -0.76905421269E+02 -0.34183483069E+03  0.35688488919E+03  0.00000000000E+00 0. -1.
<scales pt_clust_5="13000.00000" pt_clust_6="13000.00000" pt_clust_7="13000.00000" pt_clust_8="13000.00000" pt_clust_9="102.54644"></scales>
<clustering>
<clus scale="   82.293">  5  6 -1 -1</clus>
<clus scale="   88.782">  7  8 -1 -1</clus>
<clus scale="  102.546">  2  9  1 -1</clus>
<clus scale="  172.615">  1  5  2 -1</clus>
<clus scale="  102.546">  2  5  1 -1</clus>
</clustering>
</event>
<event>
 9    2  0.9254368E-005  0.1061642E+03  0.7546771E-02  0.1275436E+00
         21   -1    0    0  501  502  0.00000000000E+00  0.00000000000E+00  0.15247287556E+03  0.15247287556E+03  0.00000000000E+00 0.  1.
          2   -1    0    0  502    0 -0.00000000000E+00 -0.00000000000E+00 -0.72514216345E+03  0.72514216345E+03  0.00000000000E+00 0. -1.
         23    2    1    2    0    0  0.43369115213E+02  0.22845577873E+02 -0.45767303240E+03  0.46967887464E+03  0.93438964643E+02 0.  0.
         24    2    1    2    0    0 -0.63156294521E+02 -0.59162930949E+02  0.12159342867E+03  0.16775881063E+03  0.76609964836E+02 0.  0.
        -11    1    4    4    0    0 -0.72958983159E+02 -0.33147276160E+02  0.11324606016E+03  0.13873148626E+03  0.00000000000E+00 0.  1.
         12    1    4    4    0    0  0.98026886375E+01 -0.26015654789E+02  0.83473685106E+01  0.29027324363E+02  0.00000000000E+00 0. -1.
        -11    1    3    3    0    0 -0.52733947850E+01 -0.25654719381E+02 -0.51914261194E+02  0.58146915949E+02  0.00000000000E+00 0. -1.
         11    1    3    3    0    0  0.48642509998E+02  0.48500297254E+02 -0.40575877120E+03  0.41153195869E+03  0.00000000000E+00 0.  1.
          1    1    1    2  501    0  0.19787179309E+02  0.36317353076E+02 -0.23658968417E+03  0.24017735375E+03  0.00000000000E+00 0. -1.
<scales pt_clust_5="13000.00000" pt_clust_6="13000.00000" pt_clust_7="13000.00000" pt_clust_8="13000.00000" pt_clust_9="41.35800"></scales>
<clustering>
<clus scale="   41.358">  1  9  2 -1</clus>
<clus scale="   76.610">  5  6 -1 -1</clus>
<clus scale="   91.701">  1  5  2 -1</clus>
<clus scale="   93.439">  7  8 -1 -1</clus>
<clus scale="   41.358">  1  5  2 -1</clus>
</clustering>
</event>
<event>
 9    2  0.9254368E-005  0.9970956E+02  0.7546771E-02  0.1287383E+00
         21   -1    0    0  501  502  0.00000000000E+00  0.00000000000E+00  0.25654961887E+02  0.25654961887E+02  0.00000000000E+00 0.  1.
          2   -1    0    0  502    0 -0.00000000000E+00 -0.00000000000E+00 -0.94386063297E+03  0.94386063297E+03  0.00000000000E+00 0. -1.
         24    2    1    2    0    0 -0.15103762358E+02  0.31653549928E+01 -0.19854622775E+03  0.21435195703E+03  0.79296997546E+02 0.  0.
         23    2    1    2    0    0  0.84115450474E+02  0.56013547517E+01 -0.23983981903E+03  0.27032723226E+03  0.91906961245E+02 0.  0.
        -13    1    3    3    0    0 -0.41073959330E+02 -0.56660647037E+01 -0.58859209549E+02  0.71997090032E+02  0.00000000000E+00 0.  1.
         14    1    3    3    0    0  0.25970196972E+02  0.88314196966E+01 -0.13968701820E+03  0.14235486700E+03  0.00000000000E+00 0. -1.
        -11    1    4    4    0    0  0.46215980040E+02  0.45231282854E+02 -0.90430801941E+02  0.11117335877E+03  0.00000000000E+00 0.  1.
         11    1    4    4    0    0  0.37899470434E+02 -0.39629928102E+02 -0.14940901709E+03  0.15915387349E+03  0.00000000000E+00 0. -1.
          1    1    1    2  501    0 -0.69011688116E+02 -0.87667097445E+01 -0.47981962430E+03  0.48483640556E+03  0.00000000000E+00 0. -1.
<scales pt_clust_5="13000.00000" pt_clust_6="13000.00000" pt_clust_7="13000.00000" pt_clust_8="13000.00000" pt_clust_9="69.56632"></scales>
<clustering>
<clus scale="   69.566">  1  9  2 -1</clus>
<clus scale="   79.297">  5  6 -1 -1</clus>
<clus scale="   88.222">  2  5  1 -1</clus>
<clus scale="   91.907">  7  8 -1 -1</clus>
<clus scale="   69.566">  1  5  2 -1</clus>
</clustering>
</event>
<event>
 9    2  0.9254368E-005  0.2114278E+03  0.7546771E-02  0.1147059E+00
         21   -1    0    0  501  502  0.00000000000E+00  0.00000000000E+00  0.54297909995E+03  0.54297909995E+03  0.00000000000E+00 0.  1.
         -1   -1    0    0    0  501 -0.00000000000E+00 -0.00000000000E+00 -0.30101352593E+03  0.30101352593E+03  0.00000000000E+00 0.  1.
         23    2    1    2    0    0  0.10989908595E+03  0.10748465770E+03  0.32680337942E+03  0.37330016161E+03  0.94455286363E+02 0.  0.
         24    2    1    2    0    0  0.14678701817E+03 -0.99359307406E+02  0.11444185400E+02  0.19642252586E+03  0.83857847646E+02 0.  0.
        -13    1    4    4    0    0  0.12350448732E+03 -0.91856513548E+02 -0.21475216411E+02  0.15540965990E+03  0.00000000000E+00 0.  1.
         14    1    4    4    0    0  0.23282530852E+02 -0.75027938575E+01  0.32919401810E+02  0.41012865958E+02  0.00000000000E+00 0. -1.
        -13    1    3    3    0    0  0.25934378046E+02 -0.15563150222E+02  0.40342452405E+02  0.50421395018E+02  0.00000000000E+00 0. -1.
         13    1    3    3    0    0  0.83964707900E+02  0.12304780793E+03  0.28646092702E+03  0.32287876659E+03  0.00000000000E+00 0.  1.
         -2    1    1    2    0  502 -0.25668610412E+03 -0.81253502981E+01 -0.96281990796E+02  0.27426993841E+03  0.00000000000E+00 0.  1.
<scales pt_clust_5="13000.00000" pt_clust_6="13000.00000" pt_clust_7="13000.00000" pt_clust_8="13000.00000" pt_clust_9="194.08666"></scales>
<clustering>
<clus scale="   83.858">  5  6 -1 -1</clus>
<clus scale="   94.455">  7  8 -1 -1</clus>
<clus scale="  180.423">  2  7  1 -1</clus>
<clus scale="  194.087">  1  9  2 -1</clus>
<clus scale="  194.087">  1  5  2 -1</clus>
</clustering>
</event>
<event>
 9    2  0.9254368E-005  0.1111118E+03  0.7546771E-02  0.1264352E+00
         21   -1    0    0  501  502  0.00000000000E+00  0.00000000000E+00  0.15743148392E+03  0.15743148392E+03  0.00000000000E+00 0.  1.
          2   -1    0    0  502    0 -0.00000000000E+00 -0.00000000000E+00 -0.21918011214E+03  0.21918011214E+03  0.00000000000E+00 0. -1.
         24    2    1    2    0    0  0.47593126939E+02 -0.31673229293E+02 -0.13040708256E+03  0.16387141211E+03  0.81114322639E+02 0.  0.
         23    2    1    2    0    0 -0.75901381681E+02 -0.20950720523E+02  0.85837141613E+02  0.15056507094E+03  0.95403738274E+02 0.  0.
        -13    1    3    3    0    0  0.39235812403E+02 -0.42462372633E+01 -0.12928843237E+03  0.13517758043E+03  0.00000000000E+00 0.  1.
         14    1    3    3    0    0  0.83573145364E+01 -0.27426992030E+02 -0.11186501935E+01  0.28693831678E+02  0.00000000000E+00 0. -1.
        -11    1    4    4    0    0 -0.62781026222E+02 -0.27270253958E+01  0.10411625975E+03  0.12161040032E+03  0.00000000000E+00 0.  1.
         11    1    4    4    0    0 -0.13120355459E+02 -0.18223695127E+02 -0.18279118135E+02  0.28954670629E+02  0.00000000000E+00 0. -1.
          1    1    1    2  501    0  0.28308254742E+02  0.52623949816E+02 -0.17178687267E+02  0.62175113004E+02  0.00000000000E+00 0. -1.
<scales pt_clust_5="13000.00000" pt_clust_6="13000.00000" pt_clust_7="13000.00000" pt_clust_8="13000.00000" pt_clust_9="59.75484"></scales>
<clustering>
<clus scale="   59.755">  1  9  2 -1</clus>
<clus scale="   81.114">  5  6 -1 -1</clus>
<clus scale="   95.404">  7  8 -1 -1</clus>
<clus scale="   99.114">  2  5  1 -1</clus>
<clus scale="   59.755">  1  5  2 -1</clus>
</clustering>
</event>
<event>
 9    2  0.9254368E-005  0.8614474E+02  0.7546771E-02  0.1317109E+00
         -1   -1    0    0    0  501 -0.00000000000E+00  0.00000000000E+00  0.16301295310E+03  0.16301295310E+03  0.00000000000E+00 0.  1.
         21   -1    0    0  501  502  0.00000000000E+00 -0.00000000000E+00 -0.17290870921E+03  0.17290870921E+03  0.00000000000E+00 0.  1.
         23    2    1    2    0    0  0.15990509381E+02 -0.35611481482E+01  0.12082448564E+03  0.14842591978E+03  0.84636393868E+02 0.  0.
         24    2    1    2    0    0 -0.15655694461E+02 -0.41387070851E+02 -0.82830978410E+02  0.12181594324E+03  0.77589707054E+02 0.  0.
        -13    1    4    4    0    0  0.31077875628E+02 -0.24539345117E+02 -0.34830524165E+02  0.52736886767E+02  0.00000000000E+00 0.  1.
         14    1    4    4    0    0 -0.46733570089E+02 -0.16847725734E+02 -0.48000454245E+02  0.69079056474E+02  0.00000000000E+00 0. -1.
        -11    1    3    3    0    0 -0.19588744606E+02  0.21474323521E+02  0.12403785864E+02  0.31602521888E+02  0.00000000000E+00 0. -1.
         11    1    3    3    0    0  0.35579253987E+02 -0.25035471669E+02  0.10842069977E+03  0.11682339789E+03  0.00000000000E+00 0.  1.
         -2    1    1    2    0  502 -0.33481491976E+00  0.44948218999E+02 -0.47889263331E+02  0.65679799289E+02  0.00000000000E+00 0.  1.
<scales pt_clust_5="13000.00000" pt_clust_6="13000.00000" pt_clust_7="13000.00000" pt_clust_8="13000.00000" pt_clust_9="44.94947"></scales>
<clustering>
<clus scale="   44.949">  2  9  1 -1</clus>
<clus scale="   77.590">  5  6 -1 -1</clus>
<clus scale="   79.232">  2  5  1 -1</clus>
<clus scale="   84.636">  7  8 -1 -1</clus>
<clus scale="   44.949">  2  5  1 -1</clus>
</clustering>
</event>
<event>
 9    2  0.9254368E-005  0.1804658E+03  0.7546771E-02  0.1179123E+00
         21   -1    0    0  501  502  0.00000000000E+00  0.00000000000E+00  0.50981866968E+03  0.50981866968E+03  0.00000000000E+00 0. -1.
          2   -1    0    0  502    0 -0.00000000000E+00 -0.00000000000E+00 -0.19277439769E+03  0.19277439769E+03  0.00000000000E+00 0. -1.
         23    2    1    2    0    0  0.98286366387E+02  0.30199781852E+02  0.31531250986E+03  0.34422089733E+03  0.92161871971E+02 0.  0.
         24    2    1    2    0    0 -0.14665692382E+03  0.10961680082E+03 -0.25596289161E+02  0.20792214511E+03  0.95143849431E+02 0.  0.
        -11    1    4    4    0    0 -0.57965448688E+02  0.58582499244E+02 -0.57784453887E+02  0.10065259843E+03  0.00000000000E+00 0.  1.
         12    1    4    4    0    0 -0.88691475128E+02  0.51034301572E+02  0.32188164726E+02  0.10726954668E+03  0.00000000000E+00 0. -1.
        -13    1    3    3    0    0  0.33988002284E+02  0.44928911351E+00  0.17761635117E+02  0.38351816671E+02  0.00000000000E+00 0.  1.
         13    1    3    3    0    0  0.64298364103E+02  0.29750492738E+02  0.29755087474E+03  0.30586908066E+03  0.00000000000E+00 0. -1.
          1    1    1    2  501    0  0.48370557429E+02 -0.13981658267E+03  0.27328051292E+02  0.15045002493E+03  0.00000000000E+00 0. -1.
<scales pt_clust_5="13000.00000" pt_clust_6="13000.00000" pt_clust_7="13000.00000" pt_clust_8="13000.00000" pt_clust_9="153.34779"></scales>
<clustering>
<clus scale="   92.162">  7  8 -1 -1</clus>
<clus scale="   95.144">  5  6 -1 -1</clus>
<clus scale="  138.080">  2  7  1 -1</clus>
<clus scale="  153.348">  1  9  2 -1</clus>
<clus scale="  153.348">  1  5  2 -1</clus>
</clustering>
</event>
<event>
 9    2  0.9254368E-005  0.1112923E+03  0.7546771E-02  0.1262019E+00
         -1   -1    0    0    0  501 -0.00000000000E+00  0.00000000000E+00  0.28882065397E+03  0.28882065397E+03  0.00000000000E+00 0.  1.
         21   -1    0    0  501  502  0.00000000000E+00 -0.00000000000E+00 -0.51147569227E+02  0.51147569227E+02  0.00000000000E+00 0.  1.
         24    2    1    2    0    0  0.71750871823E+01  0.71921813996E+02  0.13609407984E+03  0.17406367332E+03  0.80946492183E+02 0.  0.
         23    2    1    2    0    0  0.96947353264E+01 -0.53137292129E+02  0.79371817866E+02  0.13228003011E+03  0.90997588912E+02 0.  0.
        -11    1    3    3    0    0  0.18049204135E+02  0.84621018070E+02  0.13021620921E+03  0.15634177820E+03  0.00000000000E+00 0.  1.
         12    1    3    3    0    0 -0.10874116953E+02 -0.12699204074E+02  0.58778706372E+01  0.17721895125E+02  0.00000000000E+00 0. -1.
        -13    1    4    4    0    0  0.40866527427E+02 -0.60489872949E+02  0.47483947945E+02  0.87085148594E+02  0.00000000000E+00 0.  1.
         13    1    4    4    0    0 -0.31171792101E+02  0.73525808193E+01  0.31887869921E+02  0.45194881520E+02  0.00000000000E+00 0. -1.
         -2    1    1    2    0  502 -0.16869822509E+02 -0.18784521867E+02  0.22207187032E+02  0.33624519761E+02  0.00000000000E+00 0.  1.
<scales pt_clust_5="13000.00000" pt_clust_6="13000.00000" pt_clust_7="13000.00000" pt_clust_8="13000.00000" pt_clust_9="25.24776"></scales>
<clustering>
<clus scale="   25.248">  2  9  1 -1</clus>
<clus scale="   80.946">  5  6 -1 -1</clus>
<clus scale="   90.998">  7  8 -1 -1</clus>
<clus scale="  103.236">  1  5  2 -1</clus>
<clus scale="   25.248">  2  5  1 -1</clus>
</clustering>
</event>
<event>
 9    2  0.9254368E-005  0.9865401E+02  0.7546771E-02  0.1288675E+00
         21   -1    0    0  501  502  0.00000000000E+00  0.00000000000E+00  0.14044081752E+03  0.14044081752E+03  0.00000000000E+00 0.  1.
          4   -1    0    0  502    0 -0.00000000000E+00 -0.00000000000E+00 -0.14610570699E+03  0.14610570699E+03  0.00000000000E+00 0. -1.
         24    2    1    2    0    0 -0.27324695661E+02 -0.35398741884E+02 -0.44968964254E+02  0.10031617854E+03  0.77726559238E+02 0.  0.
         23    2    1    2    0    0 -0.94844584733E+01  0.49869660979E+02  0.79761154869E+02  0.12965211115E+03  0.88718036835E+02 0.  0.
        -13    1    3    3    0    0 -0.44671658097E+02 -0.44085816654E+02 -0.14859062394E+02  0.64497348802E+02  0.00000000000E+00 0.  1.
         14    1    3    3    0    0  0.17346962436E+02  0.86870747706E+01 -0.30109901860E+02  0.35818829739E+02  0.00000000000E+00 0. -1.
        -11    1    4    4    0    0 -0.38351325893E+02  0.43360281236E+02  0.81549656928E+02  0.10000642345E+03  0.00000000000E+00 0.  1.
         11    1    4    4    0    0  0.28866867420E+02  0.65093797430E+01 -0.17885020586E+01  0.29645687694E+02  0.00000000000E+00 0. -1.
          3    1    1    2  501    0  0.36809154134E+02 -0.14470919095E+02 -0.40457080085E+02  0.56578234831E+02  0.00000000000E+00 0. -1.
<scales pt_clust_5="13000.00000" pt_clust_6="13000.00000" pt_clust_7="13000.00000" pt_clust_8="13000.00000" pt_clust_9="39.55152"></scales>
<clustering>
<clus scale="   39.552">  1  9  2 -1</clus>
<clus scale="   77.727">  5  6 -1 -1</clus>
<clus scale="   88.718">  7  8 -1 -1</clus>
<clus scale="   88.900">  2  5  1 -1</clus>
<clus scale="   39.552">  1  5  2 -1</clus>
</clustering>
</event>
<event>
 9    2  0.9254368E-005  0.2534997E+03  0.7546771E-02  0.1132957E+00
          2   -1    0    0  502    0 -0.00000000000E+00  0.00000000000E+00  0.23673161777E+04  0.23673161777E+04  0.00000000000E+00 0. -1.
         21   -1    0    0  501  502  0.00000000000E+00 -0.00000000000E+00 -0.45875809083E+02  0.45875809083E+02  0.00000000000E+00 0.  1.
         23    2    1    2    0    0  0.10161577357E+02 -0.11581099777E+03  0.41728968194E+03  0.44245340579E+03  0.90104898755E+02 0.  0.
         24    2    1    2    0    0 -0.24562839815E+03  0.72177994371E+02  0.10253583100E+04  0.10599013266E+04  0.80549273135E+02 0.  0.
        -11    1    4    4    0    0 -0.33998949329E+02 -0.15338707815E+02  0.10325742783E+03  0.10978752623E+03  0.00000000000E+00 0.  1.
         12    1    4    4    0    0 -0.21162944882E+03  0.87516702185E+02  0.92210088214E+03  0.95011380034E+03  0.00000000000E+00 0. -1.
        -11    1    3    3    0    0 -0.25778475681E+02 -0.80953109933E+02  0.33930712303E+03  0.34978173131E+03  0.00000000000E+00 0. -1.
         11    1    3    3    0    0  0.35940053038E+02 -0.34857887839E+02  0.77982558908E+02  0.92671674479E+02  0.00000000000E+00 0.  1.
          1    1    1    2  501    0  0.23546682079E+03  0.43633003402E+02  0.87879237672E+03  0.91083725443E+03  0.00000000000E+00 0. -1.
<scales pt_clust_5="13000.00000" pt_clust_6="13000.00000" pt_clust_7="13000.00000" pt_clust_8="13000.00000" pt_clust_9="240.36208"></scales>
<clustering>
<clus scale="   80.549">  5  6 -1 -1</clus>
<clus scale="   90.105">  7  8 -1 -1</clus>
<clus scale="  147.086">  1  7  2 -1</clus>
<clus scale="  240.362">  2  9  1 -1</clus>
<clus scale="  240.362">  2  5  1 -1</clus>
</clustering>
</event>
<event>
 9    2  0.9254368E-005  0.2382580E+03  0.7546771E-02  0.1150075E+00
          2   -1    0    0  502    0 -0.00000000000E+00  0.00000000000E+00  0.69342386096E+03  0.69342386096E+03  0.00000000000E+00 0. -1.
         21   -1    0    0  501  502  0.00000000000E+00 -0.00000000000E+00 -0.24683087824E+03  0.24683087824E+03  0.00000000000E+00 0. -1.
         23    2    1    2    0    0  0.64788388179E+02  0.41765431515E+02  0.67924811251E+02  0.13559902742E+03  0.88495365652E+02 0.  0.
         24    2    1    2    0    0  0.68903939339E+02 -0.22222935265E+03  0.49415407740E+03  0.55211292384E+03  0.80664678909E+02 0.  0.
        -13    1    4    4    0    0  0.21556906472E+02 -0.17288182595E+03  0.30896921230E+03  0.35470382027E+03  0.00000000000E+00 0.  1.
         14    1    4    4    0    0  0.47347032868E+02 -0.49347526704E+02  0.18518486509E+03  0.19740910357E+03  0.00000000000E+00 0. -1.
        -13    1    3    3    0    0  0.44104115984E+02  0.49056903670E+02  0.18655288950E+01  0.65994189459E+02  0.00000000000E+00 0. -1.
         13    1    3    3    0    0  0.20684272195E+02 -0.72914721545E+01  0.66059282356E+02  0.69604837962E+02  0.00000000000E+00 0.  1.
          1    1    1    2  501    0 -0.13369232752E+03  0.18046392114E+03 -0.11548590593E+03  0.25254278793E+03  0.00000000000E+00 0. -1.
<scales pt_clust_5="13000.00000" pt_clust_6="13000.00000" pt_clust_7="13000.00000" pt_clust_8="13000.00000" pt_clust_9="224.18759"></scales>
<clustering>
<clus scale="   80.665">  5  6 -1 -1</clus>
<clus scale="   88.495">  7  8 -1 -1</clus>
<clus scale="  117.360">  1  7  2 -1</clus>
<clus scale="  224.188">  2  9  1 -1</clus>
<clus scale="  224.188">  2  5  1 -1</clus>
</clustering>
</event>
<event>
 9    2  0.9254368E-005  0.1478589E+03  0.7546771E-02  0.1215260E+00
         21   -1    0    0  501  502  0.00000000000E+00  0.00000000000E+00  0.85867853556E+02  0.85867853556E+02  0.00000000000E+00 0.  1.
          2   -1    0    0  502    0 -0.00000000000E+00 -0.00000000000E+00 -0.45382936645E+03  0.45382936645E+03  0.00000000000E+00 0. -1.
         24    2    1    2    0    0  0.80511184442E+02  0.12378474245E+02 -0.14251132495E+03  0.18254558217E+03  0.79863222995E+02 0.  0.
         23    2    1    2    0    0  0.55592090464E+02 -0.62348741939E+02 -0.14798944522E+03  0.19277008243E+03  0.91003201257E+02 0.  0.
        -13    1    3    3    0    0  0.90685496830E+02 -0.40676615749E+01 -0.95740300420E+02  0.13193411360E+03  0.00000000000E+00 0.  1.
         14    1    3    3    0    0 -0.10174312387E+02  0.16446135820E+02 -0.46771024528E+02  0.50611468576E+02  0.00000000000E+00 0. -1.
        -11    1    4    4    0    0  0.36941197686E+02 -0.65460578660E+01 -0.12344284143E+03  0.12901797573E+03  0.00000000000E+00 0.  1.
         11    1    4    4    0    0  0.18650892778E+02 -0.55802684073E+02 -0.24546603789E+02  0.63752106700E+02  0.00000000000E+00 0. -1.
          1    1    1    2  501    0 -0.13610327491E+03  0.49970267694E+02 -0.77460742722E+02  0.16438155540E+03  0.00000000000E+00 0. -1.
<scales pt_clust_5="13000.00000" pt_clust_6="13000.00000" pt_clust_7="13000.00000" pt_clust_8="13000.00000" pt_clust_9="116.53608"></scales>
<clustering>
<clus scale="   79.863">  5  6 -1 -1</clus>
<clus scale="   91.003">  7  8 -1 -1</clus>
<clus scale="  114.076">  2  5  1 -1</clus>
<clus scale="  116.536">  1  9  2 -1</clus>
<clus scale="  116.536">  1  5  2 -1</clus>
</clustering>
</event>
<event>
 9    2  0.9254368E-005  0.1611290E+03  0.7546771E-02  0.1208046E+00
          2   -1    0    0  502    0 -0.00000000000E+00  0.00000000000E+00  0.60711950257E+03  0.60711950257E+03  0.00000000000E+00 0. -1.
         21   -1    0    0  501  502  0.00000000000E+00 -0.00000000000E+00 -0.57027639574E+03  0.57027639574E+03  0.00000000000E+00 0. -1.
         23    2    1    2    0    0  0.36431140027E+02 -0.37378496458E+02 -0.12562946991E+03  0.16231891155E+03  0.88545385963E+02 0.  0.
         24    2    1    2    0    0 -0.11623782507E+03 -0.75325840109E+02  0.56597138267E+03  0.58859995238E+03  0.83313166902E+02 0.  0.
        -13    1    4    4    0    0 -0.12196160738E+03 -0.74602660966E+02  0.44311759819E+03  0.46561077793E+03  0.00000000000E+00 0.  1.
         14    1    4    4    0    0  0.57237823090E+01 -0.72317914345E+00  0.12285378448E+03  0.12298917446E+03  0.00000000000E+00 0. -1.
        -11    1    3    3    0    0  0.39999193312E+02  0.20239374058E+02 -0.60310004398E+02  0.75145621019E+02  0.00000000000E+00 0. -1.
         11    1    3    3    0    0 -0.35680532849E+01 -0.57617870516E+02 -0.65319465512E+02  0.87173290530E+02  0.00000000000E+00 0.  1.
          1    1    1    2  501    0  0.79806685043E+02  0.11270433657E+03 -0.40349880593E+03  0.42647703437E+03  0.00000000000E+00 0. -1.
<scales pt_clust_5="13000.00000" pt_clust_6="13000.00000" pt_clust_7="13000.00000" pt_clust_8="13000.00000" pt_clust_9="137.91835"></scales>
<clustering>
<clus scale="   83.313">  5  6 -1 -1</clus>
<clus scale="   88.545">  7  8 -1 -1</clus>
<clus scale="  102.785">  1  7  2 -1</clus>
<clus scale="  137.918">  2  9  1 -1</clus>
<clus scale="  137.918">  2  5  1 -1</clus>
</clustering>
</event>
<event>
 9    2  0.9254368E-005  0.1529101E+03  0.7546771E-02  0.1222390E+00
          2   -1    0    0  502    0 -0.00000000000E+00  0.00000000000E+00  0.28825392896E+03  0.28825392896E+03  0.00000000000E+00 0. -1.
         21   -1    0    0  501  502  0.00000000000E+00 -0.00000000000E+00 -0.13107752771E+03  0.13107752771E+03  0.00000000000E+00 0. -1.
         24    2    1    2    0    0 -0.32771757775E+02  0.20510537813E+02  0.99089774295E+02  0.13303849111E+03  0.79911116118E+02 0.  0.
         23    2    1    2    0    0 -0.33253577994E+02 -0.12498787024E+03  0.33554171777E+02  0.16029019053E+03  0.88539790946E+02 0.  0.
        -11    1    3    3    0    0 -0.26806972727E+02  0.16091060476E+02 -0.23254401250E+01  0.31351932728E+02  0.00000000000E+00 0.  1.
         12    1    3    3    0    0 -0.59647850483E+01  0.44194773367E+01  0.10141521442E+03  0.10168655839E+03  0.00000000000E+00 0. -1.
        -13    1    4    4    0    0 -0.28847764634E+01 -0.11787519216E+03  0.50210480375E+01  0.11801734528E+03  0.00000000000E+00 0. -1.
         13    1    4    4    0    0 -0.30368801530E+02 -0.71126780792E+01  0.28533123740E+02  0.42272845258E+02  0.00000000000E+00 0.  1.
          1    1    1    2  501    0  0.66025335768E+02  0.10447733243E+03  0.24532455179E+02  0.12600277502E+03  0.00000000000E+00 0. -1.
<scales pt_clust_5="13000.00000" pt_clust_6="13000.00000" pt_clust_7="13000.00000" pt_clust_8="13000.00000" pt_clust_9="124.66835"></scales>
<clustering>
<clus scale="   79.911">  5  6 -1 -1</clus>
<clus scale="   88.540">  7  8 -1 -1</clus>
<clus scale="   88.772">  1  5  2 -1</clus>
<clus scale="  124.668">  2  9  1 -1</clus>
<clus scale="  124.668">  2  5  1 -1</clus>
</clustering>
</event>
<event>
 9    2  0.9254368E-005  0.1176840E+03  0.7546771E-02  0.1253134E+00
         21   -1    0    0  501  502  0.00000000000E+00  0.00000000000E+00  0.46056707495E+02  0.46056707495E+02  0.00000000000E+00 0. -1.
          2   -1    0    0  502    0 -0.00000000000E+00 -0.00000000000E+00 -0.45771438648E+03  0.45771438648E+03  0.00000000000E+00 0. -1.
         23    2    1    2    0    0  0.62195574129E+02 -0.76651232712E+00 -0.19438347911E+03  0.22509050681E+03  0.94931145163E+02 0.  0.
         24    2    1    2    0    0 -0.83842393133E+02 -0.30796837360E+01 -0.79331878635E+02  0.13899715226E+03  0.77379777924E+02 0.  0.
        -13    1    4    4    0    0 -0.75421717645E+02  0.28694412590E+02 -0.62490020176E+02  0.10206276220E+03  0.00000000000E+00 0.  1.
         14    1    4    4    0    0 -0.84206754883E+01 -0.31774096326E+02 -0.16841858459E+02  0.36934390064E+02  0.00000000000E+00 0. -1.
        -11    1    3    3    0    0  0.55714721748E+02 -0.42806614669E+02 -0.13285918895E+03  0.15029338165E+03  0.00000000000E+00 0. -1.
         11    1    3    3    0    0  0.64808523813E+01  0.42040102342E+02 -0.61524290161E+02  0.74797125161E+02  0.00000000000E+00 0.  1.
          1    1    1    2  501    0  0.21646819004E+02  0.38461960631E+01 -0.13794232124E+03  0.13968343491E+03  0.00000000000E+00 0. -1.
<scales pt_clust_5="13000.00000" pt_clust_6="13000.00000" pt_clust_7="13000.00000" pt_clust_8="13000.00000" pt_clust_9="21.98587"></scales>
<clustering>
<clus scale="   21.986">  1  9  2 -1</clus>
<clus scale="   77.380">  5  6 -1 -1</clus>
<clus scale="   94.931">  7  8 -1 -1</clus>
<clus scale="  104.044">  1  5  2 -1</clus>
<clus scale="   21.986">  1  5  2 -1</clus>
</clustering>
</event>
<event>
 9    2  0.9254368E-005  0.1216480E+03  0.7546771E-02  0.1259074E+00
         -1   -1    0    0    0  501 -0.00000000000E+00  0.00000000000E+00  0.12454259962E+03  0.12454259962E+03  0.00000000000E+00 0.  1.
         21   -1    0    0  501  502  0.00000000000E+00 -0.00000000000E+00 -0.20459251880E+03  0.20459251880E+03  0.00000000000E+00 0.  1.
         24    2    1    2    0    0 -0.20407417579E+02 -0.86898074806E-01  0.39425060186E+02  0.92573394470E+02  0.81234400038E+02 0.  0.
         23    2    1    2    0    0 -0.68416422522E+02  0.80024065347E+01 -0.72760408486E+02  0.13589106796E+03  0.91801197852E+02 0.  0.
        -11    1    3    3    0    0 -0.43006906036E+02  0.20711071660E+02  0.39346478164E+02  0.61860227933E+02  0.00000000000E+00 0.  1.
         12    1    3    3    0    0  0.22599488457E+02 -0.20797969734E+02  0.78582022634E-01  0.30713166537E+02  0.00000000000E+00 0. -1.
        -11    1    4    4    0    0  0.81350857945E+01  0.24863985310E+02  0.36617218970E+01  0.26416010176E+02  0.00000000000E+00 0. -1.
         11    1    4    4    0    0 -0.76551508317E+02 -0.16861578775E+02 -0.76422130383E+02  0.10947505778E+03  0.00000000000E+00 0.  1.
         -2    1    1    2    0  502  0.88823840101E+02 -0.79155084599E+01 -0.46714570883E+02  0.10067065599E+03  0.00000000000E+00 0.  1.
<scales pt_clust_5="13000.00000" pt_clust_6="13000.00000" pt_clust_7="13000.00000" pt_clust_8="13000.00000" pt_clust_9="79.81717"></scales>
<clustering>
<clus scale="   81.234">  5  6 -1 -1</clus>
<clus scale="   83.759">  1  5  2 -1</clus>
<clus scale="   79.817">  2  9  1 -1</clus>
<clus scale="   91.801">  7  8 -1 -1</clus>
<clus scale="   79.817">  2  5  1 -1</clus>
</clustering>
</event>
<event>
 9    2  0.9254368E-005  0.1133854E+03  0.7546771E-02  0.1262967E+00
          4   -1    0    0  502    0 -0.00000000000E+00  0.00000000000E+00  0.21723145609E+03  0.21723145609E+03  0.00000000000E+00 0. -1.
         21   -1    0    0  501  502  0.00000000000E+00 -0.00000000000E+00 -0.17505343905E+03  0.17505343905E+03  0.00000000000E+00 0. -1.
         24    2    1    2    0    0  0.58403544103E+01 -0.63431993157E+02  0.10976548564E+03  0.14231487316E+03  0.64399796510E+02 0.  0.
         23    2    1    2    0    0 -0.18767339078E+02  0.89676458286E+02  0.43913198560E+02  0.13469523004E+03  0.88432775602E+02 0.  0.
        -11    1    3    3    0    0  0.15291595897E+01 -0.53456412583E+02  0.29026629775E+02  0.60847938432E+02  0.00000000000E+00 0.  1.
         12    1    3    3    0    0  0.43111948205E+01 -0.99755805739E+01  0.80738855860E+02  0.81466934729E+02  0.00000000000E+00 0. -1.
        -13    1    4    4    0    0 -0.43840011344E+02  0.24902943179E+02  0.41323797433E+02  0.65190178769E+02  0.00000000000E+00 0. -1.
         13    1    4    4    0    0  0.25072672266E+02  0.64773515107E+02  0.25894011274E+01  0.69505051270E+02  0.00000000000E+00 0.  1.
          3    1    1    2  501    0  0.12926984668E+02 -0.26244465129E+02 -0.11150066716E+03  0.11527479195E+03  0.00000000000E+00 0. -1.
<scales pt_clust_5="13000.00000" pt_clust_6="13000.00000" pt_clust_7="13000.00000" pt_clust_8="13000.00000" pt_clust_9="29.25541"></scales>
<clustering>
<clus scale="   29.255">  2  9  1 -1</clus>
<clus scale="   64.400">  5  6 -1 -1</clus>
<clus scale="   88.433">  7  8 -1 -1</clus>
<clus scale="   95.829">  1  5  2 -1</clus>
<clus scale="   29.255">  2  5  1 -1</clus>
</clustering>
</event>
<event>
 9    2  0.9254368E-005  0.1365054E+03  0.7546771E-02  0.1241270E+00
         21   -1    0    0  501  502  0.00000000000E+00  0.00000000000E+00  0.12538295332E+03  0.12538295332E+03  0.00000000000E+00 0. -1.
          2   -1    0    0  502    0 -0.00000000000E+00 -0.00000000000E+00 -0.44251302197E+03  0.44251302197E+03  0.00000000000E+00 0. -1.
         24    2    1    2    0    0 -0.29971349660E+02 -0.44974863779E+02 -0.13137192564E+03  0.15625148280E+03  0.65076284907E+02 0.  0.
         23    2    1    2    0    0 -0.46203642237E+02 -0.80710658055E+02  0.45097776288E+02  0.13797692909E+03  0.91404795579E+02 0.  0.
        -11    1    3    3    0    0  0.18307762438E+02 -0.11821219247E+02 -0.16580783632E+02  0.27383165920E+02  0.00000000000E+00 0.  1.
         12    1    3    3    0    0 -0.48279112099E+02 -0.33153644532E+02 -0.11479114201E+03  0.12886831688E+03  0.00000000000E+00 0. -1.
        -13    1    4    4    0    0 -0.27314298568E+02 -0.90534417830E+02  0.76174409488E+01  0.94871371471E+02  0.00000000000E+00 0. -1.
         13    1    4    4    0    0 -0.18889343669E+02  0.98237597750E+01  0.37480335339E+02  0.43105557618E+02  0.00000000000E+00 0.  1.
          1    1    1    2  501    0  0.76174991897E+02  0.12568552183E+03 -0.23085591930E+03  0.27366756341E+03  0.00000000000E+00 0. -1.
<scales pt_clust_5="13000.00000" pt_clust_6="13000.00000" pt_clust_7="13000.00000" pt_clust_8="13000.00000" pt_clust_9="101.38491"></scales>
<clustering>
<clus scale="   65.076">  5  6 -1 -1</clus>
<clus scale="   84.593">  2  5  1 -1</clus>
<clus scale="   91.405">  7  8 -1 -1</clus>
<clus scale="  101.385">  1  9  2 -1</clus>
<clus scale="  101.385">  1  5  2 -1</clus>
</clustering>
</event>
<event>
 9    2  0.9254368E-005  0.9059839E+02  0.7546771E-02  0.1310085E+00
         21   -1    0    0  501  502  0.00000000000E+00  0.00000000000E+00  0.81436862092E+02  0.81436862092E+02  0.00000000000E+00 0.  1.
          2   -1    0    0  502    0 -0.00000000000E+00 -0.00000000000E+00 -0.24609418037E+03  0.24609418037E+03  0.00000000000E+00 0. -1.
         24    2    1    2    0    0 -0.59698607684E+01  0.28889928111E+01 -0.13923726311E+03  0.15927539631E+03  0.77056154297E+02 0.  0.
         23    2    1    2    0    0 -0.29603054734E+02 -0.27540129224E+02  0.24693170529E+02  0.10204049506E+03  0.90375385998E+02 0.  0.
        -13    1    3    3    0    0  0.18281914689E+02  0.28876434564E+02 -0.10296847512E+03  0.10849232114E+03  0.00000000000E+00 0.  1.
         14    1    3    3    0    0 -0.24251775457E+02 -0.25987441753E+02 -0.36268787992E+02  0.50783075173E+02  0.00000000000E+00 0. -1.
        -11    1    4    4    0    0 -0.41794371579E+01 -0.34437219826E+02  0.53018588519E+02  0.63358981470E+02  0.00000000000E+00 0.  1.
         11    1    4    4    0    0 -0.25423617576E+02  0.68970906018E+01 -0.28325417990E+02  0.38681513591E+02  0.00000000000E+00 0. -1.
          1    1    1    2  501    0  0.35572915502E+02  0.24651136413E+02 -0.50113225694E+02  0.66215151085E+02  0.00000000000E+00 0. -1.
<scales pt_clust_5="13000.00000" pt_clust_6="13000.00000" pt_clust_7="13000.00000" pt_clust_8="13000.00000" pt_clust_9="43.27947"></scales>
<clustering>
<clus scale="   43.279">  1  9  2 -1</clus>
<clus scale="   77.056">  5  6 -1 -1</clus>
<clus scale="   77.318">  2  5  1 -1</clus>
<clus scale="   90.375">  7  8 -1 -1</clus>
<clus scale="   43.279">  1  5  2 -1</clus>
</clustering>
</event>
<event>
 9    2  0.9254368E-005  0.3261936E+03  0.7546771E-02  0.1092136E+00
          2   -1    0    0  502    0 -0.00000000000E+00  0.00000000000E+00  0.16548781221E+03  0.16548781221E+03  0.00000000000E+00 0. -1.
         21   -1    0    0  501  502  0.00000000000E+00 -0.00000000000E+00 -0.13157666601E+04  0.13157666601E+04  0.00000000000E+00 0.  1.
         23    2    1    2    0    0 -0.16671328846E+03 -0.49913115012E+02 -0.51447874889E+03  0.54998279208E+03  0.86648998397E+02 0.  0.
         24    2    1    2    0    0 -0.51880112187E+02  0.31271915729E+03 -0.39574777237E+03  0.51356938172E+03  0.81562204049E+02 0.  0.
        -13    1    4    4    0    0 -0.92199493540E+01  0.24250329812E+03 -0.32167503824E+03  0.40294874027E+03  0.00000000000E+00 0.  1.
         14    1    4    4    0    0 -0.42660162833E+02  0.70215859171E+02 -0.74072734136E+02  0.11062064145E+03  0.00000000000E+00 0. -1.
        -11    1    3    3    0    0 -0.11574151680E+03 -0.71412193499E+02 -0.40668936115E+03  0.42882634779E+03  0.00000000000E+00 0.  1.
         11    1    3    3    0    0 -0.50971771655E+02  0.21499078487E+02 -0.10778938775E+03  0.12115644429E+03  0.00000000000E+00 0. -1.
          1    1    1    2  501    0  0.21859340064E+03 -0.26280604228E+03 -0.24005232660E+03  0.41770229849E+03  0.00000000000E+00 0. -1.
<scales pt_clust_5="13000.00000" pt_clust_6="13000.00000" pt_clust_7="13000.00000" pt_clust_8="13000.00000" pt_clust_9="315.83216"></scales>
<clustering>
<clus scale="   81.562">  5  6 -1 -1</clus>
<clus scale="   86.649">  7  8 -1 -1</clus>
<clus scale="  194.404">  1  7  2 -1</clus>
<clus scale="  315.832">  2  9  1 -1</clus>
<clus scale="  315.832">  2  5  1 -1</clus>
</clustering>
</event>
<event>
 9    2  0.9254368E-005  0.1006045E+03  0.7546771E-02  0.1284448E+00
         21   -1    0    0  501  502  0.00000000000E+00  0.00000000000E+00  0.13882571686E+03  0.13882571686E+03  0.00000000000E+00 0.  1.
          4   -1    0    0  502    0 -0.00000000000E+00 -0.00000000000E+00 -0.16165724931E+03  0.16165724931E+03  0.00000000000E+00 0. -1.
         24    2    1    2    0    0 -0.28946529414E+02  0.40905204109E+02 -0.44798452177E+02  0.10439500262E+03  0.79876642187E+02 0.  0.
         23    2    1    2    0    0 -0.19132205564E+02 -0.33693812970E+02  0.75070482596E+02  0.12409103785E+03  0.90893861156E+02 0.  0.
        -11    1    3    3    0    0 -0.41500431747E+02  0.54156269866E+02 -0.15646767806E+02  0.70000062456E+02  0.00000000000E+00 0.  1.
         12    1    3    3    0    0  0.12553902334E+02 -0.13251065757E+02 -0.29151684372E+02  0.34394940168E+02  0.00000000000E+00 0. -1.
        -13    1    4    4    0    0  0.24136368168E+02  0.14031764946E+02  0.45097060524E+02  0.53039603729E+02  0.00000000000E+00 0. -1.
         13    1    4    4    0    0 -0.43268573732E+02 -0.47725577916E+02  0.29973422072E+02  0.71051434123E+02  0.00000000000E+00 0.  1.
          3    1    1    2  501    0  0.48078734978E+02 -0.72113911390E+01 -0.53103562872E+02  0.71996925691E+02  0.00000000000E+00 0. -1.
<scales pt_clust_5="13000.00000" pt_clust_6="13000.00000" pt_clust_7="13000.00000" pt_clust_8="13000.00000" pt_clust_9="48.61657"></scales>
<clustering>
<clus scale="   48.617">  1  9  2 -1</clus>
<clus scale="   79.877">  5  6 -1 -1</clus>
<clus scale="   90.774">  2  5  1 -1</clus>
<clus scale="   90.894">  7  8 -1 -1</clus>
<clus scale="   48.617">  1  5  2 -1</clus>
</clustering>
</event>
<event>
 9    2  0.9254368E-005  0.2206923E+03  0.7546771E-02  0.1162078E+00
         -3   -1    0    0    0  501 -0.00000000000E+00  0.00000000000E+00  0.49360415859E+03  0.49360415859E+03  0.00000000000E+00 0.  1.
         21   -1    0    0  501  502  0.00000000000E+00 -0.00000000000E+00 -0.18891453802E+03  0.18891453802E+03  0.00000000000E+00 0.  1.
         24    2    1    2    0    0 -0.69003329914E+02 -0.36272676216E+02 -0.52831842457E+02  0.12334321609E+03  0.79656630605E+02 0.  0.
         23    2    1    2    0    0 -0.93521311949E+02 -0.13240377683E+03  0.21909000672E+03  0.28709227060E+03  0.90247132268E+02 0.  0.
        -13    1    3    3    0    0 -0.77055641679E+02 -0.41328948289E+01 -0.44882637414E+02  0.89269837434E+02  0.00000000000E+00 0.  1.
         14    1    3    3    0    0  0.80523117651E+01 -0.32139781387E+02 -0.79492050432E+01  0.34073378658E+02  0.00000000000E+00 0. -1.
        -11    1    4    4    0    0  0.90276579873E+01 -0.50444690554E+02  0.39833826269E+02  0.64906849631E+02  0.00000000000E+00 0. -1.
         11    1    4    4    0    0 -0.10254896994E+03 -0.81959086271E+02  0.17925618046E+03  0.22218542096E+03  0.00000000000E+00 0.  1.
         -4    1    1    2    0  502  0.16252464186E+03  0.16867645304E+03  0.13843145630E+03  0.27208320991E+03  0.00000000000E+00 0.  1.
<scales pt_clust_5="13000.00000" pt_clust_6="13000.00000" pt_clust_7="13000.00000" pt_clust_8="13000.00000" pt_clust_9="201.39649"></scales>
<clustering>
<clus scale="   79.657">  5  6 -1 -1</clus>
<clus scale="   90.247">  7  8 -1 -1</clus>
<clus scale="  111.456">  1  5  2 -1</clus>
<clus scale="  201.396">  2  9  1 -1</clus>
<clus scale="  201.396">  2  5  1 -1</clus>
</clustering>
</event>
<event>
 9    2  0.9254368E-005  0.8730041E+02  0.7546771E-02  0.1310571E+00
          2   -1    0    0  502    0 -0.00000000000E+00  0.00000000000E+00  0.46640077779E+03  0.46640077779E+03  0.00000000000E+00 0. -1.
         21   -1    0    0  501  502  0.00000000000E+00 -0.00000000000E+00 -0.99333255583E+02  0.99333255583E+02  0.00000000000E+00 0.  1.
         23    2    1    2    0    0  0.74407368778E+01 -0.14241016335E+02  0.42478930981E+03  0.43366322017E+03  0.85788458963E+02 0.  0.
         24    2    1    2    0    0  0.17540063665E+02  0.27832849316E+02 -0.45145858695E+02  0.10097527802E+03  0.84116210567E+02 0.  0.
        -11    1    4    4    0    0 -0.20108484496E+02  0.44723947842E+02 -0.23449608664E+02  0.54355007182E+02  0.00000000000E+00 0.  1.
         12    1    4    4    0    0  0.37648548160E+02 -0.16891098525E+02 -0.21696250030E+02  0.46620270842E+02  0.00000000000E+00 0. -1.
        -11    1    3    3    0    0  0.11107851130E+02  0.35552515155E+02  0.19206454265E+03  0.19564292534E+03  0.00000000000E+00 0.  1.
         11    1    3    3    0    0 -0.36671142520E+01 -0.49793531490E+02  0.23272476716E+03  0.23802029484E+03  0.00000000000E+00 0. -1.
          1    1    1    2  501    0 -0.24980800542E+02 -0.13591832982E+02 -0.12575928913E+02  0.31095535171E+02  0.00000000000E+00 0. -1.
<scales pt_clust_5="13000.00000" pt_clust_6="13000.00000" pt_clust_7="13000.00000" pt_clust_8="13000.00000" pt_clust_9="28.43903"></scales>
<clustering>
<clus scale="   28.439">  2  9  1 -1</clus>
<clus scale="   84.116">  5  6 -1 -1</clus>
<clus scale="   85.658">  2  5  1 -1</clus>
<clus scale="   85.788">  7  8 -1 -1</clus>
<clus scale="   28.439">  2  5  1 -1</clus>
</clustering>
</event>
<event>
 9    2  0.9254368E-005  0.1189495E+03  0.7546771E-02  0.1262138E+00
         21   -1    0    0  501  502  0.00000000000E+00  0.00000000000E+00  0.15885197572E+03  0.15885197572E+03  0.00000000000E+00 0. -1.
          2   -1    0    0  502    0 -0.00000000000E+00 -0.00000000000E+00 -0.33394383527E+03  0.33394383527E+03  0.00000000000E+00 0. -1.
         24    2    1    2    0    0 -0.39455964070E+01 -0.24101012187E+02 -0.26053492033E+03  0.27385188309E+03  0.80746409454E+02 0.  0.
         23    2    1    2    0    0 -0.12657786973E+02 -0.63895741224E+02  0.56956982457E+02  0.12497288125E+03  0.90173376779E+02 0.  0.
        -13    1    3    3    0    0  0.37051581595E+02 -0.19248347193E+02 -0.10683252088E+03  0.11470181378E+03  0.00000000000E+00 0.  1.
         14    1    3    3    0    0 -0.40997178002E+02 -0.48526649944E+01 -0.15370239946E+03  0.15915006931E+03  0.00000000000E+00 0. -1.
        -11    1    4    4    0    0  0.41304970235E+01 -0.84033335482E+02  0.36465903074E+02  0.91697462150E+02  0.00000000000E+00 0. -1.
         11    1    4    4    0    0 -0.16788283996E+02  0.20137594257E+02  0.20491079383E+02  0.33275419100E+02  0.00000000000E+00 0.  1.
          1    1    1    2  501    0  0.16603383380E+02  0.87996753412E+02  0.28486078317E+02  0.93971046650E+02  0.00000000000E+00 0. -1.
<scales pt_clust_5="13000.00000" pt_clust_6="13000.00000" pt_clust_7="13000.00000" pt_clust_8="13000.00000" pt_clust_9="77.57410"></scales>
<clustering>
<clus scale="   80.746">  5  6 -1 -1</clus>
<clus scale="   84.359">  2  5  1 -1</clus>
<clus scale="   77.574">  1  9  2 -1</clus>
<clus scale="   90.173">  7  8 -1 -1</clus>
<clus scale="   77.574">  1  5  2 -1</clus>
</clustering>
</event>
<event>
 9    2  0.1062083E-004  0.1943955E+03  0.7546771E-02  0.1167351E+00
          2   -1    0    0  502    0 -0.00000000000E+00  0.00000000000E+00  0.21206486802E+04  0.21206486802E+04  0.00000000000E+00 0. -1.
         21   -1    0    0  501  502  0.00000000000E+00 -0.00000000000E+00 -0.19554851587E+03  0.19554851587E+03  0.00000000000E+00 0.  1.
         23    2    1    2    0    0  0.11460154806E+03  0.45927672932E+01  0.46644280985E+03  0.48828030941E+03  0.87716346054E+02 0.  0.
         24    2    1    2    0    0  0.13861753393E+03 -0.10518002236E+03 -0.11979602207E+03  0.22612015757E+03  0.80632381449E+02 0.  0.
        -13    1    4    4    0    0  0.58246895813E+02 -0.17047149433E+02 -0.79925836651E+02  0.10035659191E+03  0.00000000000E+00 0.  1.
         14    1    4    4    0    0  0.80370638117E+02 -0.88132872925E+02 -0.39870185423E+02  0.12576356566E+03  0.00000000000E+00 0. -1.
        -13    1    3    3    0    0  0.26773247534E+02  0.37851334676E+02  0.10397240449E+03  0.11384107877E+03  0.00000000000E+00 0.  1.
         13    1    3    3    0    0  0.87828300528E+02 -0.33258567383E+02  0.36247040537E+03  0.37443923064E+03  0.00000000000E+00 0. -1.
          1    1    1    2  501    0 -0.25321908199E+03  0.10058725507E+03  0.15784533766E+04  0.16017967291E+04  0.00000000000E+00 0. -1.
<scales pt_clust_5="13000.00000" pt_clust_6="13000.00000" pt_clust_7="13000.00000" pt_clust_8="13000.00000" pt_clust_9="176.88427"></scales>
<clustering>
<clus scale="   80.632">  5  6 -1 -1</clus>
<clus scale="   87.716">  7  8 -1 -1</clus>
<clus scale="  144.391">  1  7  2 -1</clus>
<clus scale="  176.884">  2  9  1 -1</clus>
<clus scale="  176.884">  2  5  1 -1</clus>
</clustering>
</event>
<event>
 9    2  0.9254368E-005  0.2792957E+03  0.7546771E-02  0.1118975E+00
          2   -1    0    0  502    0 -0.00000000000E+00  0.00000000000E+00  0.11379219109E+04  0.11379219109E+04  0.00000000000E+00 0. -1.
         21   -1    0    0  501  502  0.00000000000E+00 -0.00000000000E+00 -0.19860790772E+03  0.19860790772E+03  0.00000000000E+00 0. -1.
         23    2    1    2    0    0 -0.70397708343E+02 -0.98193125617E+02  0.26474750725E+03  0.30700261443E+03  0.97783615264E+02 0.  0.
         24    2    1    2    0    0 -0.18827026988E+03  0.18678043464E+03  0.70250952758E+03  0.75468607315E+03  0.75490445620E+02 0.  0.
        -11    1    4    4    0    0 -0.83180747888E+01  0.43405683500E+02  0.87089672783E+02  0.97661941583E+02  0.00000000000E+00 0.  1.
         12    1    4    4    0    0 -0.17995219509E+03  0.14337475114E+03  0.61541985480E+03  0.65702413157E+03  0.00000000000E+00 0. -1.
        -11    1    3    3    0    0 -0.53262997388E+02 -0.11477540902E+03  0.18783037847E+03  0.22647426451E+03  0.00000000000E+00 0. -1.
         11    1    3    3    0    0 -0.17134710955E+02  0.16582283402E+02  0.76917128777E+02  0.80528349925E+02  0.00000000000E+00 0.  1.
          1    1    1    2  501    0  0.25866797822E+03 -0.88587309028E+02 -0.27943031680E+02  0.27484113101E+03  0.00000000000E+00 0. -1.
<scales pt_clust_5="13000.00000" pt_clust_6="13000.00000" pt_clust_7="13000.00000" pt_clust_8="13000.00000" pt_clust_9="268.90011"></scales>
<clustering>
<clus scale="   75.490">  5  6 -1 -1</clus>
<clus scale="   97.784">  7  8 -1 -1</clus>
<clus scale="  155.433">  1  7  2 -1</clus>
<clus scale="  268.900">  2  9  1 -1</clus>
<clus scale="  268.900">  2  5  1 -1</clus>
</clustering>
</event>
<event>
 9    2  0.9254368E-005  0.9560299E+02  0.7546771E-02  0.1299438E+00
         -1   -1    0    0    0  501 -0.00000000000E+00  0.00000000000E+00  0.19057675591E+03  0.19057675591E+03  0.00000000000E+00 0.  1.
         21   -1    0    0  501  502  0.00000000000E+00 -0.00000000000E+00 -0.15475495166E+03  0.15475495166E+03  0.00000000000E+00 0.  1.
         24    2    1    2    0    0  0.28688465103E+02 -0.43776472725E+01  0.14412805503E+03  0.16499732547E+03  0.74893453252E+02 0.  0.
         23    2    1    2    0    0 -0.17293427071E+02 -0.20001951793E+02 -0.11812587740E+03  0.15168762297E+03  0.91412643299E+02 0.  0.
        -13    1    3    3    0    0  0.28165683914E+02 -0.56055352620E+01  0.15317937063E+03  0.15584815483E+03  0.00000000000E+00 0.  1.
         14    1    3    3    0    0  0.52278118896E+00  0.12278879895E+01 -0.90513156088E+01  0.91491706366E+01  0.00000000000E+00 0. -1.
        -11    1    4    4    0    0 -0.49540878903E+02 -0.33872515360E+02 -0.76696936581E+02  0.97386169759E+02  0.00000000000E+00 0. -1.
         11    1    4    4    0    0  0.32247451832E+02  0.13870563567E+02 -0.41428940815E+02  0.54301453207E+02  0.00000000000E+00 0.  1.
         -2    1    1    2    0  502 -0.11395038032E+02  0.24379599065E+02  0.98196266236E+01  0.28646759142E+02  0.00000000000E+00 0.  1.
<scales pt_clust_5="13000.00000" pt_clust_6="13000.00000" pt_clust_7="13000.00000" pt_clust_8="13000.00000" pt_clust_9="26.91120"></scales>
<clustering>
<clus scale="   26.911">  2  9  1 -1</clus>
<clus scale="   74.893">  5  6 -1 -1</clus>
<clus scale="   79.954">  1  5  2 -1</clus>
<clus scale="   91.413">  7  8 -1 -1</clus>
<clus scale="   26.911">  2  5  1 -1</clus>
</clustering>
</event>
<event>
 9    2  0.9254368E-005  0.9818268E+02  0.7546771E-02  0.1287240E+00
         21   -1    0    0  501  502  0.00000000000E+00  0.00000000000E+00  0.35649427206E+03  0.35649427206E+03  0.00000000000E+00 0. -1.
          2   -1    0    0  502    0 -0.00000000000E+00 -0.00000000000E+00 -0.15310820572E+03  0.15310820572E+03  0.00000000000E+00 0. -1.
         23    2    1    2    0    0 -0.40555858907E+02  0.24569173735E+02 -0.11055355003E+03  0.14901816572E+03  0.87953989694E+02 0.  0.
         24    2    1    2    0    0  0.38980996302E+02  0.41852086816E+02  0.12271354730E+03  0.15814500379E+03  0.81731953893E+02 0.  0.
        -13    1    4    4    0    0  0.47442020133E+02 -0.12817967919E+01  0.31699280513E+02  0.57072170647E+02  0.00000000000E+00 0.  1.
         14    1    4    4    0    0 -0.84610238310E+01  0.43133883608E+02  0.91014266790E+02  0.10107283314E+03  0.00000000000E+00 0. -1.
        -11    1    3    3    0    0 -0.57166483649E-01 -0.23173460630E+02 -0.14382523989E+01  0.23218120414E+02  0.00000000000E+00 0.  1.
         11    1    3    3    0    0 -0.40498692424E+02  0.47742634365E+02 -0.10911529763E+03  0.12580004531E+03  0.00000000000E+00 0. -1.
          1    1    1    2  501    0  0.15748626054E+01 -0.66421260551E+02  0.19122606906E+03  0.20243930828E+03  0.00000000000E+00 0. -1.
<scales pt_clust_5="13000.00000" pt_clust_6="13000.00000" pt_clust_7="13000.00000" pt_clust_8="13000.00000" pt_clust_9="66.43993"></scales>
<clustering>
<clus scale="   66.440">  1  9  2 -1</clus>
<clus scale="   81.732">  5  6 -1 -1</clus>
<clus scale="   87.954">  7  8 -1 -1</clus>
<clus scale="   92.650">  1  5  2 -1</clus>
<clus scale="   66.440">  1  5  2 -1</clus>
</clustering>
</event>
<event>
 9    2  0.9254368E-005  0.1323930E+03  0.7546771E-02  0.1244514E+00
          2   -1    0    0  502    0 -0.00000000000E+00  0.00000000000E+00  0.36323173102E+03  0.36323173102E+03  0.00000000000E+00 0. -1.
         21   -1    0    0  501  502  0.00000000000E+00 -0.00000000000E+00 -0.90415852406E+02  0.90415852406E+02  0.00000000000E+00 0.  1.
         24    2    1    2    0    0  0.99903819325E-01 -0.35673382918E+02 -0.92521705624E+01  0.87328624839E+02  0.79171243685E+02 0.  0.
         23    2    1    2    0    0 -0.32229879625E+02 -0.71833189975E+02  0.13704066286E+03  0.18295336382E+03  0.92157570144E+02 0.  0.
        -11    1    3    3    0    0 -0.36408165247E+02 -0.23964263829E+01  0.24298572796E+01  0.36567766714E+02  0.00000000000E+00 0.  1.
         12    1    3    3    0    0  0.36508069066E+02 -0.33276956535E+02 -0.11682027842E+02  0.50760858126E+02  0.00000000000E+00 0. -1.
        -11    1    4    4    0    0 -0.52953313477E+02 -0.16757789498E+02  0.97004607892E+02  0.11178001105E+03  0.00000000000E+00 0.  1.
         11    1    4    4    0    0  0.20723433853E+02 -0.55075400477E+02  0.40036054969E+02  0.71173352779E+02  0.00000000000E+00 0. -1.
          1    1    1    2  501    0  0.32129975805E+02  0.10750657289E+03  0.14502738631E+03  0.18336559476E+03  0.00000000000E+00 0. -1.
<scales pt_clust_5="13000.00000" pt_clust_6="13000.00000" pt_clust_7="13000.00000" pt_clust_8="13000.00000" pt_clust_9="95.05211"></scales>
<clustering>
<clus scale="   79.171">  5  6 -1 -1</clus>
<clus scale="   86.837">  1  5  2 -1</clus>
<clus scale="   92.158">  7  8 -1 -1</clus>
<clus scale="   95.052">  2  9  1 -1</clus>
<clus scale="   95.052">  2  5  1 -1</clus>
</clustering>
</event>
<event>
 9    2  0.9254368E-005  0.9793231E+02  0.7546771E-02  0.1290312E+00
         21   -1    0    0  501  502  0.00000000000E+00  0.00000000000E+00  0.81494239066E+02  0.81494239066E+02  0.00000000000E+00 0.  1.
          2   -1    0    0  502    0 -0.00000000000E+00 -0.00000000000E+00 -0.42873207223E+03  0.42873207223E+03  0.00000000000E+00 0. -1.
         24    2    1    2    0    0  0.54337861077E+01  0.33506486595E+02 -0.33264182375E+03  0.34413596484E+03  0.81404967394E+02 0.  0.
         23    2    1    2    0    0  0.32176870506E+02 -0.35272205859E+02 -0.49450124590E+02  0.11478256341E+03  0.91925200785E+02 0.  0.
        -13    1    3    3    0    0 -0.19169915433E+02  0.23948061773E+02 -0.40509070002E+02  0.50813187981E+02  0.00000000000E+00 0.  1.
         14    1    3    3    0    0  0.24603701540E+02  0.95584248223E+01 -0.29213275375E+03  0.29332277686E+03  0.00000000000E+00 0. -1.
        -11    1    4    4    0    0  0.51623290448E+02 -0.63946008131E+00 -0.34968055501E+00  0.51628435017E+02  0.00000000000E+00 0. -1.
         11    1    4    4    0    0 -0.19446419942E+02 -0.34632745778E+02 -0.49100444035E+02  0.63154128393E+02  0.00000000000E+00 0.  1.
          1    1    1    2  501    0 -0.37610656614E+02  0.17657192646E+01  0.34854115179E+02  0.51307783039E+02  0.00000000000E+00 0. -1.
<scales pt_clust_5="13000.00000" pt_clust_6="13000.00000" pt_clust_7="13000.00000" pt_clust_8="13000.00000" pt_clust_9="37.65208"></scales>
<clustering>
<clus scale="   37.652">  1  9  2 -1</clus>
<clus scale="   81.405">  5  6 -1 -1</clus>
<clus scale="   88.132">  2  5  1 -1</clus>
<clus scale="   91.925">  7  8 -1 -1</clus>
<clus scale="   37.652">  1  5  2 -1</clus>
</clustering>
</event>
<event>
 9    2  0.9254368E-005  0.1058902E+03  0.7546771E-02  0.1273541E+00
          2   -1    0    0  502    0 -0.00000000000E+00  0.00000000000E+00  0.11769162555E+04  0.11769162555E+04  0.00000000000E+00 0. -1.
         21   -1    0    0  501  502  0.00000000000E+00 -0.00000000000E+00 -0.18818157302E+02  0.18818157302E+02  0.00000000000E+00 0. -1.
         23    2    1    2    0    0  0.20247019800E+02 -0.34323206670E+02  0.61117216368E+03  0.61980966051E+03  0.95102982432E+02 0.  0.
         24    2    1    2    0    0 -0.61254145336E+02  0.38346798673E+02  0.21836989312E+03  0.24479510099E+03  0.83765649034E+02 0.  0.
        -11    1    4    4    0    0 -0.34342463786E+02  0.16318238698E+02  0.20341527543E+03  0.20693830967E+03  0.00000000000E+00 0.  1.
         12    1    4    4    0    0 -0.26911681550E+02  0.22028559975E+02  0.14954617691E+02  0.37856791315E+02  0.00000000000E+00 0. -1.
        -13    1    3    3    0    0 -0.17996785070E+02  0.26036848002E+02  0.18418328769E+03  0.18688307893E+03  0.00000000000E+00 0.  1.
         13    1    3    3    0    0  0.38243804870E+02 -0.60360054672E+02  0.42698887599E+03  0.43292658157E+03  0.00000000000E+00 0. -1.
          1    1    1    2  501    0  0.41007125536E+02 -0.40235920027E+01  0.32855604135E+03  0.33112965126E+03  0.00000000000E+00 0. -1.
<scales pt_clust_5="13000.00000" pt_clust_6="13000.00000" pt_clust_7="13000.00000" pt_clust_8="13000.00000" pt_clust_9="41.20407"></scales>
<clustering>
<clus scale="   41.204">  2  9  1 -1</clus>
<clus scale="   83.766">  5  6 -1 -1</clus>
<clus scale="   95.103">  7  8 -1 -1</clus>
<clus scale="   95.838">  2  5  1 -1</clus>
<clus scale="   41.204">  2  5  1 -1</clus>
</clustering>
</event>
<event>
 9    2  0.9666557E-005  0.9675981E+02  0.7546771E-02  0.1294882E+00
         -3   -1    0    0    0  501 -0.00000000000E+00  0.00000000000E+00  0.14822843443E+03  0.14822843443E+03  0.00000000000E+00 0.  1.
         21   -1    0    0  501  502  0.00000000000E+00 -0.00000000000E+00 -0.54973291350E+03  0.54973291350E+03  0.00000000000E+00 0. -1.
         24    2    1    2    0    0  0.77829883235E+01  0.21238953097E+02  0.12267162538E+03  0.14837940443E+03  0.80352050079E+02 0.  0.
         23    2    1    2    0    0 -0.42514664730E+02 -0.51956575632E+02 -0.31765203974E+03  0.33791699367E+03  0.93691481951E+02 0.  0.
        -13    1    3    3    0    0  0.24247204719E+02  0.27240675323E+02  0.12544387442E+03  0.13063746384E+03  0.00000000000E+00 0.  1.
         14    1    3    3    0    0 -0.16464216395E+02 -0.60017222257E+01 -0.27722490472E+01  0.17741940592E+02  0.00000000000E+00 0. -1.
        -11    1    4    4    0    0  0.14716498259E+02 -0.46948744690E+02 -0.21221904516E+03  0.21784784387E+03  0.00000000000E+00 0. -1.
         11    1    4    4    0    0 -0.57231162990E+02 -0.50078309421E+01 -0.10543299459E+03  0.12006914981E+03  0.00000000000E+00 0.  1.
         -4    1    1    2    0  502  0.34731676407E+02  0.30717622535E+02 -0.20652406471E+03  0.21166494982E+03  0.00000000000E+00 0.  1.
<scales pt_clust_5="13000.00000" pt_clust_6="13000.00000" pt_clust_7="13000.00000" pt_clust_8="13000.00000" pt_clust_9="46.36660"></scales>
<clustering>
<clus scale="   46.367">  2  9  1 -1</clus>
<clus scale="   80.352">  5  6 -1 -1</clus>
<clus scale="   83.910">  1  5  2 -1</clus>
<clus scale="   93.691">  7  8 -1 -1</clus>
<clus scale="   46.367">  2  5  1 -1</clus>
</clustering>
</event>
<event>
 9    2  0.9254368E-005  0.2045843E+03  0.7546771E-02  0.1172180E+00
          2   -1    0    0  502    0 -0.00000000000E+00  0.00000000000E+00  0.16122694012E+04  0.16122694012E+04  0.00000000000E+00 0. -1.
         21   -1    0    0  501  502  0.00000000000E+00 -0.00000000000E+00 -0.74401257394E+02  0.74401257394E+02  0.00000000000E+00 0. -1.
         24    2    1    2    0    0  0.67222171998E+02 -0.34689567361E+02  0.70736791513E+03  0.71601095609E+03  0.81118033719E+02 0.  0.
         23    2    1    2    0    0  0.68834473572E+02 -0.15682657749E+03  0.13364174595E+03  0.23526756936E+03  0.90321386033E+02 0.  0.
        -11    1    3    3    0    0  0.25714840133E+02 -0.52662407084E+02  0.26867608290E+03  0.27499349019E+03  0.00000000000E+00 0.  1.
         12    1    3    3    0    0  0.41507331865E+02  0.17972839724E+02  0.43869183223E+03  0.44101746590E+03  0.00000000000E+00 0. -1.
        -11    1    4    4    0    0  0.17526857288E+02 -0.96640681695E+02  0.11990480850E+03  0.15499604894E+03  0.00000000000E+00 0.  1.
         11    1    4    4    0    0  0.51307616284E+02 -0.60185895790E+02  0.13736937453E+02  0.80271520425E+02  0.00000000000E+00 0. -1.
          1    1    1    2  501    0 -0.13605664557E+03  0.19151614485E+03  0.69685848269E+03  0.73539213311E+03  0.00000000000E+00 0. -1.
<scales pt_clust_5="13000.00000" pt_clust_6="13000.00000" pt_clust_7="13000.00000" pt_clust_8="13000.00000" pt_clust_9="183.56694"></scales>
<clustering>
<clus scale="   81.118">  5  6 -1 -1</clus>
<clus scale="   90.321">  7  8 -1 -1</clus>
<clus scale="  110.916">  1  5  2 -1</clus>
<clus scale="  183.567">  2  9  1 -1</clus>
<clus scale="  183.567">  2  5  1 -1</clus>
</clustering>
</event>
<event>
 9    2  0.9254368E-005  0.7317172E+03  0.7546771E-02  0.9664478E-01
          2   -1    0    0  502    0 -0.00000000000E+00  0.00000000000E+00  0.10872187758E+04  0.10872187758E+04  0.00000000000E+00 0. -1.
         21   -1    0    0  501  502  0.00000000000E+00 -0.00000000000E+00 -0.55975337316E+03  0.55975337316E+03  0.00000000000E+00 0. -1.
         24    2    1    2    0    0  0.25719933771E+03  0.15079129729E+03  0.26871104259E+03  0.40950648563E+03  0.81242985597E+02 0.  0.
         23    2    1    2    0    0  0.36430200712E+03 -0.19306112443E+03  0.41855509206E+03  0.59435841421E+03  0.89916679760E+02 0.  0.
        -13    1    3    3    0    0  0.34766365125E+02  0.74409103535E+01  0.49767389795E+01  0.35900351277E+02  0.00000000000E+00 0.  1.
         14    1    3    3    0    0  0.22243297258E+03  0.14335038693E+03  0.26373430361E+03  0.37360613435E+03  0.00000000000E+00 0. -1.
        -11    1    4    4    0    0  0.32708615937E+03 -0.16341569185E+03  0.32412030597E+03  0.48861438450E+03  0.00000000000E+00 0. -1.
         11    1    4    4    0    0  0.37215847744E+02 -0.29645432577E+02  0.94434786090E+02  0.10574402971E+03  0.00000000000E+00 0.  1.
          1    1    1    2  501    0 -0.62150134483E+03  0.42269827144E+02 -0.15980073202E+03  0.64310724911E+03  0.00000000000E+00 0. -1.
<scales pt_clust_5="13000.00000" pt_clust_6="13000.00000" pt_clust_7="13000.00000" pt_clust_8="13000.00000" pt_clust_9="622.93712"></scales>
<clustering>
<clus scale="   81.243">  5  6 -1 -1</clus>
<clus scale="   89.917">  7  8 -1 -1</clus>
<clus scale="  305.137">  5  7 -1 -1</clus>
<clus scale="  622.937">  2  9  1 -1</clus>
<clus scale="  622.937">  2  5  1 -1</clus>
</clustering>
</event>
<event>
 9    2  0.9254368E-005  0.2489342E+03  0.7546771E-02  0.1114784E+00
          2   -1    0    0  502    0 -0.00000000000E+00  0.00000000000E+00  0.84563575674E+03  0.84563575674E+03  0.00000000000E+00 0. -1.
         21   -1    0    0  501  502  0.00000000000E+00 -0.00000000000E+00 -0.14514150644E+03  0.14514150644E+03  0.00000000000E+00 0. -1.
         23    2    1    2    0    0  0.17328857552E+03  0.21086193899E+03  0.37356666420E+03  0.47172593297E+03  0.92095686768E+02 0.  0.
         24    2    1    2    0    0 -0.23427229566E+02 -0.18557463731E+03  0.58813736283E+02  0.21085835964E+03  0.77559081728E+02 0.  0.
        -11    1    4    4    0    0  0.19539058435E+02 -0.57148406289E+02  0.43797784132E+02  0.74605368713E+02  0.00000000000E+00 0.  1.
         12    1    4    4    0    0 -0.42966288001E+02 -0.12842623102E+03  0.15015952151E+02  0.13625299093E+03  0.00000000000E+00 0. -1.
        -13    1    3    3    0    0  0.37838417091E+02  0.29102909223E+02  0.13243919321E+03  0.14077949080E+03  0.00000000000E+00 0.  1.
         13    1    3    3    0    0  0.13545015843E+03  0.18175902976E+03  0.24112747099E+03  0.33094644217E+03  0.00000000000E+00 0. -1.
          1    1    1    2  501    0 -0.14986134596E+03 -0.25287301677E+02  0.26811384982E+03  0.30819297057E+03  0.00000000000E+00 0. -1.
<scales pt_clust_5="13000.00000" pt_clust_6="13000.00000" pt_clust_7="13000.00000" pt_clust_8="13000.00000" pt_clust_9="151.97991"></scales>
<clustering>
<clus scale="   77.559">  5  6 -1 -1</clus>
<clus scale="   92.096">  7  8 -1 -1</clus>
<clus scale="  151.980">  2  9  1 -1</clus>
<clus scale="  243.930">  2  5  1 -1</clus>
<clus scale="  151.980">  2  5  1 -1</clus>
</clustering>
</event>
<event>
 9    2  0.9254368E-005  0.1051488E+03  0.7546771E-02  0.1272647E+00
         21   -1    0    0  501  502  0.00000000000E+00  0.00000000000E+00  0.22603145675E+02  0.22603145675E+02  0.00000000000E+00 0.  1.
          2   -1    0    0  502    0 -0.00000000000E+00 -0.00000000000E+00 -0.14637776920E+04  0.14637776920E+04  0.00000000000E+00 0. -1.
         24    2    1    2    0    0  0.55463862286E+02 -0.18766071943E+02 -0.11106823828E+04  0.11150954906E+04  0.79963693630E+02 0.  0.
         23    2    1    2    0    0 -0.68526696569E+02 -0.12319283875E+02 -0.31519211974E+03  0.33425794742E+03  0.86802247469E+02 0.  0.
        -13    1    3    3    0    0  0.43088786582E+02  0.82108063812E+01 -0.24441804408E+03  0.24832285666E+03  0.00000000000E+00 0.  1.
         14    1    3    3    0    0  0.12375075704E+02 -0.26976878324E+02 -0.86626433870E+03  0.86677263395E+03  0.00000000000E+00 0. -1.
        -11    1    4    4    0    0 -0.52188732197E+02 -0.42938514421E+02 -0.13753227392E+03  0.15324002792E+03  0.00000000000E+00 0. -1.
         11    1    4    4    0    0 -0.16337964372E+02  0.30619230547E+02 -0.17765984583E+03  0.18101791950E+03  0.00000000000E+00 0.  1.
          1    1    1    2  501    0  0.13062834283E+02  0.31085355818E+02 -0.15300043847E+02  0.37027399687E+02  0.00000000000E+00 0. -1.
<scales pt_clust_5="13000.00000" pt_clust_6="13000.00000" pt_clust_7="13000.00000" pt_clust_8="13000.00000" pt_clust_9="33.71850"></scales>
<clustering>
<clus scale="   33.718">  1  9  2 -1</clus>
<clus scale="   79.964">  5  6 -1 -1</clus>
<clus scale="   86.802">  7  8 -1 -1</clus>
<clus scale="   99.578">  2  5  1 -1</clus>
<clus scale="   33.718">  1  5  2 -1</clus>
</clustering>
</event>
<event>
 9    2  0.9254368E-005  0.9468939E+02  0.7546771E-02  0.1298010E+00
          2   -1    0    0  502    0 -0.00000000000E+00  0.00000000000E+00  0.29839341524E+03  0.29839341524E+03  0.00000000000E+00 0. -1.
         21   -1    0    0  501  502  0.00000000000E+00 -0.00000000000E+00 -0.72454033447E+02  0.72454033447E+02  0.00000000000E+00 0.  1.
         24    2    1    2    0    0  0.29093343913E+02  0.14484157302E+01  0.23223721859E+03  0.24756489059E+03  0.80658098090E+02 0.  0.
         23    2    1    2    0    0 -0.99714890014E-01 -0.11715862911E+02 -0.81496255401E+00  0.92039752431E+02  0.91287351133E+02 0.  0.
        -13    1    3    3    0    0  0.37955275267E+02  0.34649495819E+02  0.13859854967E+03  0.14781998664E+03  0.00000000000E+00 0.  1.
         14    1    3    3    0    0 -0.88619313537E+01 -0.33201080089E+02  0.93638668922E+02  0.99744903949E+02  0.00000000000E+00 0. -1.
        -13    1    4    4    0    0  0.30110031942E+02  0.14609492984E+02  0.27217147626E+02  0.43137274296E+02  0.00000000000E+00 0.  1.
         13    1    4    4    0    0 -0.30209746832E+02 -0.26325355895E+02 -0.28032110180E+02  0.48902478135E+02  0.00000000000E+00 0. -1.
          1    1    1    2  501    0 -0.28993629023E+02  0.10267447181E+02 -0.54828742456E+01  0.31242805660E+02  0.00000000000E+00 0. -1.
<scales pt_clust_5="13000.00000" pt_clust_6="13000.00000" pt_clust_7="13000.00000" pt_clust_8="13000.00000" pt_clust_9="30.75794"></scales>
<clustering>
<clus scale="   30.758">  2  9  1 -1</clus>
<clus scale="   80.658">  5  6 -1 -1</clus>
<clus scale="   84.489">  1  5  2 -1</clus>
<clus scale="   91.287">  7  8 -1 -1</clus>
<clus scale="   30.758">  2  5  1 -1</clus>
</clustering>
</event>
<event>
 9    2  0.9254368E-005  0.1433027E+03  0.7546771E-02  0.1230991E+00
         21   -1    0    0  501  502  0.00000000000E+00  0.00000000000E+00  0.38839734737E+03  0.38839734737E+03  0.00000000000E+00 0. -1.
          2   -1    0    0  502    0 -0.00000000000E+00 -0.00000000000E+00 -0.37159100789E+03  0.37159100789E+03  0.00000000000E+00 0. -1.
         23    2    1    2    0    0  0.20461352197E+02  0.12839836219E+02 -0.24221163664E+03  0.25846597636E+03  0.86917522299E+02 0.  0.
         24    2    1    2    0    0 -0.78001016632E+02 -0.92515891982E+02  0.34275297285E+03  0.37240755977E+03  0.81021239857E+02 0.  0.
        -11    1    4    4    0    0 -0.64033378456E+02 -0.81084357847E+02  0.17158566526E+03  0.20029125585E+03  0.00000000000E+00 0.  1.
         12    1    4    4    0    0 -0.13967638176E+02 -0.11431534135E+02  0.17116730759E+03  0.17211630392E+03  0.00000000000E+00 0. -1.
        -13    1    3    3    0    0  0.53223177167E+02 -0.36197535512E+01 -0.15193821502E+03  0.16103114726E+03  0.00000000000E+00 0.  1.
         13    1    3    3    0    0 -0.32761824970E+02  0.16459589770E+02 -0.90273421619E+02  0.97434829099E+02  0.00000000000E+00 0. -1.
          1    1    1    2  501    0  0.57539664435E+02  0.79676055763E+02 -0.83734996729E+02  0.12911481914E+03  0.00000000000E+00 0. -1.
<scales pt_clust_5="13000.00000" pt_clust_6="13000.00000" pt_clust_7="13000.00000" pt_clust_8="13000.00000" pt_clust_9="118.19997"></scales>
<clustering>
<clus scale="   81.021">  5  6 -1 -1</clus>
<clus scale="   86.918">  7  8 -1 -1</clus>
<clus scale="   90.212">  2  7  1 -1</clus>
<clus scale="  118.200">  1  9  2 -1</clus>
<clus scale="  118.200">  1  5  2 -1</clus>
</clustering>
</event>
<event>
 9    2  0.9254368E-005  0.9216648E+02  0.7546771E-02  0.1304624E+00
          2   -1    0    0  502    0 -0.00000000000E+00  0.00000000000E+00  0.17559470929E+03  0.17559470929E+03  0.00000000000E+00 0. -1.
         21   -1    0    0  501  502  0.00000000000E+00 -0.00000000000E+00 -0.83956940408E+02  0.83956940408E+02  0.00000000000E+00 0. -1.
         24    2    1    2    0    0 -0.51883492906E+01 -0.25696690775E+01  0.85768141298E+02  0.11796080924E+03  0.80777820510E+02 0.  0.
         23    2    1    2    0    0 -0.16661507288E+02  0.16566936887E+02  0.36361028125E+02  0.10155254322E+03  0.91862535594E+02 0.  0.
        -11    1    3    3    0    0  0.17183385383E+02  0.15384236363E+02 -0.42769241925E+01  0.23457100039E+02  0.00000000000E+00 0.  1.
         12    1    3    3    0    0 -0.22371734673E+02 -0.17953905440E+02  0.90045065490E+02  0.94503709197E+02  0.00000000000E+00 0. -1.
        -13    1    4    4    0    0  0.15901879616E+02 -0.18466737034E+02 -0.17135919896E+02  0.29791440091E+02  0.00000000000E+00 0.  1.
         13    1    4    4    0    0 -0.32563386904E+02  0.35033673922E+02  0.53496948020E+02  0.71761103131E+02  0.00000000000E+00 0. -1.
          1    1    1    2  501    0  0.21849856578E+02 -0.13997267810E+02 -0.30491400543E+02  0.40038297238E+02  0.00000000000E+00 0. -1.
<scales pt_clust_5="13000.00000" pt_clust_6="13000.00000" pt_clust_7="13000.00000" pt_clust_8="13000.00000" pt_clust_9="25.94879"></scales>
<clustering>
<clus scale="   25.949">  2  9  1 -1</clus>
<clus scale="   80.778">  5  6 -1 -1</clus>
<clus scale="   81.123">  1  5  2 -1</clus>
<clus scale="   91.863">  7  8 -1 -1</clus>
<clus scale="   25.949">  2  5  1 -1</clus>
</clustering>
</event>
<event>
 9    2  0.9254368E-005  0.1260210E+03  0.7546771E-02  0.1236459E+00
         21   -1    0    0  501  502  0.00000000000E+00  0.00000000000E+00  0.12688218907E+03  0.12688218907E+03  0.00000000000E+00 0. -1.
          2   -1    0    0  502    0 -0.00000000000E+00 -0.00000000000E+00 -0.20354713164E+03  0.20354713164E+03  0.00000000000E+00 0. -1.
         23    2    1    2    0    0  0.56573901177E+02  0.58805898923E+02 -0.87157038714E+02  0.15011793725E+03  0.90996184778E+02 0.  0.
         24    2    1    2    0    0 -0.82053460742E+02 -0.52514145145E+02 -0.32083260133E+02  0.13029683475E+03  0.80358096697E+02 0.  0.
        -11    1    4    4    0    0 -0.63849564803E+02 -0.63129864675E+02  0.24713149359E+01  0.89823460950E+02  0.00000000000E+00 0.  1.
         12    1    4    4    0    0 -0.18203895939E+02  0.10615719530E+02 -0.34554575069E+02  0.40473373799E+02  0.00000000000E+00 0. -1.
        -11    1    3    3    0    0  0.53013959507E+02  0.12157080492E+02 -0.37916166403E+01  0.54522021839E+02  0.00000000000E+00 0. -1.
         11    1    3    3    0    0  0.35599416707E+01  0.46648818430E+02 -0.83365422074E+02  0.95595915410E+02  0.00000000000E+00 0.  1.
          1    1    1    2  501    0  0.25479559565E+02 -0.62917537777E+01  0.42575356272E+02  0.50014548712E+02  0.00000000000E+00 0. -1.
<scales pt_clust_5="13000.00000" pt_clust_6="13000.00000" pt_clust_7="13000.00000" pt_clust_8="13000.00000" pt_clust_9="26.24489"></scales>
<clustering>
<clus scale="   26.245">  1  9  2 -1</clus>
<clus scale="   80.358">  5  6 -1 -1</clus>
<clus scale="   90.996">  7  8 -1 -1</clus>
<clus scale="  118.568">  1  5  2 -1</clus>
<clus scale="   26.245">  1  5  2 -1</clus>
</clustering>
</event>
<event>
 9    2  0.9254368E-005  0.8977464E+02  0.7546771E-02  0.1306076E+00
         21   -1    0    0  501  502  0.00000000000E+00  0.00000000000E+00  0.35160188825E+02  0.35160188825E+02  0.00000000000E+00 0. -1.
          2   -1    0    0  502    0 -0.00000000000E+00 -0.00000000000E+00 -0.12031517441E+04  0.12031517441E+04  0.00000000000E+00 0. -1.
         24    2    1    2    0    0  0.18005546718E+02  0.29268195268E+02 -0.58435520627E+03  0.59079980849E+03  0.79953609375E+02 0.  0.
         23    2    1    2    0    0 -0.41201202738E+02  0.40062527779E+02 -0.59433880537E+02  0.11823618925E+03  0.84527303599E+02 0.  0.
        -13    1    3    3    0    0  0.10129462891E+01 -0.24448677473E+02 -0.90802279355E+02  0.94041574989E+02  0.00000000000E+00 0.  1.
         14    1    3    3    0    0  0.16992600429E+02  0.53716872740E+02 -0.49355292692E+03  0.49675823350E+03  0.00000000000E+00 0. -1.
        -13    1    4    4    0    0 -0.39390143413E+02  0.29880048418E+01  0.88801512437E+01  0.40489117762E+02  0.00000000000E+00 0. -1.
         13    1    4    4    0    0 -0.18110593252E+01  0.37074522938E+02 -0.68314031781E+02  0.77747071489E+02  0.00000000000E+00 0.  1.
          1    1    1    2  501    0  0.23195656020E+02 -0.69330723047E+02 -0.52420246850E+03  0.52927593522E+03  0.00000000000E+00 0. -1.
<scales pt_clust_5="13000.00000" pt_clust_6="13000.00000" pt_clust_7="13000.00000" pt_clust_8="13000.00000" pt_clust_9="73.10809"></scales>
<clustering>
<clus scale="   73.108">  1  9  2 -1</clus>
<clus scale="   79.954">  5  6 -1 -1</clus>
<clus scale="   84.527">  7  8 -1 -1</clus>
<clus scale="   85.482">  2  5  1 -1</clus>
<clus scale="   73.108">  1  5  2 -1</clus>
</clustering>
</event>
<event>
 9    2  0.9254368E-005  0.1225603E+03  0.7546771E-02  0.1242107E+00
         21   -1    0    0  501  502  0.00000000000E+00  0.00000000000E+00  0.90412719116E+02  0.90412719116E+02  0.00000000000E+00 0.  1.
          2   -1    0    0  502    0 -0.00000000000E+00 -0.00000000000E+00 -0.38570760414E+03  0.38570760414E+03  0.00000000000E+00 0. -1.
         23    2    1    2    0    0 -0.59332229844E+02  0.92830918839E+02 -0.16815578082E+03  0.22077029771E+03  0.91242888692E+02 0.  0.
         24    2    1    2    0    0 -0.39118792317E+02 -0.56878948745E+02 -0.25180886833E+02  0.10912887110E+03  0.80681712448E+02 0.  0.
        -13    1    4    4    0    0 -0.51869019877E+02 -0.54902762571E+02  0.56164047201E+01  0.75738052278E+02  0.00000000000E+00 0.  1.
         14    1    4    4    0    0  0.12750227560E+02 -0.19761861743E+01 -0.30797291554E+02  0.33390818823E+02  0.00000000000E+00 0. -1.
        -11    1    3    3    0    0 -0.69217737548E+02  0.39142691225E+02 -0.13563710215E+03  0.15722807939E+03  0.00000000000E+00 0. -1.
         11    1    3    3    0    0  0.98855077037E+01  0.53688227614E+02 -0.32518678665E+02  0.63542218320E+02  0.00000000000E+00 0.  1.
          1    1    1    2  501    0  0.98451022161E+02 -0.35951970094E+02 -0.10195821738E+03  0.14622115445E+03  0.00000000000E+00 0. -1.
<scales pt_clust_5="13000.00000" pt_clust_6="13000.00000" pt_clust_7="13000.00000" pt_clust_8="13000.00000" pt_clust_9="104.81011"></scales>
<clustering>
<clus scale="   80.682">  5  6 -1 -1</clus>
<clus scale="   91.243">  7  8 -1 -1</clus>
<clus scale="  104.810">  1  9  2 -1</clus>
<clus scale="  114.914">  1  5  2 -1</clus>
<clus scale="  104.810">  1  5  2 -1</clus>
</clustering>
</event>
<event>
 9    2  0.9254368E-005  0.1009079E+03  0.7546771E-02  0.1285388E+00
          2   -1    0    0  502    0 -0.00000000000E+00  0.00000000000E+00  0.79290121895E+03  0.79290121895E+03  0.00000000000E+00 0. -1.
         21   -1    0    0  501  502  0.00000000000E+00 -0.00000000000E+00 -0.17670218280E+02  0.17670218280E+02  0.00000000000E+00 0. -1.
         23    2    1    2    0    0 -0.19270646388E+01 -0.20318077807E+02  0.27413899885E+03  0.29016616049E+03  0.92885263322E+02 0.  0.
         24    2    1    2    0    0  0.23079250493E+02  0.53596104107E+02  0.30706809576E+03  0.32241507970E+03  0.79091554557E+02 0.  0.
        -11    1    4    4    0    0 -0.76024176570E+01  0.44274686203E+02  0.26861821193E+03  0.27234865224E+03  0.00000000000E+00 0.  1.
         12    1    4    4    0    0  0.30681668150E+02  0.93214179043E+01  0.38449883826E+02  0.50066427458E+02  0.00000000000E+00 0. -1.
        -11    1    3    3    0    0 -0.22719138526E+02 -0.52193977211E+02  0.17134441099E+03  0.18055270058E+03  0.00000000000E+00 0.  1.
         11    1    3    3    0    0  0.20792073888E+02  0.31875899404E+02  0.10279458786E+03  0.10961345991E+03  0.00000000000E+00 0. -1.
          1    1    1    2  501    0 -0.21152185854E+02 -0.33278026300E+02  0.19402390606E+03  0.19799019704E+03  0.00000000000E+00 0. -1.
<scales pt_clust_5="13000.00000" pt_clust_6="13000.00000" pt_clust_7="13000.00000" pt_clust_8="13000.00000" pt_clust_9="39.43150"></scales>
<clustering>
<clus scale="   39.432">  2  9  1 -1</clus>
<clus scale="   79.092">  5  6 -1 -1</clus>
<clus scale="   88.375">  2  5  1 -1</clus>
<clus scale="   92.885">  7  8 -1 -1</clus>
<clus scale="   39.432">  2  5  1 -1</clus>
</clustering>
</event>
<event>
 9    2  0.9254368E-005  0.1094547E+03  0.7546771E-02  0.1267415E+00
         -1   -1    0    0    0  501 -0.00000000000E+00  0.00000000000E+00  0.13927176222E+03  0.13927176222E+03  0.00000000000E+00 0.  1.
         21   -1    0    0  501  502  0.00000000000E+00 -0.00000000000E+00 -0.18447599986E+03  0.18447599986E+03  0.00000000000E+00 0. -1.
         24    2    1    2    0    0  0.59338349334E+02  0.11570643189E+02  0.58969502776E+02  0.11595531309E+03  0.79456358397E+02 0.  0.
         23    2    1    2    0    0 -0.34923988363E+02 -0.16125947118E+02 -0.13469287757E+03  0.16844490081E+03  0.93550960487E+02 0.  0.
        -13    1    3    3    0    0  0.65065341838E+02  0.47950542013E+01  0.97782950627E+01  0.65970495735E+02  0.00000000000E+00 0.  1.
         14    1    3    3    0    0 -0.57269925036E+01  0.67755889879E+01  0.49191207714E+02  0.49984817351E+02  0.00000000000E+00 0. -1.
        -11    1    4    4    0    0 -0.41928897463E+02  0.30734257895E+02 -0.54630296598E+02  0.75412839472E+02  0.00000000000E+00 0. -1.
         11    1    4    4    0    0  0.70049090998E+01 -0.46860205013E+02 -0.80062580973E+02  0.93032061341E+02  0.00000000000E+00 0.  1.
         -2    1    1    2    0  502 -0.24414360971E+02  0.45553039290E+01  0.30519137152E+02  0.39347548183E+02  0.00000000000E+00 0.  1.
<scales pt_clust_5="13000.00000" pt_clust_6="13000.00000" pt_clust_7="13000.00000" pt_clust_8="13000.00000" pt_clust_9="24.83571"></scales>
<clustering>
<clus scale="   24.836">  2  9  1 -1</clus>
<clus scale="   79.456">  5  6 -1 -1</clus>
<clus scale="   93.551">  7  8 -1 -1</clus>
<clus scale="   97.683">  1  5  2 -1</clus>
<clus scale="   24.836">  2  5  1 -1</clus>
</clustering>
</event>
<event>
 9    2  0.9254368E-005  0.1042311E+03  0.7546771E-02  0.1275950E+00
         21   -1    0    0  501  502  0.00000000000E+00  0.00000000000E+00  0.44509843237E+02  0.44509843237E+02  0.00000000000E+00 0.  1.
          4   -1    0    0  502    0 -0.00000000000E+00 -0.00000000000E+00 -0.49295351156E+03  0.49295351156E+03  0.00000000000E+00 0. -1.
         23    2    1    2    0    0  0.69366592424E+01 -0.60383262957E+02 -0.37234419588E+03  0.38788113178E+03  0.90096151420E+02 0.  0.
         24    2    1    2    0    0 -0.75701271412E+01  0.20171658490E+02 -0.30106455419E+02  0.88486134512E+02  0.80369115410E+02 0.  0.
        -13    1    4    4    0    0  0.89932004856E+01  0.48936354519E+02 -0.21455200998E+02  0.54184592815E+02  0.00000000000E+00 0.  1.
         14    1    4    4    0    0 -0.16563327627E+02 -0.28764696029E+02 -0.86512544214E+01  0.34301541697E+02  0.00000000000E+00 0. -1.
        -13    1    3    3    0    0 -0.36911490448E+02 -0.31806374449E+02 -0.25170769330E+03  0.25638031603E+03  0.00000000000E+00 0. -1.
         13    1    3    3    0    0  0.43848149690E+02 -0.28576888507E+02 -0.12063650258E+03  0.13150081575E+03  0.00000000000E+00 0.  1.
          3    1    1    2  501    0  0.63346789880E+00  0.40211604467E+02 -0.45993017027E+02  0.61096088505E+02  0.00000000000E+00 0. -1.
<scales pt_clust_5="13000.00000" pt_clust_6="13000.00000" pt_clust_7="13000.00000" pt_clust_8="13000.00000" pt_clust_9="40.21659"></scales>
<clustering>
<clus scale="   40.217">  1  9  2 -1</clus>
<clus scale="   80.369">  5  6 -1 -1</clus>
<clus scale="   90.096">  7  8 -1 -1</clus>
<clus scale="   95.948">  1  5  2 -1</clus>
<clus scale="   40.217">  1  5  2 -1</clus>
</clustering>
</event>
<event>
 9    2  0.9254368E-005  0.9264945E+02  0.7546771E-02  0.1298171E+00
         -3   -1    0    0    0  501 -0.00000000000E+00  0.00000000000E+00  0.40697548344E+02  0.40697548344E+02  0.00000000000E+00 0.  1.
         21   -1    0    0  501  502  0.00000000000E+00 -0.00000000000E+00 -0.55668249113E+03  0.55668249113E+03  0.00000000000E+00 0. -1.
         24    2    1    2    0    0  0.22035454796E+02  0.14462634999E+02 -0.38439052507E+02  0.99574389314E+02  0.87993006372E+02 0.  0.
         23    2    1    2    0    0  0.11001489578E+02  0.19045945672E+02 -0.32693038607E+03  0.34001054637E+03  0.90773969218E+02 0.  0.
        -11    1    3    3    0    0 -0.27150190722E+02 -0.16827379026E+02 -0.22717759055E+02  0.39196812595E+02  0.00000000000E+00 0.  1.
         12    1    3    3    0    0  0.49185645517E+02  0.31290014025E+02 -0.15721293451E+02  0.60377576719E+02  0.00000000000E+00 0. -1.
        -11    1    4    4    0    0  0.35122914881E+02  0.44562914371E+02 -0.23066292342E+03  0.23753916883E+03  0.00000000000E+00 0. -1.
         11    1    4    4    0    0 -0.24121425303E+02 -0.25516968699E+02 -0.96267462647E+02  0.10247137754E+03  0.00000000000E+00 0.  1.
         -4    1    1    2    0  502 -0.33036944374E+02 -0.33508580671E+02 -0.15061550421E+03  0.15779510379E+03  0.00000000000E+00 0.  1.
<scales pt_clust_5="13000.00000" pt_clust_6="13000.00000" pt_clust_7="13000.00000" pt_clust_8="13000.00000" pt_clust_9="47.05597"></scales>
<clustering>
<clus scale="   47.056">  2  9  1 -1</clus>
<clus scale="   87.993">  5  6 -1 -1</clus>
<clus scale="   89.927">  1  5  2 -1</clus>
<clus scale="   90.774">  7  8 -1 -1</clus>
<clus scale="   47.056">  2  5  1 -1</clus>
</clustering>
</event>
<event>
 9    2  0.9254368E-005  0.1055745E+03  0.7546771E-02  0.1274328E+00
          2   -1    0    0  502    0 -0.00000000000E+00  0.00000000000E+00  0.45490237903E+03  0.45490237903E+03  0.00000000000E+00 0. -1.
         21   -1    0    0  501  502  0.00000000000E+00 -0.00000000000E+00 -0.41996902136E+02  0.41996902136E+02  0.00000000000E+00 0. -1.
         23    2    1    2    0    0  0.31360978935E+02  0.53866349976E+02  0.19713438396E+03  0.22660558166E+03  0.92752518256E+02 0.  0.
         24    2    1    2    0    0 -0.56467682056E+02  0.50525157909E+01  0.13370965022E+03  0.16619826413E+03  0.80805107545E+02 0.  0.
        -13    1    4    4    0    0 -0.57363135403E+02 -0.25225901163E+02  0.61093712408E+02  0.87517524465E+02  0.00000000000E+00 0.  1.
         14    1    4    4    0    0  0.89545334684E+00  0.30278416954E+02  0.72615937814E+02  0.78680739666E+02  0.00000000000E+00 0. -1.
        -11    1    3    3    0    0 -0.23827928877E+02  0.51697851327E+01  0.10941382839E+03  0.11209764813E+03  0.00000000000E+00 0.  1.
         11    1    3    3    0    0  0.55188907812E+02  0.48696564844E+02  0.87720555566E+02  0.11450793353E+03  0.00000000000E+00 0. -1.
          1    1    1    2  501    0  0.25106703121E+02 -0.58918865767E+02  0.82061442717E+02  0.10409543537E+03  0.00000000000E+00 0. -1.
<scales pt_clust_5="13000.00000" pt_clust_6="13000.00000" pt_clust_7="13000.00000" pt_clust_8="13000.00000" pt_clust_9="64.04513"></scales>
<clustering>
<clus scale="   64.045">  2  9  1 -1</clus>
<clus scale="   80.805">  5  6 -1 -1</clus>
<clus scale="   92.753">  7  8 -1 -1</clus>
<clus scale="   95.249">  2  5  1 -1</clus>
<clus scale="   64.045">  2  5  1 -1</clus>
</clustering>
</event>
<event>
 9    2  0.9254368E-005  0.2902338E+03  0.7546771E-02  0.1106977E+00
          2   -1    0    0  502    0 -0.00000000000E+00  0.00000000000E+00  0.80075560650E+03  0.80075560650E+03  0.00000000000E+00 0. -1.
         21   -1    0    0  501  502  0.00000000000E+00 -0.00000000000E+00 -0.27630264811E+03  0.27630264811E+03  0.00000000000E+00 0.  1.
         24    2    1    2    0    0  0.14036174301E+03 -0.99004971163E+02 -0.76004232571E+02  0.20251654506E+03  0.75715945741E+02 0.  0.
         23    2    1    2    0    0 -0.31900618327E+03 -0.11858256318E+02  0.12277132406E+03  0.35263340469E+03  0.85860100649E+02 0.  0.
        -11    1    3    3    0    0  0.69701155430E+02 -0.19403280462E+02 -0.61763539991E+02  0.95128719287E+02  0.00000000000E+00 0.  1.
         12    1    3    3    0    0  0.70660587580E+02 -0.79601690701E+02 -0.14240692580E+02  0.10738782578E+03  0.00000000000E+00 0. -1.
        -13    1    4    4    0    0 -0.11653821689E+03 -0.13033816276E+02  0.28224664027E+01  0.11729877527E+03  0.00000000000E+00 0.  1.
         13    1    4    4    0    0 -0.20246796638E+03  0.11755599586E+01  0.11994885766E+03  0.23533462942E+03  0.00000000000E+00 0. -1.
          1    1    1    2  501    0  0.17864444026E+03  0.11086322748E+03  0.47768586690E+03  0.52190830486E+03  0.00000000000E+00 0. -1.
<scales pt_clust_5="13000.00000" pt_clust_6="13000.00000" pt_clust_7="13000.00000" pt_clust_8="13000.00000" pt_clust_9="277.24320"></scales>
<clustering>
<clus scale="   75.716">  5  6 -1 -1</clus>
<clus scale="   85.860">  7  8 -1 -1</clus>
<clus scale="  187.713">  1  5  2 -1</clus>
<clus scale="  277.243">  2  9  1 -1</clus>
<clus scale="  277.243">  2  5  1 -1</clus>
</clustering>
</event>
<event>
 9    2  0.9254368E-005  0.9233024E+02  0.7546771E-02  0.1300036E+00
         21   -1    0    0  501  502  0.00000000000E+00  0.00000000000E+00  0.12051230521E+03  0.12051230521E+03  0.00000000000E+00 0. -1.
          4   -1    0    0  502    0 -0.00000000000E+00 -0.00000000000E+00 -0.26875066458E+03  0.26875066458E+03  0.00000000000E+00 0. -1.
         23    2    1    2    0    0  0.18964056173E+02 -0.35820447915E+02 -0.57541339332E+02  0.11009762114E+03  0.84662509609E+02 0.  0.
         24    2    1    2    0    0  0.13955284533E+02  0.31825191067E+02  0.72152882455E+02  0.11297348420E+03  0.79682977681E+02 0.  0.
        -13    1    4    4    0    0  0.94060663402E+01 -0.26650951032E+02  0.24478208959E+02  0.37388901946E+02  0.00000000000E+00 0.  1.
         14    1    4    4    0    0  0.45492181928E+01  0.58476142099E+02  0.47674673496E+02  0.75584582250E+02  0.00000000000E+00 0. -1.
        -11    1    3    3    0    0 -0.94903598477E+01  0.20792153800E+02  0.22664712204E+01  0.22967748725E+02  0.00000000000E+00 0. -1.
         11    1    3    3    0    0  0.28454416021E+02 -0.56612601715E+02 -0.59807810553E+02  0.87129872416E+02  0.00000000000E+00 0.  1.
          3    1    1    2  501    0 -0.32919340706E+02  0.39952568475E+01 -0.16284990249E+03  0.16619186445E+03  0.00000000000E+00 0. -1.
<scales pt_clust_5="13000.00000" pt_clust_6="13000.00000" pt_clust_7="13000.00000" pt_clust_8="13000.00000" pt_clust_9="33.16091"></scales>
<clustering>
<clus scale="   33.161">  1  9  2 -1</clus>
<clus scale="   79.683">  5  6 -1 -1</clus>
<clus scale="   84.663">  7  8 -1 -1</clus>
<clus scale="   87.787">  1  5  2 -1</clus>
<clus scale="   33.161">  1  5  2 -1</clus>
</clustering>
</event>
<event>
 9    2  0.9254368E-005  0.2815903E+03  0.7546771E-02  0.1095300E+00
          2   -1    0    0  502    0 -0.00000000000E+00  0.00000000000E+00  0.99962386888E+03  0.99962386888E+03  0.00000000000E+00 0. -1.
         21   -1    0    0  501  502  0.00000000000E+00 -0.00000000000E+00 -0.14902437355E+03  0.14902437355E+03  0.00000000000E+00 0. -1.
         24    2    1    2    0    0  0.24300851378E+03  0.14874323107E+02  0.32967858678E+03  0.41765647305E+03  0.80464747792E+02 0.  0.
         23    2    1    2    0    0 -0.31069363748E+03 -0.80132491907E+02  0.18379796289E+03  0.38100350522E+03  0.91816268673E+02 0.  0.
        -11    1    3    3    0    0  0.44707995375E+02  0.18695095123E+02  0.26129401766E+02  0.55055036725E+02  0.00000000000E+00 0.  1.
         12    1    3    3    0    0  0.19830051841E+03 -0.38207720168E+01  0.30354918501E+03  0.36260143632E+03  0.00000000000E+00 0. -1.
        -13    1    4    4    0    0 -0.13766517495E+03 -0.69967671109E+01  0.11957070913E+03  0.18247687423E+03  0.00000000000E+00 0.  1.
         13    1    4    4    0    0 -0.17302846253E+03 -0.73135724796E+02  0.64227253755E+02  0.19852663099E+03  0.00000000000E+00 0. -1.
          1    1    1    2  501    0  0.67685123702E+02  0.65258168800E+02  0.33712294565E+03  0.34998826416E+03  0.00000000000E+00 0. -1.
<scales pt_clust_5="13000.00000" pt_clust_6="13000.00000" pt_clust_7="13000.00000" pt_clust_8="13000.00000" pt_clust_9="94.02081"></scales>
<clustering>
<clus scale="   80.465">  5  6 -1 -1</clus>
<clus scale="   91.816">  7  8 -1 -1</clus>
<clus scale="   94.021">  2  9  1 -1</clus>
<clus scale="  278.096">  1  5  2 -1</clus>
<clus scale="   94.021">  2  5  1 -1</clus>
</clustering>
</event>
<event>
 9    2  0.9254368E-005  0.9651663E+02  0.7546771E-02  0.1296217E+00
          2   -1    0    0  502    0 -0.00000000000E+00  0.00000000000E+00  0.63720249823E+03  0.63720249823E+03  0.00000000000E+00 0. -1.
         21   -1    0    0  501  502  0.00000000000E+00 -0.00000000000E+00 -0.43625329889E+02  0.43625329889E+02  0.00000000000E+00 0. -1.
         24    2    1    2    0    0 -0.13385128466E+02  0.22419336170E+02  0.48727131381E+03  0.49405721677E+03  0.77313723737E+02 0.  0.
         23    2    1    2    0    0  0.16303076444E+02 -0.55521925887E+02  0.46447748338E+02  0.11830683448E+03  0.92144664543E+02 0.  0.
        -11    1    3    3    0    0  0.11576543209E+02  0.41510573293E+02  0.17581377115E+03  0.18101830342E+03  0.00000000000E+00 0.  1.
         12    1    3    3    0    0 -0.24961671675E+02 -0.19091237123E+02  0.31145754267E+03  0.31303891335E+03  0.00000000000E+00 0. -1.
        -13    1    4    4    0    0  0.34841709657E+02  0.13132598693E+02  0.10861521540E+02  0.38786370421E+02  0.00000000000E+00 0.  1.
         13    1    4    4    0    0 -0.18538633214E+02 -0.68654524580E+02  0.35586226799E+02  0.79520464061E+02  0.00000000000E+00 0. -1.
          1    1    1    2  501    0 -0.29179479774E+01  0.33102589718E+02  0.59858106185E+02  0.68463776864E+02  0.00000000000E+00 0. -1.
<scales pt_clust_5="13000.00000" pt_clust_6="13000.00000" pt_clust_7="13000.00000" pt_clust_8="13000.00000" pt_clust_9="33.23096"></scales>
<clustering>
<clus scale="   33.231">  2  9  1 -1</clus>
<clus scale="   77.314">  5  6 -1 -1</clus>
<clus scale="   82.476">  1  5  2 -1</clus>
<clus scale="   92.145">  7  8 -1 -1</clus>
<clus scale="   33.231">  2  5  1 -1</clus>
</clustering>
</event>
<event>
 9    2  0.9254368E-005  0.1711819E+03  0.7546771E-02  0.1178834E+00
         21   -1    0    0  501  502  0.00000000000E+00  0.00000000000E+00  0.63315881004E+02  0.63315881004E+02  0.00000000000E+00 0. -1.
          2   -1    0    0  502    0 -0.00000000000E+00 -0.00000000000E+00 -0.82634659365E+03  0.82634659365E+03  0.00000000000E+00 0. -1.
         23    2    1    2    0    0 -0.13274063683E+03 -0.11137757773E+03 -0.60547891480E+03  0.63590147795E+03  0.87982565927E+02 0.  0.
         24    2    1    2    0    0  0.82847285643E+02  0.49678835390E+02 -0.91851364874E+02  0.15074338563E+03  0.70393434764E+02 0.  0.
        -13    1    4    4    0    0  0.53198685449E+02 -0.69843383160E+01 -0.28623296080E+02  0.60812615415E+02  0.00000000000E+00 0.  1.
         14    1    4    4    0    0  0.29648600194E+02  0.56663173706E+02 -0.63228068795E+02  0.89930770215E+02  0.00000000000E+00 0. -1.
        -11    1    3    3    0    0 -0.83946751601E+02 -0.31354371458E+02 -0.40211089687E+03  0.41197491076E+03  0.00000000000E+00 0. -1.
         11    1    3    3    0    0 -0.48793885227E+02 -0.80023206272E+02 -0.20336801793E+03  0.22392656719E+03  0.00000000000E+00 0.  1.
          1    1    1    2  501    0  0.49893351185E+02  0.61698742339E+02 -0.65700432976E+02  0.10301761108E+03  0.00000000000E+00 0. -1.
<scales pt_clust_5="13000.00000" pt_clust_6="13000.00000" pt_clust_7="13000.00000" pt_clust_8="13000.00000" pt_clust_9="79.34785"></scales>
<clustering>
<clus scale="   70.393">  5  6 -1 -1</clus>
<clus scale="   79.348">  1  9  2 -1</clus>
<clus scale="   87.983">  7  8 -1 -1</clus>
<clus scale="  162.842">  1  5  2 -1</clus>
<clus scale="   79.348">  1  5  2 -1</clus>
</clustering>
</event>
<event>
 9    2  0.9254368E-005  0.1036280E+03  0.7546771E-02  0.1277181E+00
         -1   -1    0    0    0  501 -0.00000000000E+00  0.00000000000E+00  0.68133779169E+02  0.68133779169E+02  0.00000000000E+00 0.  1.
         21   -1    0    0  501  502  0.00000000000E+00 -0.00000000000E+00 -0.60272976742E+03  0.60272976742E+03  0.00000000000E+00 0.  1.
         23    2    1    2    0    0 -0.19644631261E+02  0.32232443042E+02  0.51420085344E+01  0.98841727490E+02  0.91205289976E+02 0.  0.
         24    2    1    2    0    0  0.10702991255E+02  0.22263066629E+02 -0.17380905659E+03  0.20194925490E+03  0.99818411350E+02 0.  0.
        -11    1    4    4    0    0 -0.33553332153E+02  0.37955604612E+02 -0.12159850864E+03  0.13172946262E+03  0.00000000000E+00 0.  1.
         12    1    4    4    0    0  0.44256323408E+02 -0.15692537983E+02 -0.52210547957E+02  0.70219792280E+02  0.00000000000E+00 0. -1.
        -11    1    3    3    0    0 -0.31678409959E+02 -0.16573211907E+02 -0.21734960507E+02  0.41840190233E+02  0.00000000000E+00 0. -1.
         11    1    3    3    0    0  0.12033778699E+02  0.48805654950E+02  0.26876969042E+02  0.57001537257E+02  0.00000000000E+00 0.  1.
         -2    1    1    2    0  502  0.89416400058E+01 -0.54495509672E+02 -0.36592894019E+03  0.37007256419E+03  0.00000000000E+00 0.  1.
<scales pt_clust_5="13000.00000" pt_clust_6="13000.00000" pt_clust_7="13000.00000" pt_clust_8="13000.00000" pt_clust_9="55.22421"></scales>
<clustering>
<clus scale="   55.224">  2  9  1 -1</clus>
<clus scale="   91.205">  7  8 -1 -1</clus>
<clus scale="   95.360">  1  7  2 -1</clus>
<clus scale="   99.818">  5  6 -1 -1</clus>
<clus scale="   55.224">  2  5  1 -1</clus>
</clustering>
</event>
<event>
 9    2  0.9254368E-005  0.1756461E+03  0.7546771E-02  0.1187246E+00
         -1   -1    0    0    0  501 -0.00000000000E+00  0.00000000000E+00  0.41640022845E+03  0.41640022845E+03  0.00000000000E+00 0.  1.
         21   -1    0    0  501  502  0.00000000000E+00 -0.00000000000E+00 -0.25000617940E+03  0.25000617940E+03  0.00000000000E+00 0.  1.
         23    2    1    2    0    0 -0.23451125751E+02  0.80426380078E+02  0.83253083065E+02  0.15009665337E+03  0.92625976934E+02 0.  0.
         24    2    1    2    0    0  0.17033097969E+03 -0.11758952370E+03  0.21980154038E+03  0.31227322997E+03  0.79761609077E+02 0.  0.
        -13    1    4    4    0    0  0.15741004227E+03 -0.12539017118E+03  0.21860280119E+03  0.29713263221E+03  0.00000000000E+00 0.  1.
         14    1    4    4    0    0  0.12920937419E+02  0.78006474855E+01  0.11987391835E+01  0.15140597762E+02  0.00000000000E+00 0. -1.
        -11    1    3    3    0    0  0.17432924943E+02  0.25617252901E+02 -0.11668903793E+02  0.33110630227E+02  0.00000000000E+00 0.  1.
         11    1    3    3    0    0 -0.40884050694E+02  0.54809127177E+02  0.94921986858E+02  0.11698602315E+03  0.00000000000E+00 0. -1.
         -2    1    1    2    0  502 -0.14687985393E+03  0.37163143618E+02 -0.13666057439E+03  0.20403652450E+03  0.00000000000E+00 0.  1.
<scales pt_clust_5="13000.00000" pt_clust_6="13000.00000" pt_clust_7="13000.00000" pt_clust_8="13000.00000" pt_clust_9="156.49163"></scales>
<clustering>
<clus scale="   79.762">  5  6 -1 -1</clus>
<clus scale="   92.626">  7  8 -1 -1</clus>
<clus scale="  124.892">  1  7  2 -1</clus>
<clus scale="  156.492">  2  9  1 -1</clus>
<clus scale="  156.492">  2  5  1 -1</clus>
</clustering>
</event>
<event>
 9    2  0.9254368E-005  0.5323106E+03  0.7546771E-02  0.1005673E+00
         21   -1    0    0  501  502  0.00000000000E+00  0.00000000000E+00  0.64590088900E+03  0.64590088900E+03  0.00000000000E+00 0. -1.
          2   -1    0    0  502    0 -0.00000000000E+00 -0.00000000000E+00 -0.87870030783E+03  0.87870030783E+03  0.00000000000E+00 0. -1.
         24    2    1    2    0    0 -0.77375904228E+02 -0.17668973926E+02 -0.12644606270E+03  0.16997115342E+03  0.81254926174E+02 0.  0.
         23    2    1    2    0    0 -0.28645856503E+03 -0.29012606924E+03 -0.55863924273E+03  0.69760962301E+03  0.91376895749E+02 0.  0.
        -13    1    3    3    0    0 -0.29894835927E+02 -0.49575701538E+01 -0.11577223408E+03  0.11967242331E+03  0.00000000000E+00 0.  1.
         14    1    3    3    0    0 -0.47481068300E+02 -0.12711403772E+02 -0.10673828614E+02  0.50298730104E+02  0.00000000000E+00 0. -1.
        -11    1    4    4    0    0 -0.25736076655E+03 -0.28723868452E+03 -0.53740747790E+03  0.66147367548E+03  0.00000000000E+00 0. -1.
         11    1    4    4    0    0 -0.29097798477E+02 -0.28873847146E+01 -0.21231764829E+02  0.36135947537E+02  0.00000000000E+00 0.  1.
          1    1    1    2  501    0  0.36383446926E+03  0.30779504316E+03  0.45228588659E+03  0.65702042040E+03  0.00000000000E+00 0. -1.
<scales pt_clust_5="13000.00000" pt_clust_6="13000.00000" pt_clust_7="13000.00000" pt_clust_8="13000.00000" pt_clust_9="476.56407"></scales>
<clustering>
<clus scale="   81.255">  5  6 -1 -1</clus>
<clus scale="   91.377">  7  8 -1 -1</clus>
<clus scale="  101.923">  5  7 -1 -1</clus>
<clus scale="  476.564">  1  9  2 -1</clus>
<clus scale="  476.564">  1  5  2 -1</clus>
</clustering>
</event>
<event>
 9    2  0.9254368E-005  0.1767884E+03  0.7546771E-02  0.1184006E+00
         21   -1    0    0  501  502  0.00000000000E+00  0.00000000000E+00  0.22412823481E+03  0.22412823481E+03  0.00000000000E+00 0. -1.
         -1   -1    0    0    0  501 -0.00000000000E+00 -0.00000000000E+00 -0.48529018452E+03  0.48529018452E+03  0.00000000000E+00 0.  1.
         24    2    1    2    0    0 -0.65815488114E+02 -0.81053171685E+02 -0.34328993329E+02  0.13605034231E+03  0.80186786593E+02 0.  0.
         23    2    1    2    0    0 -0.15277807684E+02 -0.13925098440E+03  0.81558477414E+02  0.18579186483E+03  0.90788676248E+02 0.  0.
        -11    1    3    3    0    0  0.54638379663E+01 -0.52726150678E+02 -0.25559543211E+02  0.58848880531E+02  0.00000000000E+00 0.  1.
         12    1    3    3    0    0 -0.71279326080E+02 -0.28327021007E+02 -0.87694501179E+01  0.77201461780E+02  0.00000000000E+00 0. -1.
        -11    1    4    4    0    0 -0.21707947425E+02 -0.11303026393E+03  0.17684462012E+02  0.11644662186E+03  0.00000000000E+00 0.  1.
         11    1    4    4    0    0  0.64301397405E+01 -0.26220720467E+02  0.63874015402E+02  0.69345242969E+02  0.00000000000E+00 0. -1.
         -2    1    1    2    0  502  0.81093295798E+02  0.22030415608E+03 -0.30839143380E+03  0.38757621218E+03  0.00000000000E+00 0.  1.
<scales pt_clust_5="13000.00000" pt_clust_6="13000.00000" pt_clust_7="13000.00000" pt_clust_8="13000.00000" pt_clust_9="151.69572"></scales>
<clustering>
<clus scale="   80.187">  5  6 -1 -1</clus>
<clus scale="   90.789">  7  8 -1 -1</clus>
<clus scale="  131.648">  2  5  1 -1</clus>
<clus scale="  151.696">  1  9  2 -1</clus>
<clus scale="  151.696">  1  5  2 -1</clus>
</clustering>
</event>
<event>
 9    2  0.9254368E-005  0.1088344E+03  0.7546771E-02  0.1268487E+00
          2   -1    0    0  502    0 -0.00000000000E+00  0.00000000000E+00  0.97629656962E+02  0.97629656962E+02  0.00000000000E+00 0. -1.
         21   -1    0    0  501  502  0.00000000000E+00 -0.00000000000E+00 -0.22346110767E+03  0.22346110767E+03  0.00000000000E+00 0.  1.
         23    2    1    2    0    0 -0.49936268877E+02  0.26887647406E+02 -0.55993135633E+01  0.10828498865E+03  0.92074480295E+02 0.  0.
         24    2    1    2    0    0  0.38899355229E+02 -0.47649975997E+02 -0.98185942155E+01  0.99916280398E+02  0.78122840748E+02 0.  0.
        -13    1    4    4    0    0 -0.16772973086E+02 -0.38770116242E+02  0.20966973935E+01  0.42294806768E+02  0.00000000000E+00 0.  1.
         14    1    4    4    0    0  0.55672328315E+02 -0.88798597551E+01 -0.11915291609E+02  0.57621473631E+02  0.00000000000E+00 0. -1.
        -13    1    3    3    0    0 -0.25733681416E+02  0.18403059555E+02 -0.48733588925E+02  0.58102131198E+02  0.00000000000E+00 0.  1.
         13    1    3    3    0    0 -0.24202587460E+02  0.84845878509E+01  0.43134275362E+02  0.50182857449E+02  0.00000000000E+00 0. -1.
          1    1    1    2  501    0  0.11036913648E+02  0.20762328591E+02 -0.11041354293E+03  0.11288949559E+03  0.00000000000E+00 0. -1.
<scales pt_clust_5="13000.00000" pt_clust_6="13000.00000" pt_clust_7="13000.00000" pt_clust_8="13000.00000" pt_clust_9="23.51357"></scales>
<clustering>
<clus scale="   23.514">  2  9  1 -1</clus>
<clus scale="   78.123">  5  6 -1 -1</clus>
<clus scale="   92.074">  7  8 -1 -1</clus>
<clus scale="   97.316">  2  5  1 -1</clus>
<clus scale="   23.514">  2  5  1 -1</clus>
</clustering>
</event>
<event>
 9    2  0.9254368E-005  0.1848942E+03  0.7546771E-02  0.1182116E+00
          2   -1    0    0  502    0 -0.00000000000E+00  0.00000000000E+00  0.17925140993E+03  0.17925140993E+03  0.00000000000E+00 0. -1.
         21   -1    0    0  501  502  0.00000000000E+00 -0.00000000000E+00 -0.50835367943E+03  0.50835367943E+03  0.00000000000E+00 0.  1.
         24    2    1    2    0    0  0.25153473998E+02 -0.85870628816E+02 -0.25957662296E+03  0.28599187792E+03  0.80030424837E+02 0.  0.
         23    2    1    2    0    0 -0.15078351634E+03 -0.29537964086E+02  0.59739037973E+02  0.18757721093E+03  0.89489090296E+02 0.  0.
        -13    1    3    3    0    0  0.27621960401E+02 -0.85558494341E+02 -0.13995836968E+03  0.16634774989E+03  0.00000000000E+00 0.  1.
         14    1    3    3    0    0 -0.24684864033E+01 -0.31213447480E+00 -0.11961825329E+03  0.11964412803E+03  0.00000000000E+00 0. -1.
        -13    1    4    4    0    0 -0.40100722944E+01  0.21545285353E+02  0.29286664039E+01  0.22110112792E+02  0.00000000000E+00 0.  1.
         13    1    4    4    0    0 -0.14677344404E+03 -0.51083249439E+02  0.56810371569E+02  0.16546709814E+03  0.00000000000E+00 0. -1.
          1    1    1    2  501    0  0.12563004234E+03  0.11540859290E+03 -0.12926468450E+03  0.21403600051E+03  0.00000000000E+00 0. -1.
<scales pt_clust_5="13000.00000" pt_clust_6="13000.00000" pt_clust_7="13000.00000" pt_clust_8="13000.00000" pt_clust_9="161.79480"></scales>
<clustering>
<clus scale="   80.030">  5  6 -1 -1</clus>
<clus scale="   89.489">  7  8 -1 -1</clus>
<clus scale="  120.047">  1  5  2 -1</clus>
<clus scale="  161.795">  2  9  1 -1</clus>
<clus scale="  161.795">  2  5  1 -1</clus>
</clustering>
</event>
<event>
 9    2  0.9254368E-005  0.9612055E+02  0.7546771E-02  0.1293757E+00
         21   -1    0    0  501  502  0.00000000000E+00  0.00000000000E+00  0.76471925898E+02  0.76471925898E+02  0.00000000000E+00 0.  1.
         -1   -1    0    0    0  501 -0.00000000000E+00 -0.00000000000E+00 -0.27551183809E+03  0.27551183809E+03  0.00000000000E+00 0.  1.
         23    2    1    2    0    0  0.16859304928E+02 -0.15917220387E+02 -0.17693357967E+03  0.20015702275E+03  0.90662826311E+02 0.  0.
         24    2    1    2    0    0 -0.40173601031E+02  0.36862181519E+02 -0.49913574474E+02  0.10992816722E+03  0.81363987029E+02 0.  0.
        -11    1    4    4    0    0  0.31940039531E+01  0.51886489383E+02 -0.24556628791E+02  0.57492933995E+02  0.00000000000E+00 0.  1.
         12    1    4    4    0    0 -0.43367604984E+02 -0.15024307865E+02 -0.25356945683E+02  0.52435233224E+02  0.00000000000E+00 0. -1.
        -11    1    3    3    0    0 -0.37532699846E+02 -0.50372113577E+01 -0.78935159365E+02  0.87549051622E+02  0.00000000000E+00 0. -1.
         11    1    3    3    0    0  0.54392004774E+02 -0.10880009029E+02 -0.97998420301E+02  0.11260797113E+03  0.00000000000E+00 0.  1.
         -2    1    1    2    0  502  0.23314296103E+02 -0.20944961132E+02  0.27807241951E+02  0.41898574015E+02  0.00000000000E+00 0.  1.
<scales pt_clust_5="13000.00000" pt_clust_6="13000.00000" pt_clust_7="13000.00000" pt_clust_8="13000.00000" pt_clust_9="31.34083"></scales>
<clustering>
<clus scale="   31.341">  1  9  2 -1</clus>
<clus scale="   81.364">  5  6 -1 -1</clus>
<clus scale="   87.404">  1  5  2 -1</clus>
<clus scale="   90.663">  7  8 -1 -1</clus>
<clus scale="   31.341">  1  5  2 -1</clus>
</clustering>
</event>
<event>
 9    2  0.9254368E-005  0.9105941E+02  0.7546771E-02  0.1300712E+00
         21   -1    0    0  501  502  0.00000000000E+00  0.00000000000E+00  0.30465503368E+02  0.30465503368E+02  0.00000000000E+00 0.  1.
          2   -1    0    0  502    0 -0.00000000000E+00 -0.00000000000E+00 -0.72041567655E+03  0.72041567655E+03  0.00000000000E+00 0. -1.
         24    2    1    2    0    0  0.41147500482E+01 -0.11961246629E+02 -0.35511616695E+03  0.36658253836E+03  0.90084753487E+02 0.  0.
         23    2    1    2    0    0  0.44396089186E+02 -0.38979191536E+02 -0.13896927949E+03  0.17618516063E+03  0.90765412334E+02 0.  0.
        -11    1    3    3    0    0 -0.31292827002E+02 -0.34863792295E+02 -0.14878177879E+03  0.15598314888E+03  0.00000000000E+00 0.  1.
         12    1    3    3    0    0  0.35407577050E+02  0.22902545666E+02 -0.20633438816E+03  0.21059938948E+03  0.00000000000E+00 0. -1.
        -11    1    4    4    0    0  0.37220185337E+02 -0.68471185019E+02 -0.98768318289E+02  0.12581266261E+03  0.00000000000E+00 0.  1.
         11    1    4    4    0    0  0.71759038491E+01  0.29491993482E+02 -0.40200961202E+02  0.50372498024E+02  0.00000000000E+00 0. -1.
          1    1    1    2  501    0 -0.48510839234E+02  0.50940438165E+02 -0.19586472674E+03  0.20811348093E+03  0.00000000000E+00 0. -1.
<scales pt_clust_5="13000.00000" pt_clust_6="13000.00000" pt_clust_7="13000.00000" pt_clust_8="13000.00000" pt_clust_9="70.34369"></scales>
<clustering>
<clus scale="   70.344">  1  9  2 -1</clus>
<clus scale="   90.085">  5  6 -1 -1</clus>
<clus scale="   90.381">  2  5  1 -1</clus>
<clus scale="   90.765">  7  8 -1 -1</clus>
<clus scale="   70.344">  1  5  2 -1</clus>
</clustering>
</event>
<event>
 9    2  0.9254368E-005  0.1016007E+03  0.7546771E-02  0.1282587E+00
         21   -1    0    0  501  502  0.00000000000E+00  0.00000000000E+00  0.61665174144E+02  0.61665174144E+02  0.00000000000E+00 0. -1.
         -1   -1    0    0    0  501 -0.00000000000E+00 -0.00000000000E+00 -0.37165376448E+03  0.37165376448E+03  0.00000000000E+00 0.  1.
         24    2    1    2    0    0  0.12236575934E+02  0.52397289247E+02 -0.14900283431E+03  0.17769582027E+03  0.80490683921E+02 0.  0.
         23    2    1    2    0    0 -0.61182150404E+02  0.10365395118E+02 -0.57288090187E+02  0.12490192761E+03  0.92021026399E+02 0.  0.
        -13    1    3    3    0    0  0.37998721687E+02 -0.29693651074E+00 -0.53574395480E+02  0.65682622300E+02  0.00000000000E+00 0.  1.
         14    1    3    3    0    0 -0.25762145753E+02  0.52694225758E+02 -0.95428438833E+02  0.11201319797E+03  0.00000000000E+00 0. -1.
        -13    1    4    4    0    0 -0.50124817475E+02 -0.37029401278E+02 -0.31764046729E+02  0.69947326972E+02  0.00000000000E+00 0. -1.
         13    1    4    4    0    0 -0.11057332929E+02  0.47394796396E+02 -0.25524043458E+02  0.54954600639E+02  0.00000000000E+00 0.  1.
         -2    1    1    2    0  502  0.48945574470E+02 -0.62762684365E+02 -0.10369766584E+03  0.13072119074E+03  0.00000000000E+00 0.  1.
<scales pt_clust_5="13000.00000" pt_clust_6="13000.00000" pt_clust_7="13000.00000" pt_clust_8="13000.00000" pt_clust_9="79.59165"></scales>
<clustering>
<clus scale="   79.592">  1  9  2 -1</clus>
<clus scale="   80.491">  5  6 -1 -1</clus>
<clus scale="   91.288">  2  5  1 -1</clus>
<clus scale="   92.021">  7  8 -1 -1</clus>
<clus scale="   79.592">  1  5  2 -1</clus>
</clustering>
</event>
<event>
 9    2  0.9254368E-005  0.1200675E+03  0.7546771E-02  0.1259182E+00
          2   -1    0    0  502    0 -0.00000000000E+00  0.00000000000E+00  0.24258533279E+03  0.24258533279E+03  0.00000000000E+00 0. -1.
         21   -1    0    0  501  502  0.00000000000E+00 -0.00000000000E+00 -0.15673620451E+03  0.15673620451E+03  0.00000000000E+00 0. -1.
         24    2    1    2    0    0  0.25997609155E+02 -0.19385028696E+02  0.15872487803E+03  0.18096839081E+03  0.80649343128E+02 0.  0.
         23    2    1    2    0    0  0.24052609032E+02 -0.58821097483E+02 -0.52449494180E+02  0.12328236007E+03  0.91701370521E+02 0.  0.
        -13    1    3    3    0    0 -0.28566302453E+02 -0.52665747791E+01  0.70836155353E+02  0.76560638391E+02  0.00000000000E+00 0.  1.
         14    1    3    3    0    0  0.54563911608E+02 -0.14118453917E+02  0.87888722681E+02  0.10440775242E+03  0.00000000000E+00 0. -1.
        -11    1    4    4    0    0  0.47092109421E+02 -0.68576044847E+02 -0.26672915914E+02  0.87360088942E+02  0.00000000000E+00 0. -1.
         11    1    4    4    0    0 -0.23039500388E+02  0.97549473649E+01 -0.25776578265E+02  0.35922271132E+02  0.00000000000E+00 0.  1.
          1    1    1    2  501    0 -0.50050218187E+02  0.78206126179E+02 -0.20426255581E+02  0.95070786415E+02  0.00000000000E+00 0. -1.
<scales pt_clust_5="13000.00000" pt_clust_6="13000.00000" pt_clust_7="13000.00000" pt_clust_8="13000.00000" pt_clust_9="77.50530"></scales>
<clustering>
<clus scale="   80.649">  5  6 -1 -1</clus>
<clus scale="   86.925">  1  5  2 -1</clus>
<clus scale="   77.505">  2  9  1 -1</clus>
<clus scale="   91.701">  7  8 -1 -1</clus>
<clus scale="   77.505">  2  5  1 -1</clus>
</clustering>
</event>
<event>
 9    2  0.9254368E-005  0.1038583E+03  0.7546771E-02  0.1277413E+00
          2   -1    0    0  502    0 -0.00000000000E+00  0.00000000000E+00  0.32197942032E+03  0.32197942032E+03  0.00000000000E+00 0. -1.
         21   -1    0    0  501  502  0.00000000000E+00 -0.00000000000E+00 -0.21551751809E+03  0.21551751809E+03  0.00000000000E+00 0.  1.
         23    2    1    2    0    0 -0.48837973166E+02  0.13668292801E+02  0.22665013987E+03  0.24961012678E+03  0.91449218906E+02 0.  0.
         24    2    1    2    0    0  0.26057421174E+02  0.72196185197E+01 -0.19188452310E+03  0.20981238729E+03  0.80439141986E+02 0.  0.
        -11    1    4    4    0    0  0.31933189975E+02  0.30880473795E+02 -0.17398774563E+03  0.17956911737E+03  0.00000000000E+00 0.  1.
         12    1    4    4    0    0 -0.58757688018E+01 -0.23660855276E+02 -0.17896777472E+02  0.30243269917E+02  0.00000000000E+00 0. -1.
        -11    1    3    3    0    0 -0.68959243702E+02 -0.12470010838E+02  0.17267933152E+03  0.18635726440E+03  0.00000000000E+00 0. -1.
         11    1    3    3    0    0  0.20121270536E+02  0.26138303639E+02  0.53970808352E+02  0.63252862380E+02  0.00000000000E+00 0.  1.
          1    1    1    2  501    0  0.22780551992E+02 -0.20887911321E+02  0.71696285460E+02  0.78074424347E+02  0.00000000000E+00 0. -1.
<scales pt_clust_5="13000.00000" pt_clust_6="13000.00000" pt_clust_7="13000.00000" pt_clust_8="13000.00000" pt_clust_9="30.90727"></scales>
<clustering>
<clus scale="   30.907">  2  9  1 -1</clus>
<clus scale="   80.439">  5  6 -1 -1</clus>
<clus scale="   91.449">  7  8 -1 -1</clus>
<clus scale="   94.308">  2  5  1 -1</clus>
<clus scale="   30.907">  2  5  1 -1</clus>
</clustering>
</event>
<event>
 9    2  0.9254368E-005  0.9249297E+02  0.7546771E-02  0.1303564E+00
         -3   -1    0    0    0  501 -0.00000000000E+00  0.00000000000E+00  0.54546806688E+02  0.54546806688E+02  0.00000000000E+00 0.  1.
         21   -1    0    0  501  502  0.00000000000E+00 -0.00000000000E+00 -0.27139102357E+03  0.27139102357E+03  0.00000000000E+00 0.  1.
         23    2    1    2    0    0  0.46829501658E+01 -0.52848523028E+01 -0.20191421607E+02  0.93922710288E+02  0.91454482204E+02 0.  0.
         24    2    1    2    0    0 -0.26647805108E+02  0.91044149979E+01 -0.94243701466E+02  0.12720736068E+03  0.80664995238E+02 0.  0.
        -13    1    4    4    0    0 -0.52109249765E+02  0.22365450782E+02 -0.61102786045E+02  0.83361488484E+02  0.00000000000E+00 0.  1.
         14    1    4    4    0    0  0.25461444658E+02 -0.13261035784E+02 -0.33140915420E+02  0.43845872200E+02  0.00000000000E+00 0. -1.
        -11    1    3    3    0    0  0.18149406937E+02  0.21811797196E+02  0.26143492832E+02  0.38582867786E+02  0.00000000000E+00 0.  1.
         11    1    3    3    0    0 -0.13466456771E+02 -0.27096649499E+02 -0.46334914439E+02  0.55339842502E+02  0.00000000000E+00 0. -1.
         -4    1    1    2    0  502  0.21964854942E+02 -0.38195626951E+01 -0.10240909381E+03  0.10480775928E+03  0.00000000000E+00 0.  1.
<scales pt_clust_5="13000.00000" pt_clust_6="13000.00000" pt_clust_7="13000.00000" pt_clust_8="13000.00000" pt_clust_9="22.29448"></scales>
<clustering>
<clus scale="   22.294">  2  9  1 -1</clus>
<clus scale="   80.665">  5  6 -1 -1</clus>
<clus scale="   81.841">  2  5  1 -1</clus>
<clus scale="   91.454">  7  8 -1 -1</clus>
<clus scale="   22.294">  2  5  1 -1</clus>
</clustering>
</event>
<event>
 9    2  0.9254368E-005  0.9462568E+02  0.7546771E-02  0.1297435E+00
         21   -1    0    0  501  502  0.00000000000E+00  0.00000000000E+00  0.22158737118E+03  0.22158737118E+03  0.00000000000E+00 0. -1.
         -1   -1    0    0    0  501 -0.00000000000E+00 -0.00000000000E+00 -0.33624377478E+03  0.33624377478E+03  0.00000000000E+00 0.  1.
         24    2    1    2    0    0 -0.28445256385E+02  0.20321499838E+01 -0.30627065925E+03  0.31790740764E+03  0.80312769050E+02 0.  0.
         23    2    1    2    0    0  0.60839507884E+02 -0.40525740606E+01  0.16685572199E+03  0.19910150623E+03  0.89903886154E+02 0.  0.
        -13    1    3    3    0    0 -0.15956562416E+02 -0.37093281125E+02 -0.10516363853E+03  0.11264951956E+03  0.00000000000E+00 0.  1.
         14    1    3    3    0    0 -0.12488693970E+02  0.39125431109E+02 -0.20110702072E+03  0.20525788808E+03  0.00000000000E+00 0. -1.
        -11    1    4    4    0    0  0.21124451563E+02  0.41850847486E+02  0.59214484387E+02  0.75525433136E+02  0.00000000000E+00 0.  1.
         11    1    4    4    0    0  0.39715056321E+02 -0.45903421547E+02  0.10764123761E+03  0.12357607310E+03  0.00000000000E+00 0. -1.
         -2    1    1    2    0  502 -0.32394251499E+02  0.20204240769E+01  0.24758533657E+02  0.40822232085E+02  0.00000000000E+00 0.  1.
<scales pt_clust_5="13000.00000" pt_clust_6="13000.00000" pt_clust_7="13000.00000" pt_clust_8="13000.00000" pt_clust_9="32.45720"></scales>
<clustering>
<clus scale="   32.457">  1  9  2 -1</clus>
<clus scale="   80.313">  5  6 -1 -1</clus>
<clus scale="   85.565">  2  5  1 -1</clus>
<clus scale="   89.904">  7  8 -1 -1</clus>
<clus scale="   32.457">  1  5  2 -1</clus>
</clustering>
</event>
<event>
 9    2  0.9254368E-005  0.1467160E+03  0.7546771E-02  0.1206794E+00
         -1   -1    0    0    0  501 -0.00000000000E+00  0.00000000000E+00  0.23822537694E+03  0.23822537694E+03  0.00000000000E+00 0.  1.
         21   -1    0    0  501  502  0.00000000000E+00 -0.00000000000E+00 -0.28456535810E+03  0.28456535810E+03  0.00000000000E+00 0.  1.
         24    2    1    2    0    0 -0.67313493999E+02 -0.10638754673E+03  0.12570472220E+03  0.19505251724E+03  0.79964934352E+02 0.  0.
         23    2    1    2    0    0  0.49669971163E+02  0.82467162156E+02  0.19239370377E+02  0.13415858157E+03  0.91435402160E+02 0.  0.
        -13    1    3    3    0    0 -0.22619216495E+02 -0.10148840559E+03  0.92362095453E+02  0.13907653325E+03  0.00000000000E+00 0.  1.
         14    1    3    3    0    0 -0.44694277505E+02 -0.48991411365E+01  0.33342626748E+02  0.55975983993E+02  0.00000000000E+00 0. -1.
        -11    1    4    4    0    0 -0.10873598850E+02  0.69893908819E+02  0.13952661255E+02  0.72097644886E+02  0.00000000000E+00 0. -1.
         11    1    4    4    0    0  0.60543570013E+02  0.12573253337E+02  0.52867091220E+01  0.62060936689E+02  0.00000000000E+00 0.  1.
         -2    1    1    2    0  502  0.17643522836E+02  0.23920384570E+02 -0.19128407373E+03  0.19357963622E+03  0.00000000000E+00 0.  1.
<scales pt_clust_5="13000.00000" pt_clust_6="13000.00000" pt_clust_7="13000.00000" pt_clust_8="13000.00000" pt_clust_9="29.72337"></scales>
<clustering>
<clus scale="   29.723">  2  9  1 -1</clus>
<clus scale="   79.965">  5  6 -1 -1</clus>
<clus scale="   91.435">  7  8 -1 -1</clus>
<clus scale="  139.855">  1  5  2 -1</clus>
<clus scale="   29.723">  2  5  1 -1</clus>
</clustering>
</event>
<event>
 9    2  0.9254368E-005  0.9984965E+02  0.7546771E-02  0.1290608E+00
          2   -1    0    0  502    0 -0.00000000000E+00  0.00000000000E+00  0.36867804619E+03  0.36867804619E+03  0.00000000000E+00 0. -1.
         21   -1    0    0  501  502  0.00000000000E+00 -0.00000000000E+00 -0.14575407708E+03  0.14575407708E+03  0.00000000000E+00 0. -1.
         24    2    1    2    0    0 -0.13867741588E+02  0.10047724261E+02  0.30175569454E+03  0.31286722232E+03  0.80846327055E+02 0.  0.
         23    2    1    2    0    0 -0.10137568833E+02 -0.49060854441E+02 -0.10196468855E+03  0.15024810801E+03  0.98325777435E+02 0.  0.
        -11    1    3    3    0    0  0.26470610027E+02  0.63482345654E+01  0.42528717307E+02  0.50494406354E+02  0.00000000000E+00 0.  1.
         12    1    3    3    0    0 -0.40338351615E+02  0.36994896953E+01  0.25922697723E+03  0.26237281597E+03  0.00000000000E+00 0. -1.
        -13    1    4    4    0    0  0.31528350461E+02 -0.35723870822E+02 -0.10399698424E+02  0.48768694433E+02  0.00000000000E+00 0.  1.
         13    1    4    4    0    0 -0.41665919294E+02 -0.13336983619E+02 -0.91564990125E+02  0.10147941357E+03  0.00000000000E+00 0. -1.
          1    1    1    2  501    0  0.24005310421E+02  0.39013130180E+02  0.23132963129E+02  0.51316792943E+02  0.00000000000E+00 0. -1.
<scales pt_clust_5="13000.00000" pt_clust_6="13000.00000" pt_clust_7="13000.00000" pt_clust_8="13000.00000" pt_clust_9="45.80700"></scales>
<clustering>
<clus scale="   45.807">  2  9  1 -1</clus>
<clus scale="   80.846">  5  6 -1 -1</clus>
<clus scale="   82.693">  1  5  2 -1</clus>
<clus scale="   98.326">  7  8 -1 -1</clus>
<clus scale="   45.807">  2  5  1 -1</clus>
</clustering>
</event>
<event>
 9    2  0.9254368E-005  0.9384761E+02  0.7546771E-02  0.1298798E+00
          2   -1    0    0  502    0 -0.00000000000E+00  0.00000000000E+00  0.24182058141E+03  0.24182058141E+03  0.00000000000E+00 0. -1.
         21   -1    0    0  501  502  0.00000000000E+00 -0.00000000000E+00 -0.11780395513E+03  0.11780395513E+03  0.00000000000E+00 0. -1.
         23    2    1    2    0    0 -0.89598144761E+01 -0.17922802268E+02  0.13798472209E+03  0.16566622959E+03  0.89465138355E+02 0.  0.
         24    2    1    2    0    0 -0.95673515899E+01  0.47370754965E+02  0.60448724370E+02  0.11181026419E+03  0.80696742553E+02 0.  0.
        -13    1    4    4    0    0  0.73920484108E+01  0.54149097175E+02  0.67208789865E+01  0.55063030419E+02  0.00000000000E+00 0.  1.
         14    1    4    4    0    0 -0.16959400001E+02 -0.67783422101E+01  0.53727845383E+02  0.56747233774E+02  0.00000000000E+00 0. -1.
        -13    1    3    3    0    0 -0.45626535465E+02  0.20054517198E+00  0.45004883017E+02  0.64087911904E+02  0.00000000000E+00 0.  1.
         13    1    3    3    0    0  0.36666720989E+02 -0.18123347440E+02  0.92979839075E+02  0.10157831769E+03  0.00000000000E+00 0. -1.
          1    1    1    2  501    0  0.18527166066E+02 -0.29447952697E+02 -0.74416820182E+02  0.82148042743E+02  0.00000000000E+00 0. -1.
<scales pt_clust_5="13000.00000" pt_clust_6="13000.00000" pt_clust_7="13000.00000" pt_clust_8="13000.00000" pt_clust_9="34.79135"></scales>
<clustering>
<clus scale="   34.791">  2  9  1 -1</clus>
<clus scale="   80.697">  5  6 -1 -1</clus>
<clus scale="   85.530">  2  5  1 -1</clus>
<clus scale="   89.465">  7  8 -1 -1</clus>
<clus scale="   34.791">  2  5  1 -1</clus>
</clustering>
</event>
<event>
 9    2  0.9254368E-005  0.1966390E+03  0.7546771E-02  0.1181165E+00
         21   -1    0    0  501  502  0.00000000000E+00  0.00000000000E+00  0.76260054256E+03  0.76260054256E+03  0.00000000000E+00 0. -1.
          4   -1    0    0  502    0 -0.00000000000E+00 -0.00000000000E+00 -0.89275007655E+02  0.89275007655E+02  0.00000000000E+00 0. -1.
         24    2    1    2    0    0 -0.27926191787E+02  0.53470775682E+02  0.43273301970E+02  0.11075040215E+03  0.82183190944E+02 0.  0.
         23    2    1    2    0    0  0.17606029993E+03 -0.77576700044E+02  0.49689496248E+03  0.54048699551E+03  0.90588161359E+02 0.  0.
        -11    1    3    3    0    0 -0.15097119285E+02  0.73111500947E+02  0.45100993887E+02  0.87219918775E+02  0.00000000000E+00 0.  1.
         12    1    3    3    0    0 -0.12829072502E+02 -0.19640725266E+02 -0.18276919169E+01  0.23530483377E+02  0.00000000000E+00 0. -1.
        -13    1    4    4    0    0  0.66801663138E+02  0.14587252587E+02  0.19023392419E+03  0.20214894521E+03  0.00000000000E+00 0. -1.
         13    1    4    4    0    0  0.10925863679E+03 -0.92163952631E+02  0.30666103829E+03  0.33833805030E+03  0.00000000000E+00 0.  1.
          3    1    1    2  501    0 -0.14813410814E+03  0.24105924362E+02  0.13315727045E+03  0.20063815255E+03  0.00000000000E+00 0. -1.
<scales pt_clust_5="13000.00000" pt_clust_6="13000.00000" pt_clust_7="13000.00000" pt_clust_8="13000.00000" pt_clust_9="174.53001"></scales>
<clustering>
<clus scale="   82.183">  5  6 -1 -1</clus>
<clus scale="   90.588">  7  8 -1 -1</clus>
<clus scale="  101.946">  2  5  1 -1</clus>
<clus scale="  174.530">  1  9  2 -1</clus>
<clus scale="  174.530">  1  5  2 -1</clus>
</clustering>
</event>
<event>
 9    2  0.9254368E-005  0.1441341E+03  0.7546771E-02  0.1233576E+00
          2   -1    0    0  502    0 -0.00000000000E+00  0.00000000000E+00  0.13005440468E+04  0.13005440468E+04  0.00000000000E+00 0. -1.
         21   -1    0    0  501  502  0.00000000000E+00 -0.00000000000E+00 -0.37669589809E+02  0.37669589809E+02  0.00000000000E+00 0. -1.
         24    2    1    2    0    0  0.88322065935E+01  0.24474631287E+02  0.90058361018E+03  0.90449891634E+03  0.79940198089E+02 0.  0.
         23    2    1    2    0    0  0.81485400056E+02  0.96756846496E+01  0.24823024894E+03  0.28427130579E+03  0.11161733517E+03 0.  0.
        -13    1    3    3    0    0 -0.24747885024E+02 -0.21415830680E+01  0.11064954585E+03  0.11340355456E+03  0.00000000000E+00 0.  1.
         14    1    3    3    0    0  0.33580091617E+02  0.26616214355E+02  0.78993406434E+03  0.79109536177E+03  0.00000000000E+00 0. -1.
        -13    1    4    4    0    0 -0.27974340840E+02 -0.37906474533E+01  0.48669490419E+02  0.56264127570E+02  0.00000000000E+00 0.  1.
         13    1    4    4    0    0  0.10945974090E+03  0.13466332103E+02  0.19956075852E+03  0.22800717822E+03  0.00000000000E+00 0. -1.
          1    1    1    2  501    0 -0.90317606650E+02 -0.34150315936E+02  0.11406059789E+03  0.14944341451E+03  0.00000000000E+00 0. -1.
<scales pt_clust_5="13000.00000" pt_clust_6="13000.00000" pt_clust_7="13000.00000" pt_clust_8="13000.00000" pt_clust_9="91.19323"></scales>
<clustering>
<clus scale="   79.940">  5  6 -1 -1</clus>
<clus scale="   84.068">  1  5  2 -1</clus>
<clus scale="   91.193">  2  9  1 -1</clus>
<clus scale="  111.617">  7  8 -1 -1</clus>
<clus scale="   91.193">  2  5  1 -1</clus>
</clustering>
</event>
<event>
 9    2  0.9254368E-005  0.1403918E+03  0.7546771E-02  0.1215776E+00
         21   -1    0    0  501  502  0.00000000000E+00  0.00000000000E+00  0.12432668790E+03  0.12432668790E+03  0.00000000000E+00 0. -1.
          2   -1    0    0  502    0 -0.00000000000E+00 -0.00000000000E+00 -0.63126279428E+03  0.63126279428E+03  0.00000000000E+00 0. -1.
         23    2    1    2    0    0  0.11748748346E+03  0.17785671968E+02 -0.45624628915E+03  0.48015114142E+03  0.90910963837E+02 0.  0.
         24    2    1    2    0    0 -0.85910129334E+02 -0.86547979921E+01 -0.13921009266E+03  0.18101196036E+03  0.77009246492E+02 0.  0.
        -11    1    4    4    0    0 -0.48023766815E+02 -0.41434174949E+02 -0.60138550929E+02  0.87405482326E+02  0.00000000000E+00 0.  1.
         12    1    4    4    0    0 -0.37886362518E+02  0.32779376957E+02 -0.79071541727E+02  0.93606478032E+02  0.00000000000E+00 0. -1.
        -11    1    3    3    0    0  0.97830918357E+02 -0.16935031880E+02 -0.23152966243E+03  0.25191996443E+03  0.00000000000E+00 0. -1.
         11    1    3    3    0    0  0.19656565105E+02  0.34720703849E+02 -0.22471662672E+03  0.22823117700E+03  0.00000000000E+00 0.  1.
          1    1    1    2  501    0 -0.31577354128E+02 -0.91308739764E+01  0.88520275430E+02  0.94426380401E+02  0.00000000000E+00 0. -1.
<scales pt_clust_5="13000.00000" pt_clust_6="13000.00000" pt_clust_7="13000.00000" pt_clust_8="13000.00000" pt_clust_9="32.87099"></scales>
<clustering>
<clus scale="   32.871">  1  9  2 -1</clus>
<clus scale="   77.009">  5  6 -1 -1</clus>
<clus scale="   90.911">  7  8 -1 -1</clus>
<clus scale="  131.816">  1  5  2 -1</clus>
<clus scale="   32.871">  1  5  2 -1</clus>
</clustering>
</event>
<event>
 9    2  0.9254368E-005  0.1147822E+03  0.7546771E-02  0.1255033E+00
         21   -1    0    0  501  502  0.00000000000E+00  0.00000000000E+00  0.12172758664E+03  0.12172758664E+03  0.00000000000E+00 0. -1.
         -3   -1    0    0    0  501 -0.00000000000E+00 -0.00000000000E+00 -0.59793794119E+03  0.59793794119E+03  0.00000000000E+00 0.  1.
         24    2    1    2    0    0  0.69587118837E+02 -0.11381902846E+02 -0.51583655408E+03  0.52671493161E+03  0.79808231632E+02 0.  0.
         23    2    1    2    0    0 -0.11213306216E+03  0.12398128272E+02  0.44036892931E+02  0.15016456784E+03  0.88784076727E+02 0.  0.
        -13    1    3    3    0    0  0.38777661313E+02  0.33862305346E+02 -0.26897783348E+03  0.27386025204E+03  0.00000000000E+00 0.  1.
         14    1    3    3    0    0  0.30809457524E+02 -0.45244208193E+02 -0.24685872060E+03  0.25285467958E+03  0.00000000000E+00 0. -1.
        -11    1    4    4    0    0 -0.33311898718E+02  0.11919137955E+02 -0.26645926353E+02  0.44291690384E+02  0.00000000000E+00 0.  1.
         11    1    4    4    0    0 -0.78821163447E+02  0.47899031614E+00  0.70682819284E+02  0.10587287746E+03  0.00000000000E+00 0. -1.
         -4    1    1    2    0  502  0.42545943328E+02 -0.10162254253E+01 -0.44106933998E+01  0.42786028374E+02  0.00000000000E+00 0.  1.
<scales pt_clust_5="13000.00000" pt_clust_6="13000.00000" pt_clust_7="13000.00000" pt_clust_8="13000.00000" pt_clust_9="42.55808"></scales>
<clustering>
<clus scale="   42.558">  1  9  2 -1</clus>
<clus scale="   79.808">  5  6 -1 -1</clus>
<clus scale="   88.784">  7  8 -1 -1</clus>
<clus scale="  107.989">  2  5  1 -1</clus>
<clus scale="   42.558">  1  5  2 -1</clus>
</clustering>
</event>
<event>
 9    2  0.9254368E-005  0.3093731E+03  0.7546771E-02  0.1081029E+00
         21   -1    0    0  501  502  0.00000000000E+00  0.00000000000E+00  0.70733899632E+02  0.70733899632E+02  0.00000000000E+00 0.  1.
         -1   -1    0    0    0  501 -0.00000000000E+00 -0.00000000000E+00 -0.16704618420E+04  0.16704618420E+04  0.00000000000E+00 0.  1.
         24    2    1    2    0    0 -0.30423749074E+03 -0.27636965393E+02 -0.71993960258E+03  0.78613661124E+03  0.79834125240E+02 0.  0.
         23    2    1    2    0    0  0.27991158797E+03  0.57343954464E+02 -0.58134979905E+03  0.65416077987E+03  0.91213545444E+02 0.  0.
        -13    1    3    3    0    0 -0.48813825730E+02 -0.88891045253E+01 -0.57703903254E+02  0.76102208985E+02  0.00000000000E+00 0.  1.
         14    1    3    3    0    0 -0.25542366501E+03 -0.18747860868E+02 -0.66223569932E+03  0.71003440226E+03  0.00000000000E+00 0. -1.
        -13    1    4    4    0    0  0.23918692637E+03  0.79807929892E+02 -0.46722224389E+03  0.53092025447E+03  0.00000000000E+00 0.  1.
         13    1    4    4    0    0  0.40724661598E+02 -0.22463975428E+02 -0.11412755516E+03  0.12324052540E+03  0.00000000000E+00 0. -1.
         -2    1    1    2    0  502  0.24325902770E+02 -0.29706989071E+02 -0.29843854076E+03  0.30089835054E+03  0.00000000000E+00 0.  1.
<scales pt_clust_5="13000.00000" pt_clust_6="13000.00000" pt_clust_7="13000.00000" pt_clust_8="13000.00000" pt_clust_9="38.39604"></scales>
<clustering>
<clus scale="   38.396">  1  9  2 -1</clus>
<clus scale="   79.834">  5  6 -1 -1</clus>
<clus scale="   91.214">  7  8 -1 -1</clus>
<clus scale="  306.211">  2  5  1 -1</clus>
<clus scale="   38.396">  1  5  2 -1</clus>
</clustering>
</event>
<event>
 9    2  0.9254368E-005  0.3497339E+03  0.7546771E-02  0.1090672E+00
         21   -1    0    0  501  502  0.00000000000E+00  0.00000000000E+00  0.44811348478E+03  0.44811348478E+03  0.00000000000E+00 0.  1.
         -1   -1    0    0    0  501 -0.00000000000E+00 -0.00000000000E+00 -0.47007315221E+03  0.47007315221E+03  0.00000000000E+00 0.  1.
         24    2    1    2    0    0  0.10864073335E+03  0.93420839595E+02 -0.12125858540E+03  0.20390761167E+03  0.79651788123E+02 0.  0.
         23    2    1    2    0    0 -0.18356274643E+03  0.26786969969E+03  0.68641340725E+02  0.34403039417E+03  0.90530771403E+02 0.  0.
        -11    1    3    3    0    0  0.99831434098E+02  0.95199650394E+02 -0.75462993656E+02  0.15723851971E+03  0.00000000000E+00 0.  1.
         12    1    3    3    0    0  0.88092992510E+01 -0.17788107991E+01 -0.45795591748E+02  0.46669091964E+02  0.00000000000E+00 0. -1.
        -11    1    4    4    0    0 -0.88384808829E+02  0.71981409301E+02 -0.50901031581E+01  0.11410130090E+03  0.00000000000E+00 0. -1.
         11    1    4    4    0    0 -0.95177937596E+02  0.19588829039E+03  0.73731443883E+02  0.22992909327E+03  0.00000000000E+00 0.  1.
         -2    1    1    2    0  502  0.74922013077E+02 -0.36129053928E+03  0.30657577251E+02  0.37024863114E+03  0.00000000000E+00 0.  1.
<scales pt_clust_5="13000.00000" pt_clust_6="13000.00000" pt_clust_7="13000.00000" pt_clust_8="13000.00000" pt_clust_9="337.81368"></scales>
<clustering>
<clus scale="   79.652">  5  6 -1 -1</clus>
<clus scale="   90.531">  7  8 -1 -1</clus>
<clus scale="  163.935">  2  5  1 -1</clus>
<clus scale="  337.814">  1  9  2 -1</clus>
<clus scale="  337.814">  1  5  2 -1</clus>
</clustering>
</event>
<event>
 9    2  0.9254368E-005  0.9488518E+02  0.7546771E-02  0.1296279E+00
          4   -1    0    0  502    0 -0.00000000000E+00  0.00000000000E+00  0.22762122664E+03  0.22762122664E+03  0.00000000000E+00 0. -1.
         21   -1    0    0  501  502  0.00000000000E+00 -0.00000000000E+00 -0.66212140957E+02  0.66212140957E+02  0.00000000000E+00 0.  1.
         24    2    1    2    0    0  0.15636706727E+02 -0.16637369580E+02  0.12995881859E+03  0.15565441576E+03  0.82569328150E+02 0.  0.
         23    2    1    2    0    0 -0.26723121294E+01  0.41606319302E+02  0.41279626398E+02  0.10837726930E+03  0.91122982216E+02 0.  0.
        -13    1    3    3    0    0 -0.32202489879E+02  0.56171380285E+01  0.44409901007E+02  0.55143375862E+02  0.00000000000E+00 0.  1.
         14    1    3    3    0    0  0.47839196606E+02 -0.22254507609E+02  0.85548917587E+02  0.10051103990E+03  0.00000000000E+00 0. -1.
        -13    1    4    4    0    0 -0.23272949145E+02 -0.21169971485E+02  0.25377469982E+02  0.40420463100E+02  0.00000000000E+00 0. -1.
         13    1    4    4    0    0  0.20600637015E+02  0.62776290787E+02  0.15902156416E+02  0.67956806202E+02  0.00000000000E+00 0.  1.
          3    1    1    2  501    0 -0.12964394598E+02 -0.24968949722E+02 -0.98293593092E+01  0.29801682535E+02  0.00000000000E+00 0. -1.
<scales pt_clust_5="13000.00000" pt_clust_6="13000.00000" pt_clust_7="13000.00000" pt_clust_8="13000.00000" pt_clust_9="28.13404"></scales>
<clustering>
<clus scale="   28.134">  2  9  1 -1</clus>
<clus scale="   82.569">  5  6 -1 -1</clus>
<clus scale="   86.703">  1  5  2 -1</clus>
<clus scale="   91.123">  7  8 -1 -1</clus>
<clus scale="   28.134">  2  5  1 -1</clus>
</clustering>
</event>
<event>
 9    2  0.9254368E-005  0.1209926E+03  0.7546771E-02  0.1252956E+00
          2   -1    0    0  502    0 -0.00000000000E+00  0.00000000000E+00  0.54934836441E+03  0.54934836441E+03  0.00000000000E+00 0. -1.
         21   -1    0    0  501  502  0.00000000000E+00 -0.00000000000E+00 -0.69023030818E+02  0.69023030818E+02  0.00000000000E+00 0.  1.
         23    2    1    2    0    0  0.56186969544E+02 -0.16824921330E+02  0.47768841502E+03  0.49347231000E+03  0.10903506488E+03 0.  0.
         24    2    1    2    0    0 -0.18148743090E+02  0.71880796854E+00 -0.58364161004E+01  0.82731432221E+02  0.80501755036E+02 0.  0.
        -13    1    4    4    0    0 -0.37458866187E+01  0.28084074388E+02 -0.31628612469E+02  0.42463113728E+02  0.00000000000E+00 0.  1.
         14    1    4    4    0    0 -0.14402856471E+02 -0.27365266419E+02  0.25792196369E+02  0.40268318493E+02  0.00000000000E+00 0. -1.
        -11    1    3    3    0    0  0.64259809972E+02 -0.55062375076E+02  0.33607492018E+03  0.34656534780E+03  0.00000000000E+00 0.  1.
         11    1    3    3    0    0 -0.80728404282E+01  0.38237453745E+02  0.14161349484E+03  0.14690696220E+03  0.00000000000E+00 0. -1.
          1    1    1    2  501    0 -0.38038226454E+02  0.16106113362E+02  0.84733346756E+01  0.42167653005E+02  0.00000000000E+00 0. -1.
<scales pt_clust_5="13000.00000" pt_clust_6="13000.00000" pt_clust_7="13000.00000" pt_clust_8="13000.00000" pt_clust_9="41.30755"></scales>
<clustering>
<clus scale="   41.308">  2  9  1 -1</clus>
<clus scale="   80.502">  5  6 -1 -1</clus>
<clus scale="   96.079">  2  5  1 -1</clus>
<clus scale="  109.035">  7  8 -1 -1</clus>
<clus scale="   41.308">  2  5  1 -1</clus>
</clustering>
</event>
<event>
 9    2  0.1327773E-004  0.9514474E+02  0.7546771E-02  0.1298053E+00
         21   -1    0    0  501  502  0.00000000000E+00  0.00000000000E+00  0.10475089523E+03  0.10475089523E+03  0.00000000000E+00 0. -1.
         -1   -1    0    0    0  501 -0.00000000000E+00 -0.00000000000E+00 -0.23845645407E+03  0.23845645407E+03  0.00000000000E+00 0.  1.
         23    2    1    2    0    0  0.12966890315E+02  0.21000193919E+02 -0.12225843935E+03  0.15420207008E+03  0.90675266955E+02 0.  0.
         24    2    1    2    0    0 -0.42293209115E+02 -0.32618917680E+02  0.59233607888E+02  0.11160506643E+03  0.78066389828E+02 0.  0.
        -13    1    4    4    0    0 -0.27353823450E+02  0.58821728586E+01 -0.11053419851E+02  0.30083379219E+02  0.00000000000E+00 0.  1.
         14    1    4    4    0    0 -0.14939385665E+02 -0.38501090538E+02  0.70287027739E+02  0.81521687207E+02  0.00000000000E+00 0. -1.
        -11    1    3    3    0    0  0.45588394598E+02  0.34923493688E+02 -0.86571091171E+02  0.10388698648E+03  0.00000000000E+00 0.  1.
         11    1    3    3    0    0 -0.32621504283E+02 -0.13923299769E+02 -0.35687348177E+02  0.50315083604E+02  0.00000000000E+00 0. -1.
         -2    1    1    2    0  502  0.29326318800E+02  0.11618723761E+02 -0.70680727381E+02  0.77400212786E+02  0.00000000000E+00 0.  1.
<scales pt_clust_5="13000.00000" pt_clust_6="13000.00000" pt_clust_7="13000.00000" pt_clust_8="13000.00000" pt_clust_9="31.54408"></scales>
<clustering>
<clus scale="   31.544">  1  9  2 -1</clus>
<clus scale="   78.066">  5  6 -1 -1</clus>
<clus scale="   83.216">  1  5  2 -1</clus>
<clus scale="   90.675">  7  8 -1 -1</clus>
<clus scale="   31.544">  1  5  2 -1</clus>
</clustering>
</event>
<event>
 9    2  0.9254368E-005  0.1165584E+03  0.7546771E-02  0.1256076E+00
          2   -1    0    0  502    0 -0.00000000000E+00  0.00000000000E+00  0.30870958897E+03  0.30870958897E+03  0.00000000000E+00 0. -1.
         21   -1    0    0  501  502  0.00000000000E+00 -0.00000000000E+00 -0.10702030359E+03  0.10702030359E+03  0.00000000000E+00 0. -1.
         24    2    1    2    0    0 -0.11855211838E+02 -0.59460913854E+02  0.31322731806E+02  0.10576448656E+03  0.80801403242E+02 0.  0.
         23    2    1    2    0    0  0.30645368307E+02 -0.51503809885E+02  0.51158884185E+01  0.11003036098E+03  0.92134287818E+02 0.  0.
        -11    1    3    3    0    0 -0.24379899920E+02  0.12199336350E+02  0.15345839361E+02  0.31284151150E+02  0.00000000000E+00 0.  1.
         12    1    3    3    0    0  0.12524688082E+02 -0.71660250204E+02  0.15976892445E+02  0.74480335412E+02  0.00000000000E+00 0. -1.
        -11    1    4    4    0    0  0.30354403953E+02 -0.23050468981E+02  0.46301433426E+02  0.59971132196E+02  0.00000000000E+00 0.  1.
         11    1    4    4    0    0  0.29096435345E+00 -0.28453340904E+02 -0.41185545007E+02  0.50059228783E+02  0.00000000000E+00 0. -1.
          1    1    1    2  501    0 -0.18790156469E+02  0.11096472374E+03  0.16525066515E+03  0.19993504502E+03  0.00000000000E+00 0. -1.
<scales pt_clust_5="13000.00000" pt_clust_6="13000.00000" pt_clust_7="13000.00000" pt_clust_8="13000.00000" pt_clust_9="71.39424"></scales>
<clustering>
<clus scale="   80.801">  5  6 -1 -1</clus>
<clus scale="   92.134">  7  8 -1 -1</clus>
<clus scale="  101.020">  1  5  2 -1</clus>
<clus scale="   71.394">  2  9  1 -1</clus>
<clus scale="   71.394">  2  5  1 -1</clus>
</clustering>
</event>
<event>
 9    2  0.9254368E-005  0.1062085E+03  0.7546771E-02  0.1271509E+00
         -1   -1    0    0    0  501 -0.00000000000E+00  0.00000000000E+00  0.55711864771E+03  0.55711864771E+03  0.00000000000E+00 0.  1.
         21   -1    0    0  501  502  0.00000000000E+00 -0.00000000000E+00 -0.74341138488E+02  0.74341138488E+02  0.00000000000E+00 0. -1.
         23    2    1    2    0    0 -0.53125002236E+02 -0.17135319970E+02  0.47860698953E+03  0.49000951009E+03  0.89043722364E+02 0.  0.
         24    2    1    2    0    0  0.74220889093E+02  0.10449796435E+02  0.23420920490E+02  0.11211922434E+03  0.80026510155E+02 0.  0.
        -11    1    4    4    0    0  0.74062311971E+02  0.11604917820E+02  0.47019778814E+02  0.88491580231E+02  0.00000000000E+00 0.  1.
         12    1    4    4    0    0  0.15857712187E+00 -0.11551213846E+01 -0.23598858324E+02  0.23627644113E+02  0.00000000000E+00 0. -1.
        -11    1    3    3    0    0 -0.72793764334E+02 -0.48051473086E+01  0.42998965649E+03  0.43613429842E+03  0.00000000000E+00 0.  1.
         11    1    3    3    0    0  0.19668762098E+02 -0.12330172661E+02  0.48617333040E+02  0.53875211668E+02  0.00000000000E+00 0. -1.
         -2    1    1    2    0  502 -0.21095886857E+02  0.66855235346E+01 -0.19250400796E+02  0.29331051771E+02  0.00000000000E+00 0.  1.
<scales pt_clust_5="13000.00000" pt_clust_6="13000.00000" pt_clust_7="13000.00000" pt_clust_8="13000.00000" pt_clust_9="22.12990"></scales>
<clustering>
<clus scale="   22.130">  2  9  1 -1</clus>
<clus scale="   80.027">  5  6 -1 -1</clus>
<clus scale="   89.044">  7  8 -1 -1</clus>
<clus scale="   98.771">  2  5  1 -1</clus>
<clus scale="   22.130">  2  5  1 -1</clus>
</clustering>
</event>
<event>
 9    2  0.9254368E-005  0.1084445E+03  0.7546771E-02  0.1271857E+00
         21   -1    0    0  501  502  0.00000000000E+00  0.00000000000E+00  0.18114409400E+03  0.18114409400E+03  0.00000000000E+00 0. -1.
          2   -1    0    0  502    0 -0.00000000000E+00 -0.00000000000E+00 -0.20604783899E+03  0.20604783899E+03  0.00000000000E+00 0. -1.
         23    2    1    2    0    0  0.36709449257E+02  0.44579033932E+02 -0.16238681559E+03  0.19584741262E+03  0.93015360145E+02 0.  0.
         24    2    1    2    0    0 -0.16032015753E+02 -0.46645712310E+02  0.50322979948E+02  0.10174145782E+03  0.73389876155E+02 0.  0.
        -11    1    4    4    0    0 -0.32204580043E+02 -0.28043512499E+02 -0.31920210877E+01  0.42822454013E+02  0.00000000000E+00 0.  1.
         12    1    4    4    0    0  0.16172564290E+02 -0.18602199811E+02  0.53515001036E+02  0.58919003805E+02  0.00000000000E+00 0. -1.
        -13    1    3    3    0    0  0.19231865834E+02 -0.17559465244E+02 -0.10903926286E+03  0.11210602271E+03  0.00000000000E+00 0. -1.
         13    1    3    3    0    0  0.17477583423E+02  0.62138499176E+02 -0.53347552729E+02  0.83741389912E+02  0.00000000000E+00 0.  1.
          1    1    1    2  501    0 -0.20677433503E+02  0.20666783782E+01  0.87160090647E+02  0.89603062545E+02  0.00000000000E+00 0. -1.
<scales pt_clust_5="13000.00000" pt_clust_6="13000.00000" pt_clust_7="13000.00000" pt_clust_8="13000.00000" pt_clust_9="20.78046"></scales>
<clustering>
<clus scale="   20.780">  1  9  2 -1</clus>
<clus scale="   73.390">  5  6 -1 -1</clus>
<clus scale="   92.165">  1  5  2 -1</clus>
<clus scale="   93.015">  7  8 -1 -1</clus>
<clus scale="   20.780">  1  5  2 -1</clus>
</clustering>
</event>
<event>
 9    2  0.9254368E-005  0.1876673E+03  0.7546771E-02  0.1186626E+00
         21   -1    0    0  501  502  0.00000000000E+00  0.00000000000E+00  0.47232272213E+03  0.47232272213E+03  0.00000000000E+00 0. -1.
          2   -1    0    0  502    0 -0.00000000000E+00 -0.00000000000E+00 -0.21476182488E+03  0.21476182488E+03  0.00000000000E+00 0. -1.
         23    2    1    2    0    0 -0.16787692312E+02 -0.43486827033E+02 -0.10056419087E+03  0.14453758720E+03  0.92763284173E+02 0.  0.
         24    2    1    2    0    0 -0.21952417600E+02  0.18023351430E+03  0.34743684702E+03  0.40001734501E+03  0.79595761998E+02 0.  0.
        -13    1    4    4    0    0 -0.46852494784E+02  0.63733442039E+02  0.13641333792E+03  0.15768863835E+03  0.00000000000E+00 0.  1.
         14    1    4    4    0    0  0.24900077184E+02  0.11650007226E+03  0.21102350911E+03  0.24232870667E+03  0.00000000000E+00 0. -1.
        -13    1    3    3    0    0 -0.42045402150E+02 -0.50125623147E+02 -0.35516953615E+02  0.74443588924E+02  0.00000000000E+00 0. -1.
         13    1    3    3    0    0  0.25257709838E+02  0.66387961140E+01 -0.65047237258E+02  0.70093998280E+02  0.00000000000E+00 0.  1.
          1    1    1    2  501    0  0.38740109912E+02 -0.13674668727E+03  0.10688241104E+02  0.14252961479E+03  0.00000000000E+00 0. -1.
<scales pt_clust_5="13000.00000" pt_clust_6="13000.00000" pt_clust_7="13000.00000" pt_clust_8="13000.00000" pt_clust_9="169.95168"></scales>
<clustering>
<clus scale="   79.596">  5  6 -1 -1</clus>
<clus scale="   92.763">  7  8 -1 -1</clus>
<clus scale="  103.817">  2  7  1 -1</clus>
<clus scale="  169.952">  1  9  2 -1</clus>
<clus scale="  169.952">  1  5  2 -1</clus>
</clustering>
</event>
<event>
 9    2  0.9254368E-005  0.1941683E+03  0.7546771E-02  0.1187204E+00
         21   -1    0    0  501  502  0.00000000000E+00  0.00000000000E+00  0.18711724982E+03  0.18711724982E+03  0.00000000000E+00 0.  1.
         -1   -1    0    0    0  501 -0.00000000000E+00 -0.00000000000E+00 -0.44320287125E+03  0.44320287125E+03  0.00000000000E+00 0.  1.
         23    2    1    2    0    0  0.21460554990E+01 -0.11734472341E+02 -0.16264008037E+03  0.18712318523E+03  0.91765937640E+02 0.  0.
         24    2    1    2    0    0 -0.43510784505E+02 -0.16226680283E+03 -0.16644913348E+03  0.25002082688E+03  0.81125804596E+02 0.  0.
        -13    1    4    4    0    0 -0.67154346158E+02 -0.12935116247E+03 -0.13583869466E+03  0.19923247829E+03  0.00000000000E+00 0.  1.
         14    1    4    4    0    0  0.23643561652E+02 -0.32915640363E+02 -0.30610438819E+02  0.50788348593E+02  0.00000000000E+00 0. -1.
        -11    1    3    3    0    0  0.41811459396E+02 -0.62285134232E+01 -0.12578850074E+03  0.13270169342E+03  0.00000000000E+00 0. -1.
         11    1    3    3    0    0 -0.39665403897E+02 -0.55059589176E+01 -0.36851579630E+02  0.54421491813E+02  0.00000000000E+00 0.  1.
         -2    1    1    2    0  502  0.41364729006E+02  0.17400127517E+03  0.73003592422E+02  0.19317610896E+03  0.00000000000E+00 0.  1.
<scales pt_clust_5="13000.00000" pt_clust_6="13000.00000" pt_clust_7="13000.00000" pt_clust_8="13000.00000" pt_clust_9="176.40838"></scales>
<clustering>
<clus scale="   81.126">  5  6 -1 -1</clus>
<clus scale="   91.766">  7  8 -1 -1</clus>
<clus scale="   92.538">  2  7  1 -1</clus>
<clus scale="  176.408">  1  9  2 -1</clus>
<clus scale="  176.408">  1  5  2 -1</clus>
</clustering>
</event>
<event>
 9    2  0.9254368E-005  0.1078606E+03  0.7546771E-02  0.1269093E+00
          2   -1    0    0  502    0 -0.00000000000E+00  0.00000000000E+00  0.48412945129E+03  0.48412945129E+03  0.00000000000E+00 0. -1.
         21   -1    0    0  501  502  0.00000000000E+00 -0.00000000000E+00 -0.10861179136E+03  0.10861179136E+03  0.00000000000E+00 0. -1.
         24    2    1    2    0    0  0.45792770492E+02  0.48574230927E+02  0.31020562468E+03  0.32707714237E+03  0.79344147484E+02 0.  0.
         23    2    1    2    0    0 -0.68089422636E+02  0.28548607595E+02  0.12088879842E+03  0.16802266685E+03  0.90367707293E+02 0.  0.
        -11    1    3    3    0    0  0.28184127299E+02 -0.18753148008E+02  0.91191044314E+02  0.97271949476E+02  0.00000000000E+00 0.  1.
         12    1    3    3    0    0  0.17608643194E+02  0.67327378934E+02  0.21901458036E+03  0.22980519289E+03  0.00000000000E+00 0. -1.
        -11    1    4    4    0    0 -0.54187936172E+02  0.43089426012E+00  0.12514025522E+03  0.13636935717E+03  0.00000000000E+00 0. -1.
         11    1    4    4    0    0 -0.13901486464E+02  0.28117713335E+02 -0.42514568019E+01  0.31653309685E+02  0.00000000000E+00 0.  1.
          1    1    1    2  501    0  0.22296652144E+02 -0.77122838521E+02 -0.55576763167E+02  0.97641433431E+02  0.00000000000E+00 0. -1.
<scales pt_clust_5="13000.00000" pt_clust_6="13000.00000" pt_clust_7="13000.00000" pt_clust_8="13000.00000" pt_clust_9="80.28121"></scales>
<clustering>
<clus scale="   79.344">  5  6 -1 -1</clus>
<clus scale="   80.281">  2  9  1 -1</clus>
<clus scale="   90.368">  7  8 -1 -1</clus>
<clus scale="   98.808">  1  5  2 -1</clus>
<clus scale="   80.281">  2  5  1 -1</clus>
</clustering>
</event>
<event>
 9    2  0.9254368E-005  0.9604954E+02  0.7546771E-02  0.1294875E+00
          2   -1    0    0  502    0 -0.00000000000E+00  0.00000000000E+00  0.72447909459E+03  0.72447909459E+03  0.00000000000E+00 0. -1.
         21   -1    0    0  501  502  0.00000000000E+00 -0.00000000000E+00 -0.55790533202E+02  0.55790533202E+02  0.00000000000E+00 0.  1.
         24    2    1    2    0    0 -0.29140605723E+02  0.17156450825E+02  0.58422120456E+03  0.59064147404E+03  0.79996351690E+02 0.  0.
         23    2    1    2    0    0  0.24601900558E+02  0.46985600024E+02  0.47653304782E+02  0.11553310021E+03  0.90907423609E+02 0.  0.
        -11    1    3    3    0    0 -0.40269694606E+02  0.39169436210E+02  0.29020140748E+03  0.29558881904E+03  0.00000000000E+00 0.  1.
         12    1    3    3    0    0  0.11129088883E+02 -0.22012985386E+02  0.29401979708E+03  0.29505265500E+03  0.00000000000E+00 0. -1.
        -13    1    4    4    0    0  0.16539727874E+02 -0.13490818554E+02  0.50116172990E+02  0.54471970577E+02  0.00000000000E+00 0. -1.
         13    1    4    4    0    0  0.80621726833E+01  0.60476418578E+02 -0.24628682077E+01  0.61061129634E+02  0.00000000000E+00 0.  1.
          1    1    1    2  501    0  0.45387051651E+01 -0.64142050849E+02  0.36814052038E+02  0.74095053540E+02  0.00000000000E+00 0. -1.
<scales pt_clust_5="13000.00000" pt_clust_6="13000.00000" pt_clust_7="13000.00000" pt_clust_8="13000.00000" pt_clust_9="64.30243"></scales>
<clustering>
<clus scale="   64.302">  2  9  1 -1</clus>
<clus scale="   79.996">  5  6 -1 -1</clus>
<clus scale="   85.795">  1  5  2 -1</clus>
<clus scale="   90.907">  7  8 -1 -1</clus>
<clus scale="   64.302">  2  5  1 -1</clus>
</clustering>
</event>
<event>
 9    2  0.9254368E-005  0.1058202E+03  0.7546771E-02  0.1269032E+00
         21   -1    0    0  501  502  0.00000000000E+00  0.00000000000E+00  0.26675628253E+03  0.26675628253E+03  0.00000000000E+00 0. -1.
         -1   -1    0    0    0  501 -0.00000000000E+00 -0.00000000000E+00 -0.24714448056E+03  0.24714448056E+03  0.00000000000E+00 0.  1.
         24    2    1    2    0    0  0.56721717682E+02 -0.29580171822E+02 -0.19994809391E+03  0.22500064811E+03  0.80954997198E+02 0.  0.
         23    2    1    2    0    0 -0.84107049846E+02  0.30436246893E+02  0.77371629936E+02  0.14409613627E+03  0.82322332386E+02 0.  0.
        -11    1    3    3    0    0  0.26146108768E+02 -0.51658654571E+02 -0.15956979052E+03  0.16974909026E+03  0.00000000000E+00 0.  1.
         12    1    3    3    0    0  0.30575608914E+02  0.22078482749E+02 -0.40378303383E+02  0.55251557852E+02  0.00000000000E+00 0. -1.
        -11    1    4    4    0    0 -0.87679290065E+02  0.79025543881E+01  0.82568579586E+02  0.12069663876E+03  0.00000000000E+00 0. -1.
         11    1    4    4    0    0  0.35722402190E+01  0.22533692505E+02 -0.51969496500E+01  0.23399497511E+02  0.00000000000E+00 0.  1.
         -2    1    1    2    0  502  0.27385332165E+02 -0.85607507188E+00  0.14218826594E+03  0.14480397872E+03  0.00000000000E+00 0.  1.
<scales pt_clust_5="13000.00000" pt_clust_6="13000.00000" pt_clust_7="13000.00000" pt_clust_8="13000.00000" pt_clust_9="27.39871"></scales>
<clustering>
<clus scale="   27.399">  1  9  2 -1</clus>
<clus scale="   80.955">  5  6 -1 -1</clus>
<clus scale="   82.322">  7  8 -1 -1</clus>
<clus scale="  104.760">  2  5  1 -1</clus>
<clus scale="   27.399">  1  5  2 -1</clus>
</clustering>
</event>
<event>
 9    2  0.9254368E-005  0.2764643E+03  0.7546771E-02  0.1098036E+00
         21   -1    0    0  501  502  0.00000000000E+00  0.00000000000E+00  0.64550412362E+03  0.64550412362E+03  0.00000000000E+00 0.  1.
          2   -1    0    0  502    0 -0.00000000000E+00 -0.00000000000E+00 -0.14580767639E+03  0.14580767639E+03  0.00000000000E+00 0. -1.
         23    2    1    2    0    0  0.34331179413E+02 -0.27515524313E+03  0.12824679037E+03  0.31847190335E+03  0.89933732732E+02 0.  0.
         24    2    1    2    0    0 -0.18653919502E+02  0.23572256704E+03  0.30970910819E+03  0.39792255706E+03  0.80681673236E+02 0.  0.
        -11    1    4    4    0    0 -0.29111736059E+02  0.12677010791E+03  0.22350988610E+03  0.25860166786E+03  0.00000000000E+00 0.  1.
         12    1    4    4    0    0  0.10457816557E+02  0.10895245914E+03  0.86199222089E+02  0.13932088920E+03  0.00000000000E+00 0. -1.
        -13    1    3    3    0    0  0.26519267932E+02 -0.34722774170E+02 -0.41454471090E+01  0.43887667396E+02  0.00000000000E+00 0. -1.
         13    1    3    3    0    0  0.78119114806E+01 -0.24043246896E+03  0.13239223748E+03  0.27458423596E+03  0.00000000000E+00 0.  1.
          1    1    1    2  501    0 -0.15677259910E+02  0.39432676086E+02  0.61740548673E+02  0.74917339595E+02  0.00000000000E+00 0. -1.
<scales pt_clust_5="13000.00000" pt_clust_6="13000.00000" pt_clust_7="13000.00000" pt_clust_8="13000.00000" pt_clust_9="42.43480"></scales>
<clustering>
<clus scale="   42.435">  1  9  2 -1</clus>
<clus scale="   80.682">  5  6 -1 -1</clus>
<clus scale="   89.934">  7  8 -1 -1</clus>
<clus scale="  273.595">  1  5  2 -1</clus>
<clus scale="   42.435">  1  5  2 -1</clus>
</clustering>
</event>
<event>
 9    2  0.9254368E-005  0.1740981E+03  0.7546771E-02  0.1174828E+00
         21   -1    0    0  501  502  0.00000000000E+00  0.00000000000E+00  0.21294807748E+03  0.21294807748E+03  0.00000000000E+00 0.  1.
         -1   -1    0    0    0  501 -0.00000000000E+00 -0.00000000000E+00 -0.18485558148E+03  0.18485558148E+03  0.00000000000E+00 0.  1.
         23    2    1    2    0    0 -0.13126050083E+03 -0.68652573986E+02 -0.51957747289E+02  0.18120092884E+03  0.90507867698E+02 0.  0.
         24    2    1    2    0    0  0.14184656911E+03  0.50769361330E+02  0.46898855409E+02  0.17747615789E+03  0.81242272024E+02 0.  0.
        -11    1    4    4    0    0  0.96725969425E+02 -0.65163106402E+01  0.37527168032E+02  0.10395510476E+03  0.00000000000E+00 0.  1.
         12    1    4    4    0    0  0.45120599680E+02  0.57285671971E+02  0.93716873765E+01  0.73521053127E+02  0.00000000000E+00 0. -1.
        -11    1    3    3    0    0 -0.73858540759E+02 -0.70805927107E+02 -0.66396714240E+02  0.12197166482E+03  0.00000000000E+00 0.  1.
         11    1    3    3    0    0 -0.57401960075E+02  0.21533531209E+01  0.14438966950E+02  0.59229264023E+02  0.00000000000E+00 0. -1.
         -2    1    1    2    0  502 -0.10586068271E+02  0.17883212656E+02  0.33151387881E+02  0.39126572234E+02  0.00000000000E+00 0.  1.
<scales pt_clust_5="13000.00000" pt_clust_6="13000.00000" pt_clust_7="13000.00000" pt_clust_8="13000.00000" pt_clust_9="20.78158"></scales>
<clustering>
<clus scale="   20.782">  1  9  2 -1</clus>
<clus scale="   81.242">  5  6 -1 -1</clus>
<clus scale="   90.508">  7  8 -1 -1</clus>
<clus scale="  169.466">  1  5  2 -1</clus>
<clus scale="   20.782">  1  5  2 -1</clus>
</clustering>
</event>
<event>
 9    2  0.9254368E-005  0.9808035E+02  0.7546771E-02  0.1290749E+00
         21   -1    0    0  501  502  0.00000000000E+00  0.00000000000E+00  0.71893563367E+02  0.71893563367E+02  0.00000000000E+00 0.  1.
          2   -1    0    0  502    0 -0.00000000000E+00 -0.00000000000E+00 -0.25342017442E+03  0.25342017442E+03  0.00000000000E+00 0. -1.
         24    2    1    2    0    0  0.44884337402E+02 -0.18871534805E+01 -0.87170511463E+02  0.12727968313E+03  0.81137257636E+02 0.  0.
         23    2    1    2    0    0  0.34064954791E+01  0.29343619150E+02 -0.11333946624E+02  0.98141412632E+02  0.92901164315E+02 0.  0.
        -13    1    3    3    0    0  0.12341386766E+02 -0.35219301480E+02 -0.12664822625E+02  0.39409475462E+02  0.00000000000E+00 0.  1.
         14    1    3    3    0    0  0.32542950637E+02  0.33332148000E+02 -0.74505688838E+02  0.87870207668E+02  0.00000000000E+00 0. -1.
        -13    1    4    4    0    0 -0.30063840128E+02  0.10170567477E+02 -0.39286972335E+02  0.50504862353E+02  0.00000000000E+00 0. -1.
         13    1    4    4    0    0  0.33470335607E+02  0.19173051673E+02  0.27953025711E+02  0.47636550279E+02  0.00000000000E+00 0.  1.
          1    1    1    2  501    0 -0.48290832881E+02 -0.27456465670E+02 -0.83022152965E+02  0.99892642023E+02  0.00000000000E+00 0. -1.
<scales pt_clust_5="13000.00000" pt_clust_6="13000.00000" pt_clust_7="13000.00000" pt_clust_8="13000.00000" pt_clust_9="55.55056"></scales>
<clustering>
<clus scale="   55.551">  1  9  2 -1</clus>
<clus scale="   81.137">  5  6 -1 -1</clus>
<clus scale="   87.019">  2  5  1 -1</clus>
<clus scale="   92.901">  7  8 -1 -1</clus>
<clus scale="   55.551">  1  5  2 -1</clus>
</clustering>
</event>
<event>
 9    2  0.9254368E-005  0.1673675E+03  0.7546771E-02  0.1210600E+00
          2   -1    0    0  502    0 -0.00000000000E+00  0.00000000000E+00  0.89139145888E+03  0.89139145888E+03  0.00000000000E+00 0. -1.
         21   -1    0    0  501  502  0.00000000000E+00 -0.00000000000E+00 -0.49846100884E+02  0.49846100884E+02  0.00000000000E+00 0.  1.
         24    2    1    2    0    0 -0.14035251559E+02  0.31213228376E+01  0.10566154776E+03  0.13676914315E+03  0.85642891705E+02 0.  0.
         23    2    1    2    0    0  0.14525277349E+03 -0.16889625538E+02  0.26882542845E+03  0.31913231017E+03  0.90524542289E+02 0.  0.
        -11    1    3    3    0    0 -0.82031530425E+00 -0.37231880851E+02  0.22812705001E+02  0.43672707477E+02  0.00000000000E+00 0.  1.
         12    1    3    3    0    0 -0.13214936254E+02  0.40353203688E+02  0.82848842759E+02  0.93096435671E+02  0.00000000000E+00 0. -1.
        -11    1    4    4    0    0  0.53022194133E+02  0.20708515101E+02  0.16811103792E+03  0.17748666637E+03  0.00000000000E+00 0. -1.
         11    1    4    4    0    0  0.92230579358E+02 -0.37598140639E+02  0.10071439053E+03  0.14164564380E+03  0.00000000000E+00 0.  1.
          1    1    1    2  501    0 -0.13121752193E+03  0.13768302700E+02  0.46705838179E+03  0.48533610645E+03  0.00000000000E+00 0. -1.
<scales pt_clust_5="13000.00000" pt_clust_6="13000.00000" pt_clust_7="13000.00000" pt_clust_8="13000.00000" pt_clust_9="140.77356"></scales>
<clustering>
<clus scale="   85.643">  5  6 -1 -1</clus>
<clus scale="   86.841">  1  5  2 -1</clus>
<clus scale="   90.525">  7  8 -1 -1</clus>
<clus scale="  140.774">  2  9  1 -1</clus>
<clus scale="  140.774">  2  5  1 -1</clus>
</clustering>
</event>
<event>
 9    2  0.9254368E-005  0.1087000E+03  0.7546771E-02  0.1267720E+00
         -3   -1    0    0    0  501 -0.00000000000E+00  0.00000000000E+00  0.23375534276E+03  0.23375534276E+03  0.00000000000E+00 0.  1.
         21   -1    0    0  501  502  0.00000000000E+00 -0.00000000000E+00 -0.76711820086E+02  0.76711820086E+02  0.00000000000E+00 0. -1.
         23    2    1    2    0    0 -0.64306311882E+02  0.74465240541E+00  0.15957739878E+03  0.19489696549E+03  0.91564320032E+02 0.  0.
         24    2    1    2    0    0  0.43027200570E+02  0.10490773262E+02 -0.34159060589E+01  0.91490883723E+02  0.79984480229E+02 0.  0.
        -11    1    4    4    0    0  0.32320311865E+02 -0.30228621688E+02  0.13271912035E+02  0.46200820093E+02  0.00000000000E+00 0.  1.
         12    1    4    4    0    0  0.10706888705E+02  0.40719394950E+02 -0.16687818094E+02  0.45290063629E+02  0.00000000000E+00 0. -1.
        -13    1    3    3    0    0 -0.72810648043E+02 -0.23820299851E+02  0.14755383273E+03  0.16625561857E+03  0.00000000000E+00 0.  1.
         13    1    3    3    0    0  0.85043361611E+01  0.24564952256E+02  0.12023566044E+02  0.28641346918E+02  0.00000000000E+00 0. -1.
         -4    1    1    2    0  502  0.21279111311E+02 -0.11235425668E+02  0.88202995859E+00  0.24079313632E+02  0.00000000000E+00 0.  1.
<scales pt_clust_5="13000.00000" pt_clust_6="13000.00000" pt_clust_7="13000.00000" pt_clust_8="13000.00000" pt_clust_9="24.06315"></scales>
<clustering>
<clus scale="   24.063">  2  9  1 -1</clus>
<clus scale="   79.984">  5  6 -1 -1</clus>
<clus scale="   91.564">  7  8 -1 -1</clus>
<clus scale="   99.142">  2  5  1 -1</clus>
<clus scale="   24.063">  2  5  1 -1</clus>
</clustering>
</event>
<event>
 9    2  0.9254368E-005  0.1675547E+03  0.7546771E-02  0.1205418E+00
         -3   -1    0    0    0  501 -0.00000000000E+00  0.00000000000E+00  0.87952243557E+02  0.87952243557E+02  0.00000000000E+00 0.  1.
         21   -1    0    0  501  502  0.00000000000E+00 -0.00000000000E+00 -0.69958380686E+03  0.69958380686E+03  0.00000000000E+00 0.  1.
         23    2    1    2    0    0 -0.27455741781E+02 -0.70154275323E+01  0.27518993992E+01  0.96751537779E+02  0.92467578816E+02 0.  0.
         24    2    1    2    0    0 -0.12998494949E+03  0.22233598486E+02 -0.25913939318E+03  0.30191755219E+03  0.81305370228E+02 0.  0.
        -13    1    4    4    0    0 -0.87383307747E+02  0.45172975467E+02 -0.12338514477E+03  0.15779839712E+03  0.00000000000E+00 0.  1.
         14    1    4    4    0    0 -0.42601641745E+02 -0.22939376981E+02 -0.13575424841E+03  0.14411915507E+03  0.00000000000E+00 0. -1.
        -13    1    3    3    0    0 -0.33744235089E+02  0.31730745253E+02  0.23944719480E+02  0.52142719406E+02  0.00000000000E+00 0.  1.
         13    1    3    3    0    0  0.62884933080E+01 -0.38746172785E+02 -0.21192820081E+02  0.44608818373E+02  0.00000000000E+00 0. -1.
         -4    1    1    2    0  502  0.15744069127E+03 -0.15218170954E+02 -0.35524406952E+03  0.38886696045E+03  0.00000000000E+00 0.  1.
<scales pt_clust_5="13000.00000" pt_clust_6="13000.00000" pt_clust_7="13000.00000" pt_clust_8="13000.00000" pt_clust_9="146.50597"></scales>
<clustering>
<clus scale="   81.305">  5  6 -1 -1</clus>
<clus scale="   92.468">  7  8 -1 -1</clus>
<clus scale="   96.712">  1  7  2 -1</clus>
<clus scale="  146.506">  2  9  1 -1</clus>
<clus scale="  146.506">  2  5  1 -1</clus>
</clustering>
</event>
<event>
 9    2  0.9254368E-005  0.1167451E+03  0.7546771E-02  0.1254366E+00
          2   -1    0    0  502    0 -0.00000000000E+00  0.00000000000E+00  0.55835154072E+03  0.55835154072E+03  0.00000000000E+00 0. -1.
         21   -1    0    0  501  502  0.00000000000E+00 -0.00000000000E+00 -0.88638751026E+02  0.88638751026E+02  0.00000000000E+00 0. -1.
         24    2    1    2    0    0  0.56543388574E+02  0.54604012556E+02  0.36025072981E+03  0.37553869795E+03  0.71203738300E+02 0.  0.
         23    2    1    2    0    0 -0.94363506837E+02  0.15138221289E+02  0.13536674496E+03  0.18799266236E+03  0.88788784734E+02 0.  0.
        -13    1    3    3    0    0  0.12705955910E+02 -0.17528121794E+02  0.72451938880E+02  0.75617192600E+02  0.00000000000E+00 0.  1.
         14    1    3    3    0    0  0.43837432664E+02  0.72132134350E+02  0.28779879093E+03  0.29992150535E+03  0.00000000000E+00 0. -1.
        -13    1    4    4    0    0 -0.35381289265E+02  0.46773266876E+02  0.88941937039E+02  0.10653751587E+03  0.00000000000E+00 0. -1.
         13    1    4    4    0    0 -0.58982217572E+02 -0.31635045587E+02  0.46424807924E+02  0.81455146491E+02  0.00000000000E+00 0.  1.
          1    1    1    2  501    0  0.37820118263E+02 -0.69742233844E+02 -0.25904685080E+02  0.83458931434E+02  0.00000000000E+00 0. -1.
<scales pt_clust_5="13000.00000" pt_clust_6="13000.00000" pt_clust_7="13000.00000" pt_clust_8="13000.00000" pt_clust_9="79.33688"></scales>
<clustering>
<clus scale="   71.204">  5  6 -1 -1</clus>
<clus scale="   79.337">  2  9  1 -1</clus>
<clus scale="   88.789">  7  8 -1 -1</clus>
<clus scale="  104.000">  1  5  2 -1</clus>
<clus scale="   79.337">  2  5  1 -1</clus>
</clustering>
</event>
<event>
 9    2  0.9254368E-005  0.2328159E+03  0.7546771E-02  0.1125525E+00
         -1   -1    0    0    0  501 -0.00000000000E+00  0.00000000000E+00  0.16404944295E+03  0.16404944295E+03  0.00000000000E+00 0.  1.
         21   -1    0    0  501  502  0.00000000000E+00 -0.00000000000E+00 -0.43567120402E+03  0.43567120402E+03  0.00000000000E+00 0.  1.
         24    2    1    2    0    0 -0.92645713004E+02  0.17437563940E+03 -0.13257676934E+03  0.25054833799E+03  0.78789454542E+02 0.  0.
         23    2    1    2    0    0  0.14358840118E+03 -0.18580467970E+03 -0.15322624654E+03  0.29507158414E+03  0.91912725933E+02 0.  0.
        -13    1    3    3    0    0 -0.82113169753E+02  0.13120659005E+03 -0.61143082465E+02  0.16642180882E+03  0.00000000000E+00 0.  1.
         14    1    3    3    0    0 -0.10532543251E+02  0.43169049352E+02 -0.71433686870E+02  0.84126529164E+02  0.00000000000E+00 0. -1.
        -11    1    4    4    0    0  0.74349060744E+02 -0.27410370203E+02 -0.51190814140E+02  0.94337747908E+02  0.00000000000E+00 0. -1.
         11    1    4    4    0    0  0.69239340438E+02 -0.15839430949E+03 -0.10203543240E+03  0.20073383624E+03  0.00000000000E+00 0.  1.
         -2    1    1    2    0  502 -0.50942688178E+02  0.11429040294E+02  0.14181254810E+02  0.54100724846E+02  0.00000000000E+00 0.  1.
<scales pt_clust_5="13000.00000" pt_clust_6="13000.00000" pt_clust_7="13000.00000" pt_clust_8="13000.00000" pt_clust_9="52.20903"></scales>
<clustering>
<clus scale="   52.209">  2  9  1 -1</clus>
<clus scale="   78.789">  5  6 -1 -1</clus>
<clus scale="   91.913">  7  8 -1 -1</clus>
<clus scale="  227.954">  1  5  2 -1</clus>
<clus scale="   52.209">  2  5  1 -1</clus>
</clustering>
</event>
<event>
 9    2  0.9254368E-005  0.1168552E+03  0.7546771E-02  0.1252056E+00
         21   -1    0    0  501  502  0.00000000000E+00  0.00000000000E+00  0.35175875026E+02  0.35175875026E+02  0.00000000000E+00 0. -1.
          2   -1    0    0  502    0 -0.00000000000E+00 -0.00000000000E+00 -0.11012454658E+04  0.11012454658E+04  0.00000000000E+00 0. -1.
         24    2    1    2    0    0 -0.62299294273E+02 -0.41778680934E+02 -0.66765546378E+03  0.67654801385E+03  0.79540785021E+02 0.  0.
         23    2    1    2    0    0  0.85974469741E+02 -0.13761462688E+02 -0.11563479096E+03  0.17072047056E+03  0.90515672040E+02 0.  0.
        -11    1    3    3    0    0 -0.44374296768E+02  0.88506392950E+01 -0.16705110867E+03  0.17307075125E+03  0.00000000000E+00 0.  1.
         12    1    3    3    0    0 -0.17924997505E+02 -0.50629320229E+02 -0.50060435511E+03  0.50347726260E+03  0.00000000000E+00 0. -1.
        -13    1    4    4    0    0 -0.12251515334E+02  0.18290858236E+02 -0.16305999117E+02  0.27395998435E+02  0.00000000000E+00 0.  1.
         13    1    4    4    0    0  0.98225985076E+02 -0.32052320925E+02 -0.99328791845E+02  0.14332447213E+03  0.00000000000E+00 0. -1.
          1    1    1    2  501    0 -0.23675175469E+02  0.55540143622E+02 -0.28277933604E+03  0.28915285642E+03  0.00000000000E+00 0. -1.
<scales pt_clust_5="13000.00000" pt_clust_6="13000.00000" pt_clust_7="13000.00000" pt_clust_8="13000.00000" pt_clust_9="60.37570"></scales>
<clustering>
<clus scale="   60.376">  1  9  2 -1</clus>
<clus scale="   79.541">  5  6 -1 -1</clus>
<clus scale="   90.516">  7  8 -1 -1</clus>
<clus scale="  108.576">  2  5  1 -1</clus>
<clus scale="   60.376">  1  5  2 -1</clus>
</clustering>
</event>
<event>
 9    2  0.9254368E-005  0.9995625E+02  0.7546771E-02  0.1284868E+00
         21   -1    0    0  501  502  0.00000000000E+00  0.00000000000E+00  0.12838040006E+03  0.12838040006E+03  0.00000000000E+00 0. -1.
          2   -1    0    0  502    0 -0.00000000000E+00 -0.00000000000E+00 -0.34868969949E+03  0.34868969949E+03  0.00000000000E+00 0. -1.
         24    2    1    2    0    0  0.39014100339E+02  0.18668699030E+02 -0.29219728088E+03  0.30643732137E+03  0.81571812679E+02 0.  0.
         23    2    1    2    0    0 -0.45329798881E+02  0.28267132992E+02  0.35936060809E+02  0.11117354027E+03  0.90632963735E+02 0.  0.
        -13    1    3    3    0    0  0.33123560398E+02  0.12097589175E+02 -0.37092090933E+02  0.51179538168E+02  0.00000000000E+00 0.  1.
         14    1    3    3    0    0  0.58905399413E+01  0.65711098552E+01 -0.25510518995E+03  0.25525778320E+03  0.00000000000E+00 0. -1.
        -13    1    4    4    0    0  0.25088264521E+02  0.34727073880E+01  0.25238046526E+02  0.35755275215E+02  0.00000000000E+00 0.  1.
         13    1    4    4    0    0 -0.70418063401E+02  0.24794425604E+02  0.10698014284E+02  0.75418265055E+02  0.00000000000E+00 0. -1.
          1    1    1    2  501    0  0.63156985416E+01 -0.46935832022E+02  0.35951920641E+02  0.59459237915E+02  0.00000000000E+00 0. -1.
<scales pt_clust_5="13000.00000" pt_clust_6="13000.00000" pt_clust_7="13000.00000" pt_clust_8="13000.00000" pt_clust_9="47.35885"></scales>
<clustering>
<clus scale="   47.359">  1  9  2 -1</clus>
<clus scale="   81.572">  5  6 -1 -1</clus>
<clus scale="   90.633">  7  8 -1 -1</clus>
<clus scale="   91.820">  2  5  1 -1</clus>
<clus scale="   47.359">  1  5  2 -1</clus>
</clustering>
</event>
<event>
 9    2  0.9254368E-005  0.2992518E+03  0.7546771E-02  0.1085943E+00
         -1   -1    0    0    0  501 -0.00000000000E+00  0.00000000000E+00  0.31432393461E+03  0.31432393461E+03  0.00000000000E+00 0.  1.
         21   -1    0    0  501  502  0.00000000000E+00 -0.00000000000E+00 -0.59534980721E+03  0.59534980721E+03  0.00000000000E+00 0.  1.
         23    2    1    2    0    0  0.25757974093E+03  0.10568822552E+03  0.12701496228E+03  0.31892288171E+03  0.89786858096E+02 0.  0.
         24    2    1    2    0    0 -0.31825300112E+03 -0.60099601991E+02 -0.38887294551E+03  0.51247586359E+03  0.80699492779E+02 0.  0.
        -11    1    4    4    0    0 -0.31254604587E+03 -0.69560766983E+02 -0.36126039005E+03  0.48273471028E+03  0.00000000000E+00 0.  1.
         12    1    4    4    0    0 -0.57069552500E+01  0.94611649919E+01 -0.27612555462E+02  0.29741153313E+02  0.00000000000E+00 0. -1.
        -11    1    3    3    0    0  0.92031706348E+02 -0.57903924960E+01  0.50812502678E+02  0.10528662805E+03  0.00000000000E+00 0. -1.
         11    1    3    3    0    0  0.16554803458E+03  0.11147861801E+03  0.76202459599E+02  0.21363625366E+03  0.00000000000E+00 0.  1.
         -2    1    1    2    0  502  0.60673260191E+02 -0.45588623526E+02 -0.19167889364E+02  0.78274996518E+02  0.00000000000E+00 0.  1.
<scales pt_clust_5="13000.00000" pt_clust_6="13000.00000" pt_clust_7="13000.00000" pt_clust_8="13000.00000" pt_clust_9="75.89185"></scales>
<clustering>
<clus scale="   75.892">  2  9  1 -1</clus>
<clus scale="   80.699">  5  6 -1 -1</clus>
<clus scale="   89.787">  7  8 -1 -1</clus>
<clus scale="  296.652">  2  5  1 -1</clus>
<clus scale="   75.892">  2  5  1 -1</clus>
</clustering>
</event>
<event>
 9    2  0.9254368E-005  0.2334315E+03  0.7546771E-02  0.1160563E+00
          2   -1    0    0  502    0 -0.00000000000E+00  0.00000000000E+00  0.16922389296E+03  0.16922389296E+03  0.00000000000E+00 0. -1.
         21   -1    0    0  501  502  0.00000000000E+00 -0.00000000000E+00 -0.56534150635E+03  0.56534150635E+03  0.00000000000E+00 0. -1.
         24    2    1    2    0    0  0.38150489302E+02 -0.41929077332E+02  0.18672501399E+02  0.99330878979E+02  0.79400590995E+02 0.  0.
         23    2    1    2    0    0 -0.23291177056E+03  0.85701405247E+02 -0.15313540979E+03  0.30612791447E+03  0.93119399480E+02 0.  0.
        -11    1    3    3    0    0  0.17619220448E+02 -0.29996012453E+02  0.49447625132E+02  0.60458790291E+02  0.00000000000E+00 0.  1.
         12    1    3    3    0    0  0.20531268854E+02 -0.11933064879E+02 -0.30775123733E+02  0.38872088688E+02  0.00000000000E+00 0. -1.
        -13    1    4    4    0    0 -0.30345371121E+02  0.41586760734E+02 -0.59408630221E+02  0.78610976088E+02  0.00000000000E+00 0.  1.
         13    1    4    4    0    0 -0.20256639944E+03  0.44114644513E+02 -0.93726779573E+02  0.22751693838E+03  0.00000000000E+00 0. -1.
          1    1    1    2  501    0  0.19476128126E+03 -0.43772327915E+02 -0.26165470499E+03  0.32910660585E+03  0.00000000000E+00 0. -1.
<scales pt_clust_5="13000.00000" pt_clust_6="13000.00000" pt_clust_7="13000.00000" pt_clust_8="13000.00000" pt_clust_9="214.05379"></scales>
<clustering>
<clus scale="   79.401">  5  6 -1 -1</clus>
<clus scale="   93.119">  7  8 -1 -1</clus>
<clus scale="   97.560">  1  5  2 -1</clus>
<clus scale="  214.054">  2  9  1 -1</clus>
<clus scale="  214.054">  2  5  1 -1</clus>
</clustering>
</event>
<event>
 9    2  0.9254368E-005  0.9130116E+02  0.7546771E-02  0.1306209E+00
         21   -1    0    0  501  502  0.00000000000E+00  0.00000000000E+00  0.27710275794E+02  0.27710275794E+02  0.00000000000E+00 0. -1.
          2   -1    0    0  502    0 -0.00000000000E+00 -0.00000000000E+00 -0.65494817551E+03  0.65494817551E+03  0.00000000000E+00 0. -1.
         24    2    1    2    0    0 -0.16078744363E+01 -0.21880751497E+02 -0.25602725108E+03  0.26942894668E+03  0.80997848515E+02 0.  0.
         23    2    1    2    0    0  0.11824706624E+01 -0.52990975663E+02 -0.19373195065E+03  0.22060384503E+03  0.91238950028E+02 0.  0.
        -13    1    3    3    0    0  0.19389626138E+02 -0.39274453365E+02 -0.21961153326E+03  0.22393674515E+03  0.00000000000E+00 0.  1.
         14    1    3    3    0    0 -0.20997500574E+02  0.17393701868E+02 -0.36415717829E+02  0.45492201530E+02  0.00000000000E+00 0. -1.
        -13    1    4    4    0    0 -0.20827283318E+02  0.20235713392E+02 -0.51628531402E+02  0.59234829971E+02  0.00000000000E+00 0.  1.
         13    1    4    4    0    0  0.22009753981E+02 -0.73226689055E+02 -0.14210341925E+03  0.16136901506E+03  0.00000000000E+00 0. -1.
          1    1    1    2  501    0  0.42540377385E+00  0.74871727161E+02 -0.17747869798E+03  0.19262565959E+03  0.00000000000E+00 0. -1.
<scales pt_clust_5="13000.00000" pt_clust_6="13000.00000" pt_clust_7="13000.00000" pt_clust_8="13000.00000" pt_clust_9="74.87297"></scales>
<clustering>
<clus scale="   74.873">  1  9  2 -1</clus>
<clus scale="   80.998">  5  6 -1 -1</clus>
<clus scale="   81.068">  2  5  1 -1</clus>
<clus scale="   91.239">  7  8 -1 -1</clus>
<clus scale="   74.873">  1  5  2 -1</clus>
</clustering>
</event>
<event>
 9    2  0.9254368E-005  0.9427642E+02  0.7546771E-02  0.1299670E+00
         21   -1    0    0  501  502  0.00000000000E+00  0.00000000000E+00  0.17607585344E+03  0.17607585344E+03  0.00000000000E+00 0. -1.
          2   -1    0    0  502    0 -0.00000000000E+00 -0.00000000000E+00 -0.14047443042E+03  0.14047443042E+03  0.00000000000E+00 0. -1.
         23    2    1    2    0    0  0.13491590052E+02  0.23923807308E+02 -0.78244839759E+02  0.12396010463E+03  0.92138379809E+02 0.  0.
         24    2    1    2    0    0  0.11718595286E+02 -0.10296579721E+02  0.74675784168E+01  0.82419042974E+02  0.80584048595E+02 0.  0.
        -11    1    4    4    0    0  0.18379669938E+02 -0.27010648382E+02  0.36045776695E+02  0.48648591044E+02  0.00000000000E+00 0.  1.
         12    1    4    4    0    0 -0.66610746518E+01  0.16714068661E+02 -0.28578198278E+02  0.33770451930E+02  0.00000000000E+00 0. -1.
        -13    1    3    3    0    0 -0.36339727954E+02  0.12546318856E+02 -0.11971018501E+02  0.40265260816E+02  0.00000000000E+00 0.  1.
         13    1    3    3    0    0  0.49831318006E+02  0.11377488451E+02 -0.66273821259E+02  0.83694843819E+02  0.00000000000E+00 0. -1.
          1    1    1    2  501    0 -0.25210185337E+02 -0.13627227586E+02  0.10637868436E+03  0.11017113625E+03  0.00000000000E+00 0. -1.
<scales pt_clust_5="13000.00000" pt_clust_6="13000.00000" pt_clust_7="13000.00000" pt_clust_8="13000.00000" pt_clust_9="28.65754"></scales>
<clustering>
<clus scale="   28.658">  1  9  2 -1</clus>
<clus scale="   80.584">  5  6 -1 -1</clus>
<clus scale="   83.020">  1  5  2 -1</clus>
<clus scale="   92.138">  7  8 -1 -1</clus>
<clus scale="   28.658">  1  5  2 -1</clus>
</clustering>
</event>
<event>
 9    2  0.9254368E-005  0.9735056E+02  0.7546771E-02  0.1290767E+00
         21   -1    0    0  501  502  0.00000000000E+00  0.00000000000E+00  0.26849602513E+02  0.26849602513E+02  0.00000000000E+00 0. -1.
          2   -1    0    0  502    0 -0.00000000000E+00 -0.00000000000E+00 -0.10339045550E+04  0.10339045550E+04  0.00000000000E+00 0. -1.
         24    2    1    2    0    0 -0.16076090650E+02  0.39914459482E+02 -0.66004500506E+03  0.66655358626E+03  0.82356966218E+02 0.  0.
         23    2    1    2    0    0  0.47238308633E+02  0.31697147910E+02 -0.22367090895E+03  0.24821487142E+03  0.91355240117E+02 0.  0.
        -11    1    3    3    0    0 -0.67918328957E+01  0.28190998128E+02 -0.63350458670E+02  0.69671672746E+02  0.00000000000E+00 0.  1.
         12    1    3    3    0    0 -0.92842577539E+01  0.11723461355E+02 -0.59669454639E+03  0.59688191351E+03  0.00000000000E+00 0. -1.
        -11    1    4    4    0    0  0.68444524505E+02  0.44716477539E+02 -0.18457519033E+03  0.20187178402E+03  0.00000000000E+00 0. -1.
         11    1    4    4    0    0 -0.21206215872E+02 -0.13019329629E+02 -0.39095718620E+02  0.46343087403E+02  0.00000000000E+00 0.  1.
          1    1    1    2  501    0 -0.31162217984E+02 -0.71611607393E+02 -0.12333903849E+03  0.14598569984E+03  0.00000000000E+00 0. -1.
<scales pt_clust_5="13000.00000" pt_clust_6="13000.00000" pt_clust_7="13000.00000" pt_clust_8="13000.00000" pt_clust_9="78.09805"></scales>
<clustering>
<clus scale="   78.098">  1  9  2 -1</clus>
<clus scale="   82.357">  5  6 -1 -1</clus>
<clus scale="   88.961">  2  5  1 -1</clus>
<clus scale="   91.355">  7  8 -1 -1</clus>
<clus scale="   78.098">  1  5  2 -1</clus>
</clustering>
</event>
<event>
 9    2  0.9254368E-005  0.1367001E+03  0.7546771E-02  0.1241530E+00
          2   -1    0    0  502    0 -0.00000000000E+00  0.00000000000E+00  0.11765039032E+04  0.11765039032E+04  0.00000000000E+00 0. -1.
         21   -1    0    0  501  502  0.00000000000E+00 -0.00000000000E+00 -0.51318980253E+02  0.51318980253E+02  0.00000000000E+00 0. -1.
         24    2    1    2    0    0 -0.19415134841E+02  0.18228538929E+01  0.87221525808E+03  0.87623053107E+03  0.81487525949E+02 0.  0.
         23    2    1    2    0    0 -0.62170860648E+01  0.99736601712E+02  0.11026803437E+03  0.17457515232E+03  0.91276516838E+02 0.  0.
        -11    1    3    3    0    0 -0.21222380715E+02 -0.20637102750E+02  0.11724938150E+03  0.12092847851E+03  0.00000000000E+00 0.  1.
         12    1    3    3    0    0  0.18072458740E+01  0.22459956643E+02  0.75496587659E+03  0.75530205256E+03  0.00000000000E+00 0. -1.
        -13    1    4    4    0    0 -0.19058721391E+02 -0.10905969628E+02  0.30459070421E+02  0.37549034681E+02  0.00000000000E+00 0.  1.
         13    1    4    4    0    0  0.12841635326E+02  0.11064257134E+03  0.79808963945E+02  0.13702611764E+03  0.00000000000E+00 0. -1.
          1    1    1    2  501    0  0.25632220906E+02 -0.10155945560E+03  0.14270163051E+03  0.17701720007E+03  0.00000000000E+00 0. -1.
<scales pt_clust_5="13000.00000" pt_clust_6="13000.00000" pt_clust_7="13000.00000" pt_clust_8="13000.00000" pt_clust_9="101.76211"></scales>
<clustering>
<clus scale="   81.488">  5  6 -1 -1</clus>
<clus scale="   83.788">  1  5  2 -1</clus>
<clus scale="   91.277">  7  8 -1 -1</clus>
<clus scale="  101.762">  2  9  1 -1</clus>
<clus scale="  101.762">  2  5  1 -1</clus>
</clustering>
</event>
<event>
 9    2  0.9254368E-005  0.1616692E+03  0.7546771E-02  0.1200566E+00
         21   -1    0    0  501  502  0.00000000000E+00  0.00000000000E+00  0.13555178774E+03  0.13555178774E+03  0.00000000000E+00 0. -1.
          4   -1    0    0  502    0 -0.00000000000E+00 -0.00000000000E+00 -0.60876075316E+03  0.60876075316E+03  0.00000000000E+00 0. -1.
         24    2    1    2    0    0 -0.84520726850E+02 -0.11330479610E+02 -0.41046216020E+03  0.42752186403E+03  0.83807077436E+02 0.  0.
         23    2    1    2    0    0  0.95857674094E+02 -0.11895859516E+03 -0.51867472476E+02  0.18555756650E+03  0.91659886213E+02 0.  0.
        -11    1    3    3    0    0 -0.69540662625E+02  0.27127208741E+02 -0.21044697823E+03  0.22329290150E+03  0.00000000000E+00 0.  1.
         12    1    3    3    0    0 -0.14980064226E+02 -0.38457688350E+02 -0.20001518197E+03  0.20422896253E+03  0.00000000000E+00 0. -1.
        -11    1    4    4    0    0  0.10836310064E+03 -0.76966884612E+02 -0.48963940371E+02  0.14164720387E+03  0.00000000000E+00 0.  1.
         11    1    4    4    0    0 -0.12505426548E+02 -0.41991710549E+02 -0.29035321050E+01  0.43910362634E+02  0.00000000000E+00 0. -1.
          3    1    1    2  501    0 -0.11336947244E+02  0.13028907477E+03 -0.10879332743E+02  0.13123311037E+03  0.00000000000E+00 0. -1.
<scales pt_clust_5="13000.00000" pt_clust_6="13000.00000" pt_clust_7="13000.00000" pt_clust_8="13000.00000" pt_clust_9="133.17432"></scales>
<clustering>
<clus scale="   83.807">  5  6 -1 -1</clus>
<clus scale="   91.660">  7  8 -1 -1</clus>
<clus scale="  119.565">  2  5  1 -1</clus>
<clus scale="  133.174">  1  9  2 -1</clus>
<clus scale="  133.174">  1  5  2 -1</clus>
</clustering>
</event>
<event>
 9    2  0.9254368E-005  0.1255845E+03  0.7546771E-02  0.1240269E+00
         21   -1    0    0  501  502  0.00000000000E+00  0.00000000000E+00  0.51478351337E+03  0.51478351337E+03  0.00000000000E+00 0. -1.
         -3   -1    0    0    0  501 -0.00000000000E+00 -0.00000000000E+00 -0.90448923830E+02  0.90448923830E+02  0.00000000000E+00 0.  1.
         23    2    1    2    0    0 -0.61983303278E+02  0.28845787661E+02 -0.20306979566E+01  0.12075844785E+03  0.99521201973E+02 0.  0.
         24    2    1    2    0    0  0.13024227506E+03  0.66568014917E+01  0.28840307336E+03  0.32650787401E+03  0.80147962218E+02 0.  0.
        -11    1    4    4    0    0  0.77967791721E+02 -0.65129425638E+00  0.80742552029E+02  0.11224420002E+03  0.00000000000E+00 0.  1.
         12    1    4    4    0    0  0.52274483341E+02  0.73080957481E+01  0.20766052133E+03  0.21426367399E+03  0.00000000000E+00 0. -1.
        -11    1    3    3    0    0 -0.55449489513E+02  0.64032671563E+02 -0.49666781256E+01  0.84849848594E+02  0.00000000000E+00 0.  1.
         11    1    3    3    0    0 -0.65338137648E+01 -0.35186883902E+02  0.29359801690E+01  0.35908599257E+02  0.00000000000E+00 0. -1.
         -4    1    1    2    0  502 -0.68258971785E+02 -0.35502589153E+02  0.13796221413E+03  0.15796611533E+03  0.00000000000E+00 0.  1.
<scales pt_clust_5="13000.00000" pt_clust_6="13000.00000" pt_clust_7="13000.00000" pt_clust_8="13000.00000" pt_clust_9="76.93972"></scales>
<clustering>
<clus scale="   76.940">  1  9  2 -1</clus>
<clus scale="   80.148">  5  6 -1 -1</clus>
<clus scale="   99.521">  7  8 -1 -1</clus>
<clus scale="  110.863">  1  5  2 -1</clus>
<clus scale="   76.940">  1  5  2 -1</clus>
</clustering>
</event>
<event>
 9    2  0.9254368E-005  0.9231846E+02  0.7546771E-02  0.1303415E+00
         21   -1    0    0  501  502  0.00000000000E+00  0.00000000000E+00  0.34163351405E+03  0.34163351405E+03  0.00000000000E+00 0.  1.
          2   -1    0    0  502    0 -0.00000000000E+00 -0.00000000000E+00 -0.56033949664E+02  0.56033949664E+02  0.00000000000E+00 0. -1.
         24    2    1    2    0    0  0.31549781418E+02 -0.70143190553E+01  0.67846224011E+02  0.11019524441E+03  0.80593376885E+02 0.  0.
         23    2    1    2    0    0  0.17885316479E+02 -0.85712316434E+01  0.21660920903E+03  0.23562583726E+03  0.90590480688E+02 0.  0.
        -13    1    3    3    0    0  0.22851211086E+02  0.36078049387E+02  0.36827551429E+02  0.56392127464E+02  0.00000000000E+00 0.  1.
         14    1    3    3    0    0  0.86985703329E+01 -0.43092368443E+02  0.31018672582E+02  0.53803116941E+02  0.00000000000E+00 0. -1.
        -11    1    4    4    0    0  0.71911612187E+01 -0.49168759964E+02  0.13492090297E+03  0.14378083952E+03  0.00000000000E+00 0.  1.
         11    1    4    4    0    0  0.10694155261E+02  0.40597528320E+02  0.81688306063E+02  0.91844997740E+02  0.00000000000E+00 0. -1.
          1    1    1    2  501    0 -0.49435097898E+02  0.15585550699E+02  0.11441313438E+01  0.51846382046E+02  0.00000000000E+00 0. -1.
<scales pt_clust_5="13000.00000" pt_clust_6="13000.00000" pt_clust_7="13000.00000" pt_clust_8="13000.00000" pt_clust_9="51.83378"></scales>
<clustering>
<clus scale="   51.834">  1  9  2 -1</clus>
<clus scale="   80.593">  5  6 -1 -1</clus>
<clus scale="   82.531">  2  5  1 -1</clus>
<clus scale="   90.590">  7  8 -1 -1</clus>
<clus scale="   51.834">  1  5  2 -1</clus>
</clustering>
</event>
<event>
 9    2  0.9254368E-005  0.2503241E+03  0.7546771E-02  0.1151233E+00
          2   -1    0    0  502    0 -0.00000000000E+00  0.00000000000E+00  0.38239151942E+03  0.38239151942E+03  0.00000000000E+00 0. -1.
         21   -1    0    0  501  502  0.00000000000E+00 -0.00000000000E+00 -0.23144663060E+03  0.23144663060E+03  0.00000000000E+00 0. -1.
         24    2    1    2    0    0 -0.77198817153E+01 -0.55897500549E+02 -0.14710723054E+02  0.99550972148E+02  0.80683725382E+02 0.  0.
         23    2    1    2    0    0 -0.58140726595E+02  0.25275079959E+03  0.60334462409E+02  0.28151822462E+03  0.91372603447E+02 0.  0.
        -11    1    3    3    0    0  0.35517633818E+02 -0.13813083195E+02 -0.49462639367E+01  0.38428753640E+02  0.00000000000E+00 0.  1.
         12    1    3    3    0    0 -0.43237515533E+02 -0.42084417354E+02 -0.97644591169E+01  0.61122218508E+02  0.00000000000E+00 0. -1.
        -13    1    4    4    0    0  0.24081349747E+02  0.37648937919E+02  0.92326724590E+01  0.45635470555E+02  0.00000000000E+00 0.  1.
         13    1    4    4    0    0 -0.82222076342E+02  0.21510186167E+03  0.51101789950E+02  0.23588275407E+03  0.00000000000E+00 0. -1.
          1    1    1    2  501    0  0.65860608311E+02 -0.19685329904E+03  0.10532114947E+03  0.23276895324E+03  0.00000000000E+00 0. -1.
<scales pt_clust_5="13000.00000" pt_clust_6="13000.00000" pt_clust_7="13000.00000" pt_clust_8="13000.00000" pt_clust_9="233.05200"></scales>
<clustering>
<clus scale="   80.684">  5  6 -1 -1</clus>
<clus scale="   91.373">  7  8 -1 -1</clus>
<clus scale="   98.458">  1  5  2 -1</clus>
<clus scale="  233.052">  2  9  1 -1</clus>
<clus scale="  233.052">  2  5  1 -1</clus>
</clustering>
</event>
<event>
 9    2  0.9254368E-005  0.1073289E+03  0.7546771E-02  0.1279004E+00
         -1   -1    0    0    0  501 -0.00000000000E+00  0.00000000000E+00  0.64224460721E+02  0.64224460721E+02  0.00000000000E+00 0.  1.
         21   -1    0    0  501  502  0.00000000000E+00 -0.00000000000E+00 -0.96565842484E+03  0.96565842484E+03  0.00000000000E+00 0.  1.
         23    2    1    2    0    0 -0.17701677069E+01 -0.15607555821E+01 -0.12973944430E+02  0.10680787410E+03  0.10599070376E+03 0.  0.
         24    2    1    2    0    0 -0.68771239547E+02  0.45098942422E+02 -0.21014641805E+03  0.23971492627E+03  0.80859945980E+02 0.  0.
        -11    1    4    4    0    0 -0.31125985279E+02  0.65320167846E+02 -0.13952947435E+03  0.15717514275E+03  0.00000000000E+00 0.  1.
         12    1    4    4    0    0 -0.37645254268E+02 -0.20221225423E+02 -0.70616943695E+02  0.82539783519E+02  0.00000000000E+00 0. -1.
        -13    1    3    3    0    0 -0.39043679048E+02  0.25972707056E+02  0.18905620790E+02  0.50560981823E+02  0.00000000000E+00 0.  1.
         13    1    3    3    0    0  0.37273511341E+02 -0.27533462638E+02 -0.31879565219E+02  0.56246892280E+02  0.00000000000E+00 0. -1.
         -2    1    1    2    0  502  0.70541407254E+02 -0.43538186840E+02 -0.67831360165E+03  0.68336008519E+03  0.00000000000E+00 0.  1.
<scales pt_clust_5="13000.00000" pt_clust_6="13000.00000" pt_clust_7="13000.00000" pt_clust_8="13000.00000" pt_clust_9="82.89550"></scales>
<clustering>
<clus scale="   80.860">  5  6 -1 -1</clus>
<clus scale="   82.895">  2  9  1 -1</clus>
<clus scale="   82.895">  2  5  1 -1</clus>
<clus scale="  105.991">  7  8 -1 -1</clus>
<clus scale="   82.895">  2  5  1 -1</clus>
</clustering>
</event>
<event>
 9    2  0.9254368E-005  0.1245655E+03  0.7546771E-02  0.1252810E+00
         21   -1    0    0  501  502  0.00000000000E+00  0.00000000000E+00  0.11401397801E+03  0.11401397801E+03  0.00000000000E+00 0. -1.
          2   -1    0    0  502    0 -0.00000000000E+00 -0.00000000000E+00 -0.31874690934E+03  0.31874690934E+03  0.00000000000E+00 0. -1.
         24    2    1    2    0    0  0.25996917874E+02  0.20558524515E+02 -0.19529732104E+03  0.21433219651E+03  0.81845917347E+02 0.  0.
         23    2    1    2    0    0  0.26917862264E+02  0.53394121563E+02 -0.46472670404E+02  0.12024156519E+03  0.93396045844E+02 0.  0.
        -11    1    3    3    0    0 -0.35370418960E+01 -0.25173660363E+02 -0.25440273512E+02  0.35964306719E+02  0.00000000000E+00 0.  1.
         12    1    3    3    0    0  0.29533959770E+02  0.45732184879E+02 -0.16985704753E+03  0.17836788979E+03  0.00000000000E+00 0. -1.
        -11    1    4    4    0    0  0.29483351062E+02  0.76256111823E+02 -0.51590231417E+02  0.96673753200E+02  0.00000000000E+00 0. -1.
         11    1    4    4    0    0 -0.25654887982E+01 -0.22861990259E+02  0.51175610134E+01  0.23567811993E+02  0.00000000000E+00 0.  1.
          1    1    1    2  501    0 -0.52914780137E+02 -0.73952646079E+02  0.37037060119E+02  0.98187125639E+02  0.00000000000E+00 0. -1.
<scales pt_clust_5="13000.00000" pt_clust_6="13000.00000" pt_clust_7="13000.00000" pt_clust_8="13000.00000" pt_clust_9="82.42414"></scales>
<clustering>
<clus scale="   81.846">  5  6 -1 -1</clus>
<clus scale="   88.302">  2  5  1 -1</clus>
<clus scale="   82.424">  1  9  2 -1</clus>
<clus scale="   93.396">  7  8 -1 -1</clus>
<clus scale="   82.424">  1  5  2 -1</clus>
</clustering>
</event>
<event>
 9    2  0.9254368E-005  0.1142249E+03  0.7546771E-02  0.1257152E+00
         -1   -1    0    0    0  501 -0.00000000000E+00  0.00000000000E+00  0.44268392187E+03  0.44268392187E+03  0.00000000000E+00 0.  1.
         21   -1    0    0  501  502  0.00000000000E+00 -0.00000000000E+00 -0.89832126285E+02  0.89832126285E+02  0.00000000000E+00 0.  1.
         23    2    1    2    0    0  0.45000933876E+02 -0.56427618923E+02  0.35744483984E+03  0.37604813566E+03  0.91848933444E+02 0.  0.
         24    2    1    2    0    0  0.73121771233E+01  0.53983712557E+02 -0.25238756756E+02  0.10017510918E+03  0.80189453803E+02 0.  0.
        -13    1    4    4    0    0  0.16168772069E+02 -0.14656257053E+02 -0.21852817284E+02  0.30883339915E+02  0.00000000000E+00 0.  1.
         14    1    4    4    0    0 -0.88565949458E+01  0.68639969610E+02 -0.33859394712E+01  0.69291769267E+02  0.00000000000E+00 0. -1.
        -13    1    3    3    0    0 -0.17721665941E+01 -0.51482154872E+02  0.28538615715E+03  0.28999795092E+03  0.00000000000E+00 0.  1.
         13    1    3    3    0    0  0.46773100470E+02 -0.49454640511E+01  0.72058682699E+02  0.86050184744E+02  0.00000000000E+00 0. -1.
         -2    1    1    2    0  502 -0.52313110999E+02  0.24439063657E+01  0.20645712501E+02  0.56292803318E+02  0.00000000000E+00 0.  1.
<scales pt_clust_5="13000.00000" pt_clust_6="13000.00000" pt_clust_7="13000.00000" pt_clust_8="13000.00000" pt_clust_9="52.37017"></scales>
<clustering>
<clus scale="   52.370">  2  9  1 -1</clus>
<clus scale="   80.189">  5  6 -1 -1</clus>
<clus scale="   91.849">  7  8 -1 -1</clus>
<clus scale="  105.078">  2  5  1 -1</clus>
<clus scale="   52.370">  2  5  1 -1</clus>
</clustering>
</event>
<event>
 9    2  0.9254368E-005  0.1023020E+03  0.7546771E-02  0.1278951E+00
          2   -1    0    0  502    0 -0.00000000000E+00  0.00000000000E+00  0.16679021183E+03  0.16679021183E+03  0.00000000000E+00 0. -1.
         21   -1    0    0  501  502  0.00000000000E+00 -0.00000000000E+00 -0.12877814003E+03  0.12877814003E+03  0.00000000000E+00 0. -1.
         24    2    1    2    0    0 -0.32755963815E+02  0.48543184180E+02  0.65207017539E+02  0.11877834174E+03  0.80168232077E+02 0.  0.
         23    2    1    2    0    0 -0.26063494486E+02 -0.55754461174E+02  0.85724898395E+01  0.10757266665E+03  0.87809597093E+02 0.  0.
        -11    1    3    3    0    0  0.23319896570E+02 -0.16663099793E+01  0.21366906621E+02  0.31672367508E+02  0.00000000000E+00 0.  1.
         12    1    3    3    0    0 -0.56075860385E+02  0.50209494159E+02  0.43840110919E+02  0.87105974232E+02  0.00000000000E+00 0. -1.
        -11    1    4    4    0    0 -0.27444233308E+02 -0.24288333681E+02  0.45897696486E+02  0.58734211815E+02  0.00000000000E+00 0.  1.
         11    1    4    4    0    0  0.13807388222E+01 -0.31466127493E+02 -0.37325206646E+02  0.48838454831E+02  0.00000000000E+00 0. -1.
          1    1    1    2  501    0  0.58819458301E+02  0.72112769938E+01 -0.35767435580E+02  0.69217343482E+02  0.00000000000E+00 0. -1.
<scales pt_clust_5="13000.00000" pt_clust_6="13000.00000" pt_clust_7="13000.00000" pt_clust_8="13000.00000" pt_clust_9="59.25986"></scales>
<clustering>
<clus scale="   59.260">  2  9  1 -1</clus>
<clus scale="   80.168">  5  6 -1 -1</clus>
<clus scale="   87.810">  7  8 -1 -1</clus>
<clus scale="   95.823">  1  5  2 -1</clus>
<clus scale="   59.260">  2  5  1 -1</clus>
</clustering>
</event>
<event>
 9    2  0.9254368E-005  0.1016761E+03  0.7546771E-02  0.1281174E+00
          2   -1    0    0  502    0 -0.00000000000E+00  0.00000000000E+00  0.33601786992E+03  0.33601786992E+03  0.00000000000E+00 0. -1.
         21   -1    0    0  501  502  0.00000000000E+00 -0.00000000000E+00 -0.16183567278E+03  0.16183567278E+03  0.00000000000E+00 0. -1.
         23    2    1    2    0    0 -0.12390141865E+02  0.38881703192E+02  0.26703647436E+03  0.28515596091E+03  0.91324372130E+02 0.  0.
         24    2    1    2    0    0  0.20701008855E+01 -0.98029967712E+02 -0.81195290014E+02  0.15153425598E+03  0.82193647724E+02 0.  0.
        -11    1    4    4    0    0  0.28792044589E+02 -0.38394093039E+01 -0.26847358301E+02  0.39553805672E+02  0.00000000000E+00 0.  1.
         12    1    4    4    0    0 -0.26721943703E+02 -0.94190558408E+02 -0.54347931714E+02  0.11198045030E+03  0.00000000000E+00 0. -1.
        -11    1    3    3    0    0 -0.47085874067E+02  0.44598237355E+02  0.17128133720E+03  0.18314851565E+03  0.00000000000E+00 0. -1.
         11    1    3    3    0    0  0.34695732201E+02 -0.57165341629E+01  0.95755137162E+02  0.10200744526E+03  0.00000000000E+00 0.  1.
          1    1    1    2  501    0  0.10320040980E+02  0.59148264521E+02 -0.11658987206E+02  0.61163325811E+02  0.00000000000E+00 0. -1.
<scales pt_clust_5="13000.00000" pt_clust_6="13000.00000" pt_clust_7="13000.00000" pt_clust_8="13000.00000" pt_clust_9="60.04182"></scales>
<clustering>
<clus scale="   60.042">  2  9  1 -1</clus>
<clus scale="   82.194">  5  6 -1 -1</clus>
<clus scale="   91.324">  7  8 -1 -1</clus>
<clus scale="   93.561">  2  5  1 -1</clus>
<clus scale="   60.042">  2  5  1 -1</clus>
</clustering>
</event>
<event>
 9    2  0.9254368E-005  0.1055565E+03  0.7546771E-02  0.1272767E+00
         21   -1    0    0  501  502  0.00000000000E+00  0.00000000000E+00  0.59078186628E+02  0.59078186628E+02  0.00000000000E+00 0.  1.
          2   -1    0    0  502    0 -0.00000000000E+00 -0.00000000000E+00 -0.65981730433E+03  0.65981730433E+03  0.00000000000E+00 0. -1.
         24    2    1    2    0    0 -0.29380736084E+02  0.43683069956E+02 -0.57872208796E+03  0.58704183885E+03  0.83231167331E+02 0.  0.
         23    2    1    2    0    0  0.45133552386E+02 -0.25357313611E+02 -0.22148564310E+02  0.10768752150E+03  0.91793313923E+02 0.  0.
        -11    1    3    3    0    0 -0.32314302217E+02  0.67311266219E+02 -0.43574760398E+03  0.44209839975E+03  0.00000000000E+00 0.  1.
         12    1    3    3    0    0  0.29335661330E+01 -0.23628196263E+02 -0.14297448399E+03  0.14494343911E+03  0.00000000000E+00 0. -1.
        -13    1    4    4    0    0 -0.10290881056E+02  0.26934595494E+02 -0.10044265363E+02  0.30532964710E+02  0.00000000000E+00 0.  1.
         13    1    4    4    0    0  0.55424433442E+02 -0.52291909105E+02 -0.12104298947E+02  0.77154556788E+02  0.00000000000E+00 0. -1.
          1    1    1    2  501    0 -0.15752816302E+02 -0.18325756345E+02  0.13153457144E+00  0.24166130604E+02  0.00000000000E+00 0. -1.
<scales pt_clust_5="13000.00000" pt_clust_6="13000.00000" pt_clust_7="13000.00000" pt_clust_8="13000.00000" pt_clust_9="24.16577"></scales>
<clustering>
<clus scale="   24.166">  1  9  2 -1</clus>
<clus scale="   83.231">  5  6 -1 -1</clus>
<clus scale="   91.793">  7  8 -1 -1</clus>
<clus scale="   98.202">  2  5  1 -1</clus>
<clus scale="   24.166">  1  5  2 -1</clus>
</clustering>
</event>
<event>
 9    2  0.9254368E-005  0.1539805E+03  0.7546771E-02  0.1209177E+00
         21   -1    0    0  501  502  0.00000000000E+00  0.00000000000E+00  0.11607198205E+03  0.11607198205E+03  0.00000000000E+00 0.  1.
          2   -1    0    0  502    0 -0.00000000000E+00 -0.00000000000E+00 -0.37775806794E+03  0.37775806794E+03  0.00000000000E+00 0. -1.
         23    2    1    2    0    0  0.30029355986E+02 -0.65366804883E+02 -0.13451884242E+03  0.17694853620E+03  0.89670976887E+02 0.  0.
         24    2    1    2    0    0 -0.10423563587E+03 -0.56650367035E+02 -0.68969003274E+02  0.16266803391E+03  0.87348920840E+02 0.  0.
        -13    1    4    4    0    0 -0.42344349994E+02 -0.28544235031E+02  0.16314493262E+02  0.53609514271E+02  0.00000000000E+00 0.  1.
         14    1    4    4    0    0 -0.61891285874E+02 -0.28106132004E+02 -0.85283496537E+02  0.10905851963E+03  0.00000000000E+00 0. -1.
        -13    1    3    3    0    0 -0.24278423572E+02 -0.19072591741E+02 -0.84057397715E+02  0.89548041394E+02  0.00000000000E+00 0. -1.
         13    1    3    3    0    0  0.54307779557E+02 -0.46294213142E+02 -0.50461444710E+02  0.87400494810E+02  0.00000000000E+00 0.  1.
          1    1    1    2  501    0  0.74206279882E+02  0.12201717192E+03 -0.58198240192E+02  0.15421347989E+03  0.00000000000E+00 0. -1.
<scales pt_clust_5="13000.00000" pt_clust_6="13000.00000" pt_clust_7="13000.00000" pt_clust_8="13000.00000" pt_clust_9="126.80759"></scales>
<clustering>
<clus scale="   87.349">  5  6 -1 -1</clus>
<clus scale="   89.671">  7  8 -1 -1</clus>
<clus scale="  114.959">  2  7  1 -1</clus>
<clus scale="  126.808">  1  9  2 -1</clus>
<clus scale="  126.808">  1  5  2 -1</clus>
</clustering>
</event>
<event>
 9    2  0.9254368E-005  0.2213301E+03  0.7546771E-02  0.1144098E+00
         21   -1    0    0  501  502  0.00000000000E+00  0.00000000000E+00  0.91009823489E+03  0.91009823489E+03  0.00000000000E+00 0. -1.
          4   -1    0    0  502    0 -0.00000000000E+00 -0.00000000000E+00 -0.21100534437E+03  0.21100534437E+03  0.00000000000E+00 0. -1.
         24    2    1    2    0    0 -0.11790368213E+03  0.89550208317E+02 -0.10602619263E+03  0.19933513685E+03  0.81070495199E+02 0.  0.
         23    2    1    2    0    0  0.15959164192E+03  0.12805322313E+03  0.35296137692E+03  0.41824512551E+03  0.92087628313E+02 0.  0.
        -11    1    3    3    0    0 -0.10303668004E+03  0.37753267499E+02 -0.46904711733E+02  0.11933950990E+03  0.00000000000E+00 0.  1.
         12    1    3    3    0    0 -0.14867002099E+02  0.51796940818E+02 -0.59121480892E+02  0.79995626958E+02  0.00000000000E+00 0. -1.
        -13    1    4    4    0    0  0.15784126011E+02  0.56691344532E+02  0.13738881338E+03  0.14946147738E+03  0.00000000000E+00 0.  1.
         13    1    4    4    0    0  0.14380751591E+03  0.71361878599E+02  0.21557256354E+03  0.26878364812E+03  0.00000000000E+00 0. -1.
          3    1    1    2  501    0 -0.41687959783E+02 -0.21760343145E+03  0.45215770622E+03  0.50352331690E+03  0.00000000000E+00 0. -1.
<scales pt_clust_5="13000.00000" pt_clust_6="13000.00000" pt_clust_7="13000.00000" pt_clust_8="13000.00000" pt_clust_9="201.26318"></scales>
<clustering>
<clus scale="   81.070">  5  6 -1 -1</clus>
<clus scale="   92.088">  7  8 -1 -1</clus>
<clus scale="  168.799">  2  5  1 -1</clus>
<clus scale="  201.263">  1  9  2 -1</clus>
<clus scale="  201.263">  1  5  2 -1</clus>
</clustering>
</event>
<event>
 9    2  0.9254368E-005  0.1450218E+03  0.7546771E-02  0.1214430E+00
         21   -1    0    0  501  502  0.00000000000E+00  0.00000000000E+00  0.19536491429E+03  0.19536491429E+03  0.00000000000E+00 0.  1.
          2   -1    0    0  502    0 -0.00000000000E+00 -0.00000000000E+00 -0.30109124900E+03  0.30109124900E+03  0.00000000000E+00 0. -1.
         23    2    1    2    0    0 -0.76735418586E+02  0.32225996758E+02 -0.88635165960E+02  0.15164680923E+03  0.90629591046E+02 0.  0.
         24    2    1    2    0    0 -0.31460620624E+02  0.10269251245E+03  0.69516401210E+02  0.15139203787E+03  0.80941314110E+02 0.  0.
        -13    1    4    4    0    0 -0.11922671922E+02  0.11082394550E+03  0.67075384487E+02  0.13008921633E+03  0.00000000000E+00 0.  1.
         14    1    4    4    0    0 -0.19537948702E+02 -0.81314330481E+01  0.24410167228E+01  0.21302821539E+02  0.00000000000E+00 0. -1.
        -11    1    3    3    0    0 -0.48362243766E+02  0.63719367937E+02 -0.65274965909E+02  0.10324672221E+03  0.00000000000E+00 0.  1.
         11    1    3    3    0    0 -0.28373174820E+02 -0.31493371179E+02 -0.23360200051E+02  0.48400087024E+02  0.00000000000E+00 0. -1.
          1    1    1    2  501    0  0.10819603921E+03 -0.13491850921E+03 -0.86607569961E+02  0.19341731619E+03  0.00000000000E+00 0. -1.
<scales pt_clust_5="13000.00000" pt_clust_6="13000.00000" pt_clust_7="13000.00000" pt_clust_8="13000.00000" pt_clust_9="120.33216"></scales>
<clustering>
<clus scale="   80.941">  5  6 -1 -1</clus>
<clus scale="   90.630">  7  8 -1 -1</clus>
<clus scale="  123.047">  2  7  1 -1</clus>
<clus scale="  120.332">  1  9  2 -1</clus>
<clus scale="  120.332">  1  5  2 -1</clus>
</clustering>
</event>
<event>
 9    2  0.9254368E-005  0.1950733E+03  0.7546771E-02  0.1186699E+00
         -1   -1    0    0    0  501 -0.00000000000E+00  0.00000000000E+00  0.18099969446E+03  0.18099969446E+03  0.00000000000E+00 0.  1.
         21   -1    0    0  501  502  0.00000000000E+00 -0.00000000000E+00 -0.33067843553E+03  0.33067843553E+03  0.00000000000E+00 0.  1.
         24    2    1    2    0    0 -0.51642644859E+01 -0.46111436708E+02  0.18080358366E+02  0.94039815560E+02  0.79772509858E+02 0.  0.
         23    2    1    2    0    0  0.14781449710E+02 -0.15352705713E+03 -0.10792004184E+03  0.20900291165E+03  0.90809873489E+02 0.  0.
        -11    1    3    3    0    0 -0.76604271012E+01 -0.59277787757E+02  0.37414788087E+02  0.70515279425E+02  0.00000000000E+00 0.  1.
         12    1    3    3    0    0  0.24961626153E+01  0.13166351049E+02 -0.19334429721E+02  0.23524536135E+02  0.00000000000E+00 0. -1.
        -13    1    4    4    0    0  0.47458968253E+02 -0.10205485979E+03 -0.93575838193E+02  0.14636934641E+03  0.00000000000E+00 0.  1.
         13    1    4    4    0    0 -0.32677518543E+02 -0.51472197342E+02 -0.14344203645E+02  0.62633565247E+02  0.00000000000E+00 0. -1.
         -2    1    1    2    0  502 -0.96171852240E+01  0.19963849384E+03 -0.59839057598E+02  0.20863540277E+03  0.00000000000E+00 0.  1.
<scales pt_clust_5="13000.00000" pt_clust_6="13000.00000" pt_clust_7="13000.00000" pt_clust_8="13000.00000" pt_clust_9="172.64764"></scales>
<clustering>
<clus scale="   79.773">  5  6 -1 -1</clus>
<clus scale="   90.810">  7  8 -1 -1</clus>
<clus scale="   92.285">  1  5  2 -1</clus>
<clus scale="  172.648">  2  9  1 -1</clus>
<clus scale="  172.648">  2  5  1 -1</clus>
</clustering>
</event>
<event>
 9    2  0.9254368E-005  0.1701861E+03  0.7546771E-02  0.1179435E+00
          2   -1    0    0  502    0 -0.00000000000E+00  0.00000000000E+00  0.12069226484E+03  0.12069226484E+03  0.00000000000E+00 0. -1.
         21   -1    0    0  501  502  0.00000000000E+00 -0.00000000000E+00 -0.46620068887E+03  0.46620068887E+03  0.00000000000E+00 0.  1.
         24    2    1    2    0    0 -0.49123757796E+02  0.12592000683E+03 -0.58243433243E+02  0.16657433080E+03  0.78011015033E+02 0.  0.
         23    2    1    2    0    0  0.47654885388E+02 -0.16347012413E+03 -0.31779829114E+03  0.37189908835E+03  0.91212436008E+02 0.  0.
        -11    1    3    3    0    0 -0.23749586395E+02  0.39882557478E+02  0.17061113272E+02  0.49454452084E+02  0.00000000000E+00 0.  1.
         12    1    3    3    0    0 -0.25374171402E+02  0.86037449352E+02 -0.75304546515E+02  0.11711987872E+03  0.00000000000E+00 0. -1.
        -11    1    4    4    0    0  0.22061964586E+02 -0.16098092964E+03 -0.29810069998E+03  0.33950790464E+03  0.00000000000E+00 0.  1.
         11    1    4    4    0    0  0.25592920802E+02 -0.24891944855E+01 -0.19697591164E+02  0.32391183708E+02  0.00000000000E+00 0. -1.
          1    1    1    2  501    0  0.14688724084E+01  0.37550117299E+02  0.30533300358E+02  0.48419534550E+02  0.00000000000E+00 0. -1.
<scales pt_clust_5="13000.00000" pt_clust_6="13000.00000" pt_clust_7="13000.00000" pt_clust_8="13000.00000" pt_clust_9="37.57885"></scales>
<clustering>
<clus scale="   37.579">  2  9  1 -1</clus>
<clus scale="   78.011">  5  6 -1 -1</clus>
<clus scale="   91.212">  7  8 -1 -1</clus>
<clus scale="  163.491">  1  5  2 -1</clus>
<clus scale="   37.579">  2  5  1 -1</clus>
</clustering>
</event>
<event>
 9    2  0.9254368E-005  0.3901564E+03  0.7546771E-02  0.1063560E+00
         21   -1    0    0  501  502  0.00000000000E+00  0.00000000000E+00  0.32700462679E+03  0.32700462679E+03  0.00000000000E+00 0. -1.
          2   -1    0    0  502    0 -0.00000000000E+00 -0.00000000000E+00 -0.99694117088E+03  0.99694117088E+03  0.00000000000E+00 0. -1.
         24    2    1    2    0    0 -0.12456985811E+03 -0.19690169192E+03  0.39546308020E+02  0.24927177123E+03  0.79275340566E+02 0.  0.
         23    2    1    2    0    0 -0.27321917614E+03 -0.54152619948E+02 -0.45097169976E+03  0.53793163090E+03  0.91726447037E+02 0.  0.
        -13    1    3    3    0    0 -0.13468410479E+02 -0.38743396864E+02  0.38103875609E+02  0.55985303588E+02  0.00000000000E+00 0.  1.
         14    1    3    3    0    0 -0.11110144763E+03 -0.15815829506E+03  0.14424324102E+01  0.19328646764E+03  0.00000000000E+00 0. -1.
        -13    1    4    4    0    0 -0.51583698656E+02 -0.47261391059E+02 -0.13298923040E+03  0.15026860102E+03  0.00000000000E+00 0. -1.
         13    1    4    4    0    0 -0.22163547748E+03 -0.68912288885E+01 -0.31798246936E+03  0.38766302988E+03  0.00000000000E+00 0.  1.
          1    1    1    2  501    0  0.39778903425E+03  0.25105431187E+03 -0.25851115235E+03  0.53674239554E+03  0.00000000000E+00 0. -1.
<scales pt_clust_5="13000.00000" pt_clust_6="13000.00000" pt_clust_7="13000.00000" pt_clust_8="13000.00000" pt_clust_9="379.22063"></scales>
<clustering>
<clus scale="   79.275">  5  6 -1 -1</clus>
<clus scale="   91.726">  7  8 -1 -1</clus>
<clus scale="  246.115">  2  5  1 -1</clus>
<clus scale="  379.221">  1  9  2 -1</clus>
<clus scale="  379.221">  1  5  2 -1</clus>
</clustering>
</event>
<event>
 9    2  0.9254368E-005  0.1006733E+03  0.7546771E-02  0.1285487E+00
         -3   -1    0    0    0  501 -0.00000000000E+00  0.00000000000E+00  0.28858120313E+02  0.28858120313E+02  0.00000000000E+00 0.  1.
         21   -1    0    0  501  502  0.00000000000E+00 -0.00000000000E+00 -0.86549765782E+03  0.86549765782E+03  0.00000000000E+00 0.  1.
         24    2    1    2    0    0 -0.30543708398E+02  0.11271696114E+02 -0.14093785763E+03  0.16507927830E+03  0.79546961956E+02 0.  0.
         23    2    1    2    0    0 -0.11366149437E+01 -0.72923145177E+02 -0.22995474802E+03  0.25839992514E+03  0.92586490256E+02 0.  0.
        -13    1    3    3    0    0 -0.28438821799E+02  0.29740298081E+02 -0.14058961297E+03  0.14648785338E+03  0.00000000000E+00 0.  1.
         14    1    3    3    0    0 -0.21048865983E+01 -0.18468601967E+02 -0.34824466355E+00  0.18591424920E+02  0.00000000000E+00 0. -1.
        -13    1    4    4    0    0  0.33678820890E+02  0.26087933599E+01 -0.81735388650E+02  0.88440615879E+02  0.00000000000E+00 0. -1.
         13    1    4    4    0    0 -0.34815435834E+02 -0.75531938537E+02 -0.14821935937E+03  0.16995930926E+03  0.00000000000E+00 0.  1.
         -4    1    1    2    0  502  0.31680323341E+02  0.61651449064E+02 -0.46574693186E+03  0.47087657470E+03  0.00000000000E+00 0.  1.
<scales pt_clust_5="13000.00000" pt_clust_6="13000.00000" pt_clust_7="13000.00000" pt_clust_8="13000.00000" pt_clust_9="69.31482"></scales>
<clustering>
<clus scale="   69.315">  2  9  1 -1</clus>
<clus scale="   79.547">  5  6 -1 -1</clus>
<clus scale="   88.829">  1  5  2 -1</clus>
<clus scale="   92.586">  7  8 -1 -1</clus>
<clus scale="   69.315">  2  5  1 -1</clus>
</clustering>
</event>
<event>
 9    2  0.9254368E-005  0.9357085E+02  0.7546771E-02  0.1300413E+00
          2   -1    0    0  502    0 -0.00000000000E+00  0.00000000000E+00  0.91645150444E+03  0.91645150444E+03  0.00000000000E+00 0. -1.
         21   -1    0    0  501  502  0.00000000000E+00 -0.00000000000E+00 -0.30152671727E+02  0.30152671727E+02  0.00000000000E+00 0. -1.
         24    2    1    2    0    0 -0.27799755732E+02 -0.10644491241E+02  0.61880301282E+03  0.62482722041E+03  0.81275796355E+02 0.  0.
         23    2    1    2    0    0 -0.38970102756E+01 -0.35402018953E+02  0.24045563163E+03  0.25967914696E+03  0.91355672787E+02 0.  0.
        -13    1    3    3    0    0 -0.42983780768E+02  0.86324943875E+01  0.17720370891E+03  0.18254665108E+03  0.00000000000E+00 0.  1.
         14    1    3    3    0    0  0.15184025036E+02 -0.19276985629E+02  0.44159930391E+03  0.44228056933E+03  0.00000000000E+00 0. -1.
        -13    1    4    4    0    0  0.32201767966E+02 -0.43069327577E+02  0.18801725535E+03  0.19555666480E+03  0.00000000000E+00 0.  1.
         13    1    4    4    0    0 -0.36098778242E+02  0.76673086237E+01  0.52438376277E+02  0.64122482163E+02  0.00000000000E+00 0. -1.
          1    1    1    2  501    0  0.31696766007E+02  0.46046510194E+02  0.27040188268E+02  0.62097808802E+02  0.00000000000E+00 0. -1.
<scales pt_clust_5="13000.00000" pt_clust_6="13000.00000" pt_clust_7="13000.00000" pt_clust_8="13000.00000" pt_clust_9="55.90140"></scales>
<clustering>
<clus scale="   55.901">  2  9  1 -1</clus>
<clus scale="   81.276">  5  6 -1 -1</clus>
<clus scale="   83.758">  1  5  2 -1</clus>
<clus scale="   91.356">  7  8 -1 -1</clus>
<clus scale="   55.901">  2  5  1 -1</clus>
</clustering>
</event>
<event>
 9    2  0.9254368E-005  0.1009836E+03  0.7546771E-02  0.1283153E+00
         -1   -1    0    0    0  501 -0.00000000000E+00  0.00000000000E+00  0.68822048902E+02  0.68822048902E+02  0.00000000000E+00 0.  1.
         21   -1    0    0  501  502  0.00000000000E+00 -0.00000000000E+00 -0.26911044114E+03  0.26911044114E+03  0.00000000000E+00 0. -1.
         23    2    1    2    0    0  0.17060646047E+02 -0.48740087188E+02 -0.81655239295E+01  0.10505053641E+03  0.91116835304E+02 0.  0.
         24    2    1    2    0    0 -0.27600846193E-01  0.18021226026E+02 -0.17525220917E+03  0.19391540132E+03  0.81025185584E+02 0.  0.
        -11    1    4    4    0    0  0.10919712601E+02 -0.25768284913E+02 -0.26785539011E+02  0.38738994963E+02  0.00000000000E+00 0.  1.
         12    1    4    4    0    0 -0.10947313448E+02  0.43789510940E+02 -0.14846667016E+03  0.15517640636E+03  0.00000000000E+00 0. -1.
        -11    1    3    3    0    0 -0.91197869191E+01 -0.59247695176E+02 -0.32149802045E+02  0.68022567348E+02  0.00000000000E+00 0.  1.
         11    1    3    3    0    0  0.26180432966E+02  0.10507607988E+02  0.23984278116E+02  0.37027969059E+02  0.00000000000E+00 0. -1.
         -2    1    1    2    0  502 -0.17033045201E+02  0.30718861161E+02 -0.16870659135E+02  0.38966552318E+02  0.00000000000E+00 0.  1.
<scales pt_clust_5="13000.00000" pt_clust_6="13000.00000" pt_clust_7="13000.00000" pt_clust_8="13000.00000" pt_clust_9="35.12512"></scales>
<clustering>
<clus scale="   35.125">  2  9  1 -1</clus>
<clus scale="   81.025">  5  6 -1 -1</clus>
<clus scale="   91.117">  7  8 -1 -1</clus>
<clus scale="   91.981">  2  5  1 -1</clus>
<clus scale="   35.125">  2  5  1 -1</clus>
</clustering>
</event>
<event>
 9    2  0.9254368E-005  0.1168934E+03  0.7546771E-02  0.1250870E+00
         21   -1    0    0  501  502  0.00000000000E+00  0.00000000000E+00  0.19328532664E+03  0.19328532664E+03  0.00000000000E+00 0. -1.
          2   -1    0    0  502    0 -0.00000000000E+00 -0.00000000000E+00 -0.19269621278E+03  0.19269621278E+03  0.00000000000E+00 0. -1.
         24    2    1    2    0    0 -0.54465318394E+02  0.18774212503E+01 -0.18463884465E+02  0.10082921654E+03  0.82798673058E+02 0.  0.
         23    2    1    2    0    0  0.13607356145E+03 -0.10769607655E+02  0.80632663304E+02  0.18253150894E+03  0.90466163786E+02 0.  0.
        -13    1    3    3    0    0 -0.10145452409E+02 -0.20622478227E+02  0.25601605692E+02  0.34404346045E+02  0.00000000000E+00 0.  1.
         14    1    3    3    0    0 -0.44319865985E+02  0.22499899478E+02 -0.44065490156E+02  0.66424870494E+02  0.00000000000E+00 0. -1.
        -13    1    4    4    0    0  0.57756261107E+02 -0.19868541160E+02 -0.10556098992E+02  0.61983674067E+02  0.00000000000E+00 0.  1.
         13    1    4    4    0    0  0.78317300343E+02  0.90989335046E+01  0.91188762296E+02  0.12054783487E+03  0.00000000000E+00 0. -1.
          1    1    1    2  501    0 -0.81608243057E+02  0.88921864050E+01 -0.61579664987E+02  0.10262081394E+03  0.00000000000E+00 0. -1.
<scales pt_clust_5="13000.00000" pt_clust_6="13000.00000" pt_clust_7="13000.00000" pt_clust_8="13000.00000" pt_clust_9="82.09131"></scales>
<clustering>
<clus scale="   82.091">  1  9  2 -1</clus>
<clus scale="   82.799">  5  6 -1 -1</clus>
<clus scale="   90.466">  7  8 -1 -1</clus>
<clus scale="  111.066">  2  5  1 -1</clus>
<clus scale="   82.091">  1  5  2 -1</clus>
</clustering>
</event>
<event>
 9    2  0.9254368E-005  0.2197658E+03  0.7546771E-02  0.1145702E+00
         21   -1    0    0  501  502  0.00000000000E+00  0.00000000000E+00  0.42235382563E+03  0.42235382563E+03  0.00000000000E+00 0. -1.
         -3   -1    0    0    0  501 -0.00000000000E+00 -0.00000000000E+00 -0.52261403824E+03  0.52261403824E+03  0.00000000000E+00 0.  1.
         23    2    1    2    0    0 -0.12334347956E+03  0.88607409307E+01  0.30364961546E+03  0.34603394094E+03  0.11065384147E+03 0.  0.
         24    2    1    2    0    0 -0.71286954580E+02 -0.16034681108E+03 -0.20681182810E+03  0.28321782112E+03  0.81536937909E+02 0.  0.
        -13    1    4    4    0    0 -0.34580660096E+02 -0.14322862772E+03 -0.13050917308E+03  0.19683217753E+03  0.00000000000E+00 0.  1.
         14    1    4    4    0    0 -0.36706294484E+02 -0.17118183353E+02 -0.76302655025E+02  0.86385643598E+02  0.00000000000E+00 0. -1.
        -11    1    3    3    0    0  0.13604215742E+02  0.21136708204E+02  0.76366494991E+02  0.80396994203E+02  0.00000000000E+00 0.  1.
         11    1    3    3    0    0 -0.13694769530E+03 -0.12275967273E+02  0.22728312047E+03  0.26563694674E+03  0.00000000000E+00 0. -1.
         -4    1    1    2    0  502  0.19463043414E+03  0.15148607014E+03 -0.19709799997E+03  0.31571610180E+03  0.00000000000E+00 0.  1.
<scales pt_clust_5="13000.00000" pt_clust_6="13000.00000" pt_clust_7="13000.00000" pt_clust_8="13000.00000" pt_clust_9="204.08027"></scales>
<clustering>
<clus scale="   81.537">  5  6 -1 -1</clus>
<clus scale="  110.654">  7  8 -1 -1</clus>
<clus scale="  165.941">  2  7  1 -1</clus>
<clus scale="  204.080">  1  9  2 -1</clus>
<clus scale="  204.080">  1  5  2 -1</clus>
</clustering>
</event>
<event>
 9    2  0.9254368E-005  0.1483624E+03  0.7546771E-02  0.1220421E+00
         -3   -1    0    0    0  501 -0.00000000000E+00  0.00000000000E+00  0.67665171302E+02  0.67665171302E+02  0.00000000000E+00 0.  1.
         21   -1    0    0  501  502  0.00000000000E+00 -0.00000000000E+00 -0.61125485768E+03  0.61125485768E+03  0.00000000000E+00 0.  1.
         24    2    1    2    0    0  0.63001599571E+01  0.56117733378E+02 -0.40783551764E+02  0.10918484800E+03  0.84078183396E+02 0.  0.
         23    2    1    2    0    0 -0.65282375186E+02  0.64330898026E+02 -0.24181541091E+03  0.27630216924E+03  0.97303354637E+02 0.  0.
        -11    1    3    3    0    0 -0.29511475514E+02  0.49772702958E+02 -0.48644411954E+01  0.58068166278E+02  0.00000000000E+00 0.  1.
         12    1    3    3    0    0  0.35811635471E+02  0.63450304195E+01 -0.35919110569E+02  0.51116681721E+02  0.00000000000E+00 0. -1.
        -11    1    4    4    0    0 -0.55731975366E+02  0.87096348100E+02 -0.22106463953E+03  0.24405204728E+03  0.00000000000E+00 0.  1.
         11    1    4    4    0    0 -0.95503998201E+01 -0.22765450074E+02 -0.20750771383E+02  0.32250121966E+02  0.00000000000E+00 0. -1.
         -4    1    1    2    0  502  0.58982215229E+02 -0.12044863140E+03 -0.26099072371E+03  0.29343301174E+03  0.00000000000E+00 0.  1.
<scales pt_clust_5="13000.00000" pt_clust_6="13000.00000" pt_clust_7="13000.00000" pt_clust_8="13000.00000" pt_clust_9="111.99762"></scales>
<clustering>
<clus scale="   84.078">  5  6 -1 -1</clus>
<clus scale="   97.303">  7  8 -1 -1</clus>
<clus scale="  101.282">  1  5  2 -1</clus>
<clus scale="  111.998">  2  9  1 -1</clus>
<clus scale="  111.998">  2  5  1 -1</clus>
</clustering>
</event>
<event>
 9    2  0.9254368E-005  0.1687230E+03  0.7546771E-02  0.1180795E+00
         21   -1    0    0  501  502  0.00000000000E+00  0.00000000000E+00  0.91784009316E+02  0.91784009316E+02  0.00000000000E+00 0. -1.
         -3   -1    0    0    0  501 -0.00000000000E+00 -0.00000000000E+00 -0.52474423115E+03  0.52474423115E+03  0.00000000000E+00 0.  1.
         24    2    1    2    0    0  0.93562882118E+02 -0.12260385640E+03 -0.19117389730E+03  0.25836620438E+03  0.80124391069E+02 0.  0.
         23    2    1    2    0    0 -0.48691644490E+02  0.11334411803E+03 -0.50985893231E+02  0.16193773762E+03  0.91686990476E+02 0.  0.
        -11    1    3    3    0    0 -0.28520889468E+01 -0.57107142107E+02 -0.59703041881E+02  0.82666881524E+02  0.00000000000E+00 0.  1.
         12    1    3    3    0    0  0.96414971065E+02 -0.65496714291E+02 -0.13147085542E+03  0.17569932286E+03  0.00000000000E+00 0. -1.
        -13    1    4    4    0    0 -0.11396676693E+02  0.10886559284E+03 -0.57765774652E+02  0.12376787251E+03  0.00000000000E+00 0.  1.
         13    1    4    4    0    0 -0.37294967797E+02  0.44785251919E+01  0.67798814206E+01  0.38169865116E+02  0.00000000000E+00 0. -1.
         -4    1    1    2    0  502 -0.44871237628E+02  0.92597383670E+01 -0.19080043130E+03  0.19622429846E+03  0.00000000000E+00 0.  1.
<scales pt_clust_5="13000.00000" pt_clust_6="13000.00000" pt_clust_7="13000.00000" pt_clust_8="13000.00000" pt_clust_9="45.81673"></scales>
<clustering>
<clus scale="   45.817">  1  9  2 -1</clus>
<clus scale="   80.124">  5  6 -1 -1</clus>
<clus scale="   91.687">  7  8 -1 -1</clus>
<clus scale="  162.729">  2  5  1 -1</clus>
<clus scale="   45.817">  1  5  2 -1</clus>
</clustering>
</event>
<event>
 9    2  0.9254368E-005  0.1461338E+03  0.7546771E-02  0.1225861E+00
         21   -1    0    0  501  502  0.00000000000E+00  0.00000000000E+00  0.10510756146E+03  0.10510756146E+03  0.00000000000E+00 0. -1.
          2   -1    0    0  502    0 -0.00000000000E+00 -0.00000000000E+00 -0.31840574794E+03  0.31840574794E+03  0.00000000000E+00 0. -1.
         23    2    1    2    0    0  0.24943921310E+02 -0.37682882778E+01 -0.34965207440E+02  0.10085635561E+03  0.91175871415E+02 0.  0.
         24    2    1    2    0    0 -0.12343501420E+03 -0.50159534534E+02 -0.92668844291E+02  0.18142293015E+03  0.81083803846E+02 0.  0.
        -13    1    4    4    0    0 -0.35086481174E+02  0.46189592909E+01 -0.64744343298E+02  0.73784998036E+02  0.00000000000E+00 0.  1.
         14    1    4    4    0    0 -0.88348533029E+02 -0.54778493825E+02 -0.27924500993E+02  0.10763793211E+03  0.00000000000E+00 0. -1.
        -13    1    3    3    0    0  0.50369134991E+02  0.12044369504E+02  0.37376132156E+01  0.51923851446E+02  0.00000000000E+00 0. -1.
         13    1    3    3    0    0 -0.25425213681E+02 -0.15812657782E+02 -0.38702820655E+02  0.48932504161E+02  0.00000000000E+00 0.  1.
          1    1    1    2  501    0  0.98491092894E+02  0.53927822812E+02 -0.85664134751E+02  0.14123402365E+03  0.00000000000E+00 0. -1.
<scales pt_clust_5="13000.00000" pt_clust_6="13000.00000" pt_clust_7="13000.00000" pt_clust_8="13000.00000" pt_clust_9="121.57506"></scales>
<clustering>
<clus scale="   81.084">  5  6 -1 -1</clus>
<clus scale="   91.176">  7  8 -1 -1</clus>
<clus scale="   94.602">  2  7  1 -1</clus>
<clus scale="  121.575">  1  9  2 -1</clus>
<clus scale="  121.575">  1  5  2 -1</clus>
</clustering>
</event>
<event>
 9    2  0.9782732E-005  0.1059870E+03  0.7546771E-02  0.1273770E+00
         -3   -1    0    0    0  501 -0.00000000000E+00  0.00000000000E+00  0.31631802233E+03  0.31631802233E+03  0.00000000000E+00 0.  1.
         21   -1    0    0  501  502  0.00000000000E+00 -0.00000000000E+00 -0.91363358642E+02  0.91363358642E+02  0.00000000000E+00 0. -1.
         23    2    1    2    0    0 -0.50622579607E+02  0.23446129962E+02  0.26409052813E+03  0.28494249412E+03  0.91301978771E+02 0.  0.
         24    2    1    2    0    0  0.30753859562E+02 -0.28055792147E+02 -0.47456537200E+02  0.10071052748E+03  0.78470122155E+02 0.  0.
        -11    1    4    4    0    0  0.63588765539E+01  0.26000575820E+02 -0.37260414083E+01  0.27024963248E+02  0.00000000000E+00 0.  1.
         12    1    4    4    0    0  0.24394983008E+02 -0.54056367967E+02 -0.43730495791E+02  0.73685564230E+02  0.00000000000E+00 0. -1.
        -13    1    3    3    0    0 -0.43070950262E+02 -0.28607231109E+02  0.99207723874E+02  0.11187337889E+03  0.00000000000E+00 0. -1.
         13    1    3    3    0    0 -0.75516293448E+01  0.52053361072E+02  0.16488280426E+03  0.17306911523E+03  0.00000000000E+00 0.  1.
         -4    1    1    2    0  502  0.19868720045E+02  0.46096621846E+01  0.83206727496E+01  0.22028359373E+02  0.00000000000E+00 0.  1.
<scales pt_clust_5="13000.00000" pt_clust_6="13000.00000" pt_clust_7="13000.00000" pt_clust_8="13000.00000" pt_clust_9="20.39645"></scales>
<clustering>
<clus scale="   20.396">  2  9  1 -1</clus>
<clus scale="   78.470">  5  6 -1 -1</clus>
<clus scale="   91.302">  7  8 -1 -1</clus>
<clus scale="   95.156">  2  5  1 -1</clus>
<clus scale="   20.396">  2  5  1 -1</clus>
</clustering>
</event>
<event>
 9    2  0.9254368E-005  0.2110442E+03  0.7546771E-02  0.1174166E+00
         -3   -1    0    0    0  501 -0.00000000000E+00  0.00000000000E+00  0.12737128599E+03  0.12737128599E+03  0.00000000000E+00 0.  1.
         21   -1    0    0  501  502  0.00000000000E+00 -0.00000000000E+00 -0.64050907068E+03  0.64050907068E+03  0.00000000000E+00 0. -1.
         24    2    1    2    0    0  0.44812189832E+02  0.18721132299E+01  0.19271499081E+02  0.98480415999E+02  0.85529904087E+02 0.  0.
         23    2    1    2    0    0 -0.20672118569E+03  0.21702724702E+02 -0.39075895744E+03  0.45298572933E+03  0.96430551600E+02 0.  0.
        -13    1    3    3    0    0  0.42320780200E+02 -0.36434140838E+02  0.72617906205E+00  0.55848208488E+02  0.00000000000E+00 0.  1.
         14    1    3    3    0    0  0.24914096316E+01  0.38306254068E+02  0.18545320018E+02  0.42632207511E+02  0.00000000000E+00 0. -1.
        -13    1    4    4    0    0 -0.13217993859E+03  0.28046697813E+02 -0.15493330421E+03  0.20557840882E+03  0.00000000000E+00 0.  1.
         13    1    4    4    0    0 -0.74541247103E+02 -0.63439731112E+01 -0.23582565324E+03  0.24740732050E+03  0.00000000000E+00 0. -1.
         -4    1    1    2    0  502  0.16190899586E+03 -0.23574837932E+02 -0.14165032633E+03  0.21641421135E+03  0.00000000000E+00 0.  1.
<scales pt_clust_5="13000.00000" pt_clust_6="13000.00000" pt_clust_7="13000.00000" pt_clust_8="13000.00000" pt_clust_9="187.72542"></scales>
<clustering>
<clus scale="   85.530">  5  6 -1 -1</clus>
<clus scale="   96.431">  7  8 -1 -1</clus>
<clus scale="   96.576">  1  5  2 -1</clus>
<clus scale="  187.725">  2  9  1 -1</clus>
<clus scale="  187.725">  2  5  1 -1</clus>
</clustering>
</event>
<event>
 9    2  0.9254368E-005  0.1243566E+03  0.7546771E-02  0.1240294E+00
         21   -1    0    0  501  502  0.00000000000E+00  0.00000000000E+00  0.57428182143E+02  0.57428182143E+02  0.00000000000E+00 0. -1.
          2   -1    0    0  502    0 -0.00000000000E+00 -0.00000000000E+00 -0.68970121108E+03  0.68970121108E+03  0.00000000000E+00 0. -1.
         23    2    1    2    0    0  0.27232101299E+02  0.94477063264E+02 -0.33557657495E+03  0.36196755641E+03  0.93495301581E+02 0.  0.
         24    2    1    2    0    0 -0.31942490985E+02 -0.23788448775E+02 -0.94548720146E+01  0.89312560311E+02  0.79379630883E+02 0.  0.
        -13    1    4    4    0    0  0.21899277748E+02  0.10946378040E+02  0.39666059840E+00  0.24485891810E+02  0.00000000000E+00 0.  1.
         14    1    4    4    0    0 -0.53841768734E+02 -0.34734826815E+02 -0.98515326130E+01  0.64826668502E+02  0.00000000000E+00 0. -1.
        -13    1    3    3    0    0 -0.20108137382E+02  0.71712221207E+02 -0.25602292353E+03  0.26663592638E+03  0.00000000000E+00 0. -1.
         13    1    3    3    0    0  0.47340238680E+02  0.22764842057E+02 -0.79553651412E+02  0.95331630035E+02  0.00000000000E+00 0.  1.
          1    1    1    2  501    0  0.47103896869E+01 -0.70688614489E+02 -0.28724158197E+03  0.29584927650E+03  0.00000000000E+00 0. -1.
<scales pt_clust_5="13000.00000" pt_clust_6="13000.00000" pt_clust_7="13000.00000" pt_clust_8="13000.00000" pt_clust_9="70.84542"></scales>
<clustering>
<clus scale="   70.845">  1  9  2 -1</clus>
<clus scale="   79.380">  5  6 -1 -1</clus>
<clus scale="   93.495">  7  8 -1 -1</clus>
<clus scale="  114.124">  1  5  2 -1</clus>
<clus scale="   70.845">  1  5  2 -1</clus>
</clustering>
</event>
<event>
 9    2  0.9254368E-005  0.1037343E+03  0.7546771E-02  0.1278075E+00
         21   -1    0    0  501  502  0.00000000000E+00  0.00000000000E+00  0.30516575810E+03  0.30516575810E+03  0.00000000000E+00 0.  1.
         -1   -1    0    0    0  501 -0.00000000000E+00 -0.00000000000E+00 -0.82889223255E+02  0.82889223255E+02  0.00000000000E+00 0.  1.
         24    2    1    2    0    0  0.37106238406E+02 -0.14940740542E+02  0.54695290651E+02  0.10584693721E+03  0.81313594435E+02 0.  0.
         23    2    1    2    0    0 -0.67479708729E+02 -0.10197665778E+02  0.20020287318E+03  0.23103522079E+03  0.92943958053E+02 0.  0.
        -13    1    3    3    0    0  0.24602588967E+00  0.31032793585E+02  0.25060593087E+02  0.39888947496E+02  0.00000000000E+00 0.  1.
         14    1    3    3    0    0  0.36860212516E+02 -0.45973534127E+02  0.29634697563E+02  0.65957989710E+02  0.00000000000E+00 0. -1.
        -11    1    4    4    0    0 -0.91041294760E+02 -0.11172309833E+02  0.15988834595E+03  0.18433019565E+03  0.00000000000E+00 0.  1.
         11    1    4    4    0    0  0.23561586031E+02  0.97464405496E+00  0.40314527231E+02  0.46705025139E+02  0.00000000000E+00 0. -1.
         -2    1    1    2    0  502  0.30373470323E+02  0.25138406320E+02 -0.32621628992E+02  0.51172823353E+02  0.00000000000E+00 0.  1.
<scales pt_clust_5="13000.00000" pt_clust_6="13000.00000" pt_clust_7="13000.00000" pt_clust_8="13000.00000" pt_clust_9="39.42701"></scales>
<clustering>
<clus scale="   39.427">  1  9  2 -1</clus>
<clus scale="   81.314">  5  6 -1 -1</clus>
<clus scale="   92.944">  7  8 -1 -1</clus>
<clus scale="   93.457">  2  5  1 -1</clus>
<clus scale="   39.427">  1  5  2 -1</clus>
</clustering>
</event>
<event>
 9    2  0.9254368E-005  0.1276978E+03  0.7546771E-02  0.1235732E+00
         21   -1    0    0  501  502  0.00000000000E+00  0.00000000000E+00  0.78458624542E+02  0.78458624542E+02  0.00000000000E+00 0. -1.
          2   -1    0    0  502    0 -0.00000000000E+00 -0.00000000000E+00 -0.39446972798E+03  0.39446972798E+03  0.00000000000E+00 0. -1.
         23    2    1    2    0    0  0.67621661162E+02 -0.89245481087E+02 -0.16790063218E+03  0.22317726282E+03  0.95289156797E+02 0.  0.
         24    2    1    2    0    0 -0.53916049771E+02  0.12868988630E+02 -0.17200693256E+02  0.97571648378E+02  0.78433484096E+02 0.  0.
        -11    1    4    4    0    0 -0.58296648890E+02 -0.97048567146E+01  0.12100292677E+02  0.60324958338E+02  0.00000000000E+00 0.  1.
         12    1    4    4    0    0  0.43805991190E+01  0.22573845344E+02 -0.29300985933E+02  0.37246690039E+02  0.00000000000E+00 0. -1.
        -13    1    3    3    0    0  0.63713706969E+02 -0.71713389616E+01 -0.84834929674E+02  0.10633828027E+03  0.00000000000E+00 0.  1.
         13    1    3    3    0    0  0.39079541938E+01 -0.82074142126E+02 -0.83065702504E+02  0.11683898255E+03  0.00000000000E+00 0. -1.
          1    1    1    2  501    0 -0.13705611391E+02  0.76376492458E+02 -0.13090977801E+03  0.15217944132E+03  0.00000000000E+00 0. -1.
<scales pt_clust_5="13000.00000" pt_clust_6="13000.00000" pt_clust_7="13000.00000" pt_clust_8="13000.00000" pt_clust_9="77.59651"></scales>
<clustering>
<clus scale="   77.597">  1  9  2 -1</clus>
<clus scale="   78.433">  5  6 -1 -1</clus>
<clus scale="   95.289">  7  8 -1 -1</clus>
<clus scale="  115.666">  1  5  2 -1</clus>
<clus scale="   77.597">  1  5  2 -1</clus>
</clustering>
</event>
<event>
 9    2  0.9254368E-005  0.1101381E+03  0.7546771E-02  0.1269168E+00
         -1   -1    0    0    0  501 -0.00000000000E+00  0.00000000000E+00  0.35925057244E+03  0.35925057244E+03  0.00000000000E+00 0.  1.
         21   -1    0    0  501  502  0.00000000000E+00 -0.00000000000E+00 -0.42746856449E+02  0.42746856449E+02  0.00000000000E+00 0. -1.
         23    2    1    2    0    0 -0.36107984475E+02  0.30965650590E+02  0.19712468460E+03  0.22593015332E+03  0.99617442443E+02 0.  0.
         24    2    1    2    0    0  0.50889845601E+02 -0.63865669967E+01  0.66482115363E+02  0.11589486916E+03  0.79882316006E+02 0.  0.
        -11    1    4    4    0    0 -0.26315262237E+01 -0.33690332445E+02  0.15864011665E+02  0.37331358088E+02  0.00000000000E+00 0.  1.
         12    1    4    4    0    0  0.53521371825E+02  0.27303765449E+02  0.50618103697E+02  0.78563511070E+02  0.00000000000E+00 0. -1.
        -11    1    3    3    0    0  0.31952108233E+02 -0.54184543810E+01  0.46412702365E+02  0.56607736302E+02  0.00000000000E+00 0. -1.
         11    1    3    3    0    0 -0.68060092707E+02  0.36384104971E+02  0.15071198224E+03  0.16932241702E+03  0.00000000000E+00 0.  1.
         -2    1    1    2    0  502 -0.14781861126E+02 -0.24579083593E+02  0.52896916021E+02  0.60172406410E+02  0.00000000000E+00 0.  1.
<scales pt_clust_5="13000.00000" pt_clust_6="13000.00000" pt_clust_7="13000.00000" pt_clust_8="13000.00000" pt_clust_9="28.68162"></scales>
<clustering>
<clus scale="   28.682">  2  9  1 -1</clus>
<clus scale="   79.882">  5  6 -1 -1</clus>
<clus scale="   92.671">  2  5  1 -1</clus>
<clus scale="   99.617">  7  8 -1 -1</clus>
<clus scale="   28.682">  2  5  1 -1</clus>
</clustering>
</event>
<event>
 9    2  0.9254368E-005  0.1906880E+03  0.7546771E-02  0.1182902E+00
         -3   -1    0    0    0  501 -0.00000000000E+00  0.00000000000E+00  0.42101164343E+02  0.42101164343E+02  0.00000000000E+00 0.  1.
         21   -1    0    0  501  502  0.00000000000E+00 -0.00000000000E+00 -0.16444661748E+04  0.16444661748E+04  0.00000000000E+00 0.  1.
         24    2    1    2    0    0 -0.38010349242E+01 -0.70991445676E+02 -0.12155486537E+03  0.16228832685E+03  0.80670208322E+02 0.  0.
         23    2    1    2    0    0  0.11623087601E+03 -0.79889210283E+02 -0.63958374857E+03  0.66226550213E+03  0.98164766671E+02 0.  0.
        -11    1    3    3    0    0 -0.14763470604E+02 -0.71930202557E+02 -0.47574495063E+02  0.87494266582E+02  0.00000000000E+00 0.  1.
         12    1    3    3    0    0  0.10962435680E+02  0.93875688190E+00 -0.73980370304E+02  0.74794060265E+02  0.00000000000E+00 0. -1.
        -11    1    4    4    0    0  0.41981446236E+02 -0.86339123643E+02 -0.39985398454E+03  0.41121781948E+03  0.00000000000E+00 0.  1.
         11    1    4    4    0    0  0.74249429777E+02  0.64499133605E+01 -0.23972976402E+03  0.25104768265E+03  0.00000000000E+00 0. -1.
         -4    1    1    2    0  502 -0.11242984109E+03  0.15088065596E+03 -0.84122639652E+03  0.86201351017E+03  0.00000000000E+00 0.  1.
<scales pt_clust_5="13000.00000" pt_clust_6="13000.00000" pt_clust_7="13000.00000" pt_clust_8="13000.00000" pt_clust_9="163.47975"></scales>
<clustering>
<clus scale="   80.670">  5  6 -1 -1</clus>
<clus scale="   98.165">  7  8 -1 -1</clus>
<clus scale="  107.526">  1  5  2 -1</clus>
<clus scale="  163.480">  2  9  1 -1</clus>
<clus scale="  163.480">  2  5  1 -1</clus>
</clustering>
</event>
<event>
 9    2  0.9254368E-005  0.9246334E+02  0.7546771E-02  0.1303931E+00
          4   -1    0    0  502    0 -0.00000000000E+00  0.00000000000E+00  0.70653660607E+02  0.70653660607E+02  0.00000000000E+00 0. -1.
         21   -1    0    0  501  502  0.00000000000E+00 -0.00000000000E+00 -0.33315589860E+03  0.33315589860E+03  0.00000000000E+00 0. -1.
         24    2    1    2    0    0 -0.16236410425E+02 -0.42197423784E+01  0.26694286337E+02  0.86404000539E+02  0.80446498599E+02 0.  0.
         23    2    1    2    0    0 -0.17877164762E+02 -0.92481210463E+01 -0.19796619543E+03  0.21907910105E+03  0.91651062292E+02 0.  0.
        -11    1    3    3    0    0  0.18180311256E+02  0.18130315822E+02 -0.13459980954E+02  0.28989707767E+02  0.00000000000E+00 0.  1.
         12    1    3    3    0    0 -0.34416721681E+02 -0.22350058201E+02  0.40154267291E+02  0.57414292772E+02  0.00000000000E+00 0. -1.
        -13    1    4    4    0    0  0.36103262468E+02  0.82910983212E+01 -0.81065994202E+02  0.89128465083E+02  0.00000000000E+00 0.  1.
         13    1    4    4    0    0 -0.53980427230E+02 -0.17539219368E+02 -0.11690020123E+03  0.12995063596E+03  0.00000000000E+00 0. -1.
          3    1    1    2  501    0  0.34113575187E+02  0.13467863425E+02 -0.91230328895E+02  0.98326457617E+02  0.00000000000E+00 0. -1.
<scales pt_clust_5="13000.00000" pt_clust_6="13000.00000" pt_clust_7="13000.00000" pt_clust_8="13000.00000" pt_clust_9="36.67587"></scales>
<clustering>
<clus scale="   36.676">  2  9  1 -1</clus>
<clus scale="   80.446">  5  6 -1 -1</clus>
<clus scale="   81.371">  1  5  2 -1</clus>
<clus scale="   91.651">  7  8 -1 -1</clus>
<clus scale="   36.676">  2  5  1 -1</clus>
</clustering>
</event>
<event>
 9    2  0.9254368E-005  0.1698021E+03  0.7546771E-02  0.1179987E+00
         21   -1    0    0  501  502  0.00000000000E+00  0.00000000000E+00  0.96423656951E+02  0.96423656951E+02  0.00000000000E+00 0.  1.
         -3   -1    0    0    0  501 -0.00000000000E+00 -0.00000000000E+00 -0.11126958831E+04  0.11126958831E+04  0.00000000000E+00 0.  1.
         24    2    1    2    0    0  0.14309734276E+03 -0.13291105543E+02 -0.78006015013E+03  0.79693168484E+03  0.77154192934E+02 0.  0.
         23    2    1    2    0    0 -0.14292910738E+03 -0.22652422065E+02 -0.29629065164E+03  0.34217785068E+03  0.91409350080E+02 0.  0.
        -11    1    3    3    0    0  0.10876315001E+03 -0.34715250199E+02 -0.67019125658E+03  0.67984622658E+03  0.00000000000E+00 0.  1.
         12    1    3    3    0    0  0.34334192754E+02  0.21424144656E+02 -0.10986889355E+03  0.11708545826E+03  0.00000000000E+00 0. -1.
        -13    1    4    4    0    0 -0.42673734012E+01  0.23947588467E+02 -0.52615721633E+02  0.57966469895E+02  0.00000000000E+00 0. -1.
         13    1    4    4    0    0 -0.13866173398E+03 -0.46600010532E+02 -0.24367493001E+03  0.28421138078E+03  0.00000000000E+00 0.  1.
         -4    1    1    2    0  502 -0.16823538597E+00  0.35943527608E+02  0.60078575647E+02  0.70010004513E+02  0.00000000000E+00 0.  1.
<scales pt_clust_5="13000.00000" pt_clust_6="13000.00000" pt_clust_7="13000.00000" pt_clust_8="13000.00000" pt_clust_9="35.94392"></scales>
<clustering>
<clus scale="   35.944">  1  9  2 -1</clus>
<clus scale="   77.154">  5  6 -1 -1</clus>
<clus scale="   91.409">  7  8 -1 -1</clus>
<clus scale="  162.573">  2  5  1 -1</clus>
<clus scale="   35.944">  1  5  2 -1</clus>
</clustering>
</event>
<event>
 9    2  0.9254368E-005  0.1823849E+03  0.7546771E-02  0.1180220E+00
          2   -1    0    0  502    0 -0.00000000000E+00  0.00000000000E+00  0.76975391384E+03  0.76975391384E+03  0.00000000000E+00 0. -1.
         21   -1    0    0  501  502  0.00000000000E+00 -0.00000000000E+00 -0.14966113336E+03  0.14966113336E+03  0.00000000000E+00 0. -1.
         24    2    1    2    0    0  0.86495953825E+02  0.55673069935E+02  0.45879860748E+03  0.47699916714E+03  0.80318132979E+02 0.  0.
         23    2    1    2    0    0 -0.73164003521E+02  0.12682251848E+03  0.19808164638E+03  0.25577264047E+03  0.68893993761E+02 0.  0.
        -13    1    3    3    0    0  0.46254421438E+02  0.28793497765E+02  0.91249880383E+02  0.10627830299E+03  0.00000000000E+00 0.  1.
         14    1    3    3    0    0  0.40241532387E+02  0.26879572169E+02  0.36754872710E+03  0.37072086416E+03  0.00000000000E+00 0. -1.
        -13    1    4    4    0    0 -0.28349513755E+02  0.90199512703E+02  0.16199379109E+03  0.18756768211E+03  0.00000000000E+00 0.  1.
         13    1    4    4    0    0 -0.44814489766E+02  0.36623005772E+02  0.36087855290E+02  0.68204958355E+02  0.00000000000E+00 0. -1.
          1    1    1    2  501    0 -0.13331950304E+02 -0.18249558841E+03 -0.36787473367E+02  0.18664323959E+03  0.00000000000E+00 0. -1.
<scales pt_clust_5="13000.00000" pt_clust_6="13000.00000" pt_clust_7="13000.00000" pt_clust_8="13000.00000" pt_clust_9="168.87238"></scales>
<clustering>
<clus scale="   68.894">  7  8 -1 -1</clus>
<clus scale="   80.318">  5  6 -1 -1</clus>
<clus scale="  130.507">  1  5  2 -1</clus>
<clus scale="  168.872">  2  9  1 -1</clus>
<clus scale="  168.872">  2  5  1 -1</clus>
</clustering>
</event>
<event>
 9    2  0.9254368E-005  0.4004258E+03  0.7546771E-02  0.1084853E+00
          2   -1    0    0  502    0 -0.00000000000E+00  0.00000000000E+00  0.12841239562E+04  0.12841239562E+04  0.00000000000E+00 0. -1.
         21   -1    0    0  501  502  0.00000000000E+00 -0.00000000000E+00 -0.27099020046E+03  0.27099020046E+03  0.00000000000E+00 0.  1.
         24    2    1    2    0    0  0.86123753226E+02 -0.13270601167E+02  0.18922877063E+03  0.22815932754E+03  0.93036236944E+02 0.  0.
         23    2    1    2    0    0  0.14742106744E+03 -0.35200954946E+03 -0.41877893869E+01  0.39223004884E+03  0.90460928548E+02 0.  0.
        -11    1    3    3    0    0  0.21965684709E+01 -0.39325704490E+02  0.52676287375E+02  0.65773301562E+02  0.00000000000E+00 0.  1.
         12    1    3    3    0    0  0.83927184756E+02  0.26055103324E+02  0.13655248325E+03  0.16238602598E+03  0.00000000000E+00 0. -1.
        -11    1    4    4    0    0  0.19944383643E+02 -0.16146474215E+03 -0.87928501411E+01  0.16292929635E+03  0.00000000000E+00 0.  1.
         11    1    4    4    0    0  0.12747668380E+03 -0.19054480731E+03  0.46050607542E+01  0.22930075249E+03  0.00000000000E+00 0. -1.
          1    1    1    2  501    0 -0.23354482067E+03  0.36528015063E+03  0.82809277447E+03  0.93472478026E+03  0.00000000000E+00 0. -1.
<scales pt_clust_5="13000.00000" pt_clust_6="13000.00000" pt_clust_7="13000.00000" pt_clust_8="13000.00000" pt_clust_9="390.07404"></scales>
<clustering>
<clus scale="   90.461">  7  8 -1 -1</clus>
<clus scale="   93.036">  5  6 -1 -1</clus>
<clus scale="  127.472">  1  5  2 -1</clus>
<clus scale="  390.074">  2  9  1 -1</clus>
<clus scale="  390.074">  2  5  1 -1</clus>
</clustering>
</event>
<event>
 9    2  0.9254368E-005  0.9368134E+02  0.7546771E-02  0.1297687E+00
          2   -1    0    0  502    0 -0.00000000000E+00  0.00000000000E+00  0.72214314700E+02  0.72214314700E+02  0.00000000000E+00 0. -1.
         21   -1    0    0  501  502  0.00000000000E+00 -0.00000000000E+00 -0.81223386632E+03  0.81223386632E+03  0.00000000000E+00 0. -1.
         23    2    1    2    0    0 -0.36530234096E+01  0.18715254606E+02  0.16188333921E+02  0.93557256997E+02  0.90151499414E+02 0.  0.
         24    2    1    2    0    0 -0.53922262563E+02 -0.64196232242E+02 -0.22256262711E+03  0.25222526267E+03  0.83992222888E+02 0.  0.
        -13    1    4    4    0    0 -0.37182345777E+02 -0.20761022467E+01 -0.15302322109E+03  0.15748950197E+03  0.00000000000E+00 0.  1.
         14    1    4    4    0    0 -0.16739916785E+02 -0.62120129996E+02 -0.69539406023E+02  0.94735760696E+02  0.00000000000E+00 0. -1.
        -11    1    3    3    0    0  0.32295425266E+02  0.14312904739E+02 -0.21447214430E+02  0.41325981440E+02  0.00000000000E+00 0.  1.
         11    1    3    3    0    0 -0.35948448676E+02  0.44023498662E+01  0.37635548351E+02  0.52231275556E+02  0.00000000000E+00 0. -1.
          1    1    1    2  501    0  0.57575285972E+02  0.45480977637E+02 -0.53364525843E+03  0.53866566135E+03  0.00000000000E+00 0. -1.
<scales pt_clust_5="13000.00000" pt_clust_6="13000.00000" pt_clust_7="13000.00000" pt_clust_8="13000.00000" pt_clust_9="73.37188"></scales>
<clustering>
<clus scale="   73.372">  2  9  1 -1</clus>
<clus scale="   83.992">  5  6 -1 -1</clus>
<clus scale="   87.770">  2  5  1 -1</clus>
<clus scale="   90.151">  7  8 -1 -1</clus>
<clus scale="   73.372">  2  5  1 -1</clus>
</clustering>
</event>
<event>
 9    2  0.9254368E-005  0.2049160E+03  0.7546771E-02  0.1178738E+00
         21   -1    0    0  501  502  0.00000000000E+00  0.00000000000E+00  0.58570848723E+03  0.58570848723E+03  0.00000000000E+00 0. -1.
          2   -1    0    0  502    0 -0.00000000000E+00 -0.00000000000E+00 -0.16409655785E+03  0.16409655785E+03  0.00000000000E+00 0. -1.
         24    2    1    2    0    0  0.15266379302E+02 -0.51350173591E+02 -0.49453054309E+02  0.10722300287E+03  0.78621021996E+02 0.  0.
         23    2    1    2    0    0  0.10595707339E+03  0.16517417779E+03  0.41512521727E+03  0.46713892642E+03  0.85909371735E+02 0.  0.
        -11    1    3    3    0    0 -0.14011712012E+02 -0.59081766734E+02 -0.47106376757E+02  0.76850464963E+02  0.00000000000E+00 0.  1.
         12    1    3    3    0    0  0.29278091315E+02  0.77315931429E+01 -0.23466775529E+01  0.30372537910E+02  0.00000000000E+00 0. -1.
        -11    1    4    4    0    0  0.79656892798E+00  0.61153014966E+02  0.78996756290E+02  0.99904020269E+02  0.00000000000E+00 0. -1.
         11    1    4    4    0    0  0.10516050446E+03  0.10402116282E+03  0.33612846098E+03  0.36723490615E+03  0.00000000000E+00 0.  1.
          1    1    1    2  501    0 -0.12122345269E+03 -0.11382400420E+03  0.55939766419E+02  0.17544311580E+03  0.00000000000E+00 0. -1.
<scales pt_clust_5="13000.00000" pt_clust_6="13000.00000" pt_clust_7="13000.00000" pt_clust_8="13000.00000" pt_clust_9="186.03811"></scales>
<clustering>
<clus scale="   78.621">  5  6 -1 -1</clus>
<clus scale="   85.909">  7  8 -1 -1</clus>
<clus scale="   95.138">  2  5  1 -1</clus>
<clus scale="  186.038">  1  9  2 -1</clus>
<clus scale="  186.038">  1  5  2 -1</clus>
</clustering>
</event>
<event>
 9    2  0.9254368E-005  0.1518652E+03  0.7546771E-02  0.1219084E+00
         -3   -1    0    0    0  501 -0.00000000000E+00  0.00000000000E+00  0.45970927501E+03  0.45970927501E+03  0.00000000000E+00 0.  1.
         21   -1    0    0  501  502  0.00000000000E+00 -0.00000000000E+00 -0.13672576105E+03  0.13672576105E+03  0.00000000000E+00 0.  1.
         24    2    1    2    0    0 -0.16721747985E+02 -0.48686559382E+02  0.22139081202E+03  0.24175784494E+03  0.82358764099E+02 0.  0.
         23    2    1    2    0    0  0.77896791041E+02 -0.47583728428E+02  0.17154245139E+03  0.22087389648E+03  0.10500640101E+03 0.  0.
        -13    1    3    3    0    0  0.13888623956E+02  0.15670424400E+02  0.88723437720E+02  0.91160871415E+02  0.00000000000E+00 0.  1.
         14    1    3    3    0    0 -0.30610371941E+02 -0.64356983782E+02  0.13266737430E+03  0.15059697353E+03  0.00000000000E+00 0. -1.
        -11    1    4    4    0    0  0.37787124133E+02  0.92261349423E+01  0.35529210277E+01  0.39059077870E+02  0.00000000000E+00 0. -1.
         11    1    4    4    0    0  0.40109666908E+02 -0.56809863370E+02  0.16798953036E+03  0.18181481861E+03  0.00000000000E+00 0.  1.
         -4    1    1    2    0  502 -0.61175043057E+02  0.96270287811E+02 -0.69949749451E+02  0.13380329464E+03  0.00000000000E+00 0.  1.
<scales pt_clust_5="13000.00000" pt_clust_6="13000.00000" pt_clust_7="13000.00000" pt_clust_8="13000.00000" pt_clust_9="109.71186"></scales>
<clustering>
<clus scale="   82.359">  5  6 -1 -1</clus>
<clus scale="   97.123">  1  5  2 -1</clus>
<clus scale="  105.006">  7  8 -1 -1</clus>
<clus scale="  109.712">  2  9  1 -1</clus>
<clus scale="  109.712">  2  5  1 -1</clus>
</clustering>
</event>
<event>
 9    2  0.9254368E-005  0.1778758E+03  0.7546771E-02  0.1192232E+00
         21   -1    0    0  501  502  0.00000000000E+00  0.00000000000E+00  0.10750545491E+03  0.10750545491E+03  0.00000000000E+00 0. -1.
          2   -1    0    0  502    0 -0.00000000000E+00 -0.00000000000E+00 -0.72633792339E+03  0.72633792339E+03  0.00000000000E+00 0. -1.
         23    2    1    2    0    0 -0.15176073160E+01  0.56240239124E+02 -0.24061193212E+02  0.11035998712E+03  0.91842899065E+02 0.  0.
         24    2    1    2    0    0  0.41791641935E+02 -0.19773218272E+03 -0.50760128754E+03  0.55248463467E+03  0.82070987705E+02 0.  0.
        -13    1    4    4    0    0  0.57326253106E+02 -0.12290291550E+03 -0.38313091187E+03  0.40642431222E+03  0.00000000000E+00 0.  1.
         14    1    4    4    0    0 -0.15534611171E+02 -0.74829267215E+02 -0.12447037567E+03  0.14606032246E+03  0.00000000000E+00 0. -1.
        -13    1    3    3    0    0  0.16756077811E+02  0.13355553383E+02  0.31334506175E+02  0.37960350723E+02  0.00000000000E+00 0. -1.
         13    1    3    3    0    0 -0.18273685127E+02  0.42884685741E+02 -0.55395699387E+02  0.72399636392E+02  0.00000000000E+00 0.  1.
          1    1    1    2  501    0 -0.40274034619E+02  0.14149194359E+03 -0.87169987729E+02  0.17099875651E+03  0.00000000000E+00 0. -1.
<scales pt_clust_5="13000.00000" pt_clust_6="13000.00000" pt_clust_7="13000.00000" pt_clust_8="13000.00000" pt_clust_9="157.81045"></scales>
<clustering>
<clus scale="   82.071">  5  6 -1 -1</clus>
<clus scale="   91.843">  7  8 -1 -1</clus>
<clus scale="  107.705">  2  7  1 -1</clus>
<clus scale="  157.810">  1  9  2 -1</clus>
<clus scale="  157.810">  1  5  2 -1</clus>
</clustering>
</event>
<event>
 9    2  0.9254368E-005  0.2272964E+03  0.7546771E-02  0.1145620E+00
          2   -1    0    0  502    0 -0.00000000000E+00  0.00000000000E+00  0.69997214898E+03  0.69997214898E+03  0.00000000000E+00 0. -1.
         21   -1    0    0  501  502  0.00000000000E+00 -0.00000000000E+00 -0.15060317539E+03  0.15060317539E+03  0.00000000000E+00 0. -1.
         23    2    1    2    0    0 -0.53312255988E+02  0.10676458343E+03  0.19877796346E+03  0.24919372173E+03  0.91345275075E+02 0.  0.
         24    2    1    2    0    0  0.23251551925E+03 -0.15884281096E+03  0.26905386422E+03  0.39772930702E+03  0.80648090668E+02 0.  0.
        -11    1    4    4    0    0  0.35238281964E+02 -0.25642763630E+02  0.77573616138E+01  0.44265838991E+02  0.00000000000E+00 0.  1.
         12    1    4    4    0    0  0.19727723728E+03 -0.13320004733E+03  0.26129650260E+03  0.35346346803E+03  0.00000000000E+00 0. -1.
        -13    1    3    3    0    0 -0.42268242411E+02  0.36083558659E+02  0.15654898750E+03  0.16612107937E+03  0.00000000000E+00 0.  1.
         13    1    3    3    0    0 -0.11044013577E+02  0.70681024774E+02  0.42228975961E+02  0.83072642367E+02  0.00000000000E+00 0. -1.
          1    1    1    2  501    0 -0.17920326326E+03  0.52078227526E+02  0.81537145909E+02  0.20365229561E+03  0.00000000000E+00 0. -1.
<scales pt_clust_5="13000.00000" pt_clust_6="13000.00000" pt_clust_7="13000.00000" pt_clust_8="13000.00000" pt_clust_9="212.50776"></scales>
<clustering>
<clus scale="   80.648">  5  6 -1 -1</clus>
<clus scale="   91.345">  7  8 -1 -1</clus>
<clus scale="  150.283">  1  7  2 -1</clus>
<clus scale="  212.508">  2  9  1 -1</clus>
<clus scale="  212.508">  2  5  1 -1</clus>
</clustering>
</event>
<event>
 9    2  0.9254368E-005  0.4124155E+03  0.7546771E-02  0.1039836E+00
          2   -1    0    0  502    0 -0.00000000000E+00  0.00000000000E+00  0.11447878329E+04  0.11447878329E+04  0.00000000000E+00 0. -1.
         21   -1    0    0  501  502  0.00000000000E+00 -0.00000000000E+00 -0.20929457442E+03  0.20929457442E+03  0.00000000000E+00 0. -1.
         23    2    1    2    0    0 -0.22457981129E+03  0.34011524390E+03  0.79670889770E+03  0.89997304854E+03  0.95351715514E+02 0.  0.
         24    2    1    2    0    0  0.18631828340E+03 -0.33586661421E+03  0.11497201650E+03  0.40884322231E+03  0.80083272807E+02 0.  0.
        -11    1    4    4    0    0  0.78659462946E+02 -0.86691401113E+02  0.61343432225E+02  0.13215796160E+03  0.00000000000E+00 0.  1.
         12    1    4    4    0    0  0.10765882046E+03 -0.24917521309E+03  0.53628584280E+02  0.27668526071E+03  0.00000000000E+00 0. -1.
        -11    1    3    3    0    0 -0.13572582283E+03  0.18562345549E+03  0.54530294715E+03  0.59180475698E+03  0.00000000000E+00 0.  1.
         11    1    3    3    0    0 -0.88853988461E+02  0.15449178842E+03  0.25140595054E+03  0.30816829156E+03  0.00000000000E+00 0. -1.
          1    1    1    2  501    0  0.38261527891E+02 -0.42486296965E+01  0.23812344273E+02  0.45266136467E+02  0.00000000000E+00 0. -1.
<scales pt_clust_5="13000.00000" pt_clust_6="13000.00000" pt_clust_7="13000.00000" pt_clust_8="13000.00000" pt_clust_9="38.49669"></scales>
<clustering>
<clus scale="   38.497">  2  9  1 -1</clus>
<clus scale="   80.083">  5  6 -1 -1</clus>
<clus scale="   95.352">  7  8 -1 -1</clus>
<clus scale="  409.155">  2  5  1 -1</clus>
<clus scale="   38.497">  2  5  1 -1</clus>
</clustering>
</event>
<event>
 9    2  0.9254368E-005  0.1504794E+03  0.7546771E-02  0.1201780E+00
          4   -1    0    0  502    0 -0.00000000000E+00  0.00000000000E+00  0.10631331552E+03  0.10631331552E+03  0.00000000000E+00 0. -1.
         21   -1    0    0  501  502  0.00000000000E+00 -0.00000000000E+00 -0.39405148809E+03  0.39405148809E+03  0.00000000000E+00 0. -1.
         24    2    1    2    0    0  0.29009495041E+02 -0.12236328384E+03  0.10283667275E+02  0.14980185394E+03  0.80749721959E+02 0.  0.
         23    2    1    2    0    0 -0.55645042614E+02  0.89099697411E+02 -0.19921484454E+03  0.24295839169E+03  0.91143288085E+02 0.  0.
        -11    1    3    3    0    0  0.42634705273E+02 -0.74521945039E+02 -0.24286870471E+02  0.89224943056E+02  0.00000000000E+00 0.  1.
         12    1    3    3    0    0 -0.13625210232E+02 -0.47841338799E+02  0.34570537746E+02  0.60576910882E+02  0.00000000000E+00 0. -1.
        -13    1    4    4    0    0 -0.76234246896E+02  0.65298459188E+02 -0.17996969554E+03  0.20606950402E+03  0.00000000000E+00 0. -1.
         13    1    4    4    0    0  0.20589204283E+02  0.23801238224E+02 -0.19245148992E+02  0.36888887672E+02  0.00000000000E+00 0.  1.
          3    1    1    2  501    0  0.26635547573E+02  0.33263586427E+02 -0.98806995307E+02  0.10760455798E+03  0.00000000000E+00 0. -1.
<scales pt_clust_5="13000.00000" pt_clust_6="13000.00000" pt_clust_7="13000.00000" pt_clust_8="13000.00000" pt_clust_9="42.61360"></scales>
<clustering>
<clus scale="   42.614">  2  9  1 -1</clus>
<clus scale="   80.750">  5  6 -1 -1</clus>
<clus scale="   91.143">  7  8 -1 -1</clus>
<clus scale="  144.421">  1  5  2 -1</clus>
<clus scale="   42.614">  2  5  1 -1</clus>
</clustering>
</event>
<event>
 9    2  0.9254368E-005  0.1031451E+03  0.7546771E-02  0.1277616E+00
         21   -1    0    0  501  502  0.00000000000E+00  0.00000000000E+00  0.64697603095E+02  0.64697603095E+02  0.00000000000E+00 0.  1.
         -1   -1    0    0    0  501 -0.00000000000E+00 -0.00000000000E+00 -0.28288269178E+03  0.28288269178E+03  0.00000000000E+00 0.  1.
         23    2    1    2    0    0  0.13010778996E+02  0.44598598608E+02 -0.17268974370E+03  0.19993710748E+03  0.89413556026E+02 0.  0.
         24    2    1    2    0    0  0.46108141658E+01 -0.69907599009E+02 -0.23087031722E+02  0.10952234598E+03  0.80955550943E+02 0.  0.
        -11    1    4    4    0    0 -0.14858455199E+02 -0.60182038187E+02  0.16676121664E+02  0.64193024894E+02  0.00000000000E+00 0.  1.
         12    1    4    4    0    0  0.19469269364E+02 -0.97255608221E+01 -0.39763153385E+02  0.45329321085E+02  0.00000000000E+00 0. -1.
        -11    1    3    3    0    0 -0.29545695970E+02  0.28345307501E+01 -0.19399984540E+02  0.35459020221E+02  0.00000000000E+00 0.  1.
         11    1    3    3    0    0  0.42556474966E+02  0.41764067858E+02 -0.15328975916E+03  0.16447808726E+03  0.00000000000E+00 0. -1.
         -2    1    1    2    0  502 -0.17621593162E+02  0.25309000401E+02 -0.22408313268E+02  0.38120841418E+02  0.00000000000E+00 0.  1.
<scales pt_clust_5="13000.00000" pt_clust_6="13000.00000" pt_clust_7="13000.00000" pt_clust_8="13000.00000" pt_clust_9="30.83936"></scales>
<clustering>
<clus scale="   30.839">  1  9  2 -1</clus>
<clus scale="   80.956">  5  6 -1 -1</clus>
<clus scale="   89.414">  7  8 -1 -1</clus>
<clus scale="   95.906">  1  5  2 -1</clus>
<clus scale="   30.839">  1  5  2 -1</clus>
</clustering>
</event>
<event>
 9    2  0.9254368E-005  0.2046467E+03  0.7546771E-02  0.1157043E+00
         21   -1    0    0  501  502  0.00000000000E+00  0.00000000000E+00  0.12381267198E+03  0.12381267198E+03  0.00000000000E+00 0. -1.
          2   -1    0    0  502    0 -0.00000000000E+00 -0.00000000000E+00 -0.77212275785E+03  0.77212275785E+03  0.00000000000E+00 0. -1.
         23    2    1    2    0    0  0.24450989587E+02 -0.12489197944E+03 -0.60924881654E+02  0.16857478073E+03  0.92248349973E+02 0.  0.
         24    2    1    2    0    0  0.12189507685E+03  0.21040545721E+03 -0.39695755025E+03  0.47242454449E+03  0.80503337531E+02 0.  0.
        -11    1    4    4    0    0  0.84353472480E+02  0.10997699142E+03 -0.28771120944E+03  0.31935589395E+03  0.00000000000E+00 0.  1.
         12    1    4    4    0    0  0.37541604366E+02  0.10042846579E+03 -0.10924634081E+03  0.15306865054E+03  0.00000000000E+00 0. -1.
        -11    1    3    3    0    0  0.35849713511E+02 -0.80664145870E+02 -0.79951349304E+02  0.11909712273E+03  0.00000000000E+00 0.  1.
         11    1    3    3    0    0 -0.11398723925E+02 -0.44227833572E+02  0.19026467650E+02  0.49477657996E+02  0.00000000000E+00 0. -1.
          1    1    1    2  501    0 -0.14634606643E+03 -0.85513477764E+02 -0.19042765397E+03  0.25493610462E+03  0.00000000000E+00 0. -1.
<scales pt_clust_5="13000.00000" pt_clust_6="13000.00000" pt_clust_7="13000.00000" pt_clust_8="13000.00000" pt_clust_9="188.14746"></scales>
<clustering>
<clus scale="   80.503">  5  6 -1 -1</clus>
<clus scale="   92.248">  7  8 -1 -1</clus>
<clus scale="  157.180">  2  7  1 -1</clus>
<clus scale="  188.147">  1  9  2 -1</clus>
<clus scale="  188.147">  1  5  2 -1</clus>
</clustering>
</event>
<event>
 9    2  0.1142400E-004  0.1040827E+03  0.7546771E-02  0.1274599E+00
          2   -1    0    0  502    0 -0.00000000000E+00  0.00000000000E+00  0.56988701916E+03  0.56988701916E+03  0.00000000000E+00 0. -1.
         21   -1    0    0  501  502  0.00000000000E+00 -0.00000000000E+00 -0.16466818455E+03  0.16466818455E+03  0.00000000000E+00 0.  1.
         23    2    1    2    0    0 -0.60679564197E+02 -0.55063018157E+01  0.17606598846E+03  0.20492278378E+03  0.85333382375E+02 0.  0.
         24    2    1    2    0    0  0.48505007958E+02 -0.58176820176E+02 -0.12700817700E+03  0.16761800827E+03  0.78914139840E+02 0.  0.
        -11    1    4    4    0    0  0.88519862405E+01 -0.57100223822E+02 -0.11041342431E+03  0.12461908958E+03  0.00000000000E+00 0.  1.
         12    1    4    4    0    0  0.39653021717E+02 -0.10765963544E+01 -0.16594752696E+02  0.42998918685E+02  0.00000000000E+00 0. -1.
        -13    1    3    3    0    0 -0.22975682305E+01 -0.36568524298E+02  0.83257403790E+02  0.90963350174E+02  0.00000000000E+00 0.  1.
         13    1    3    3    0    0 -0.58381995966E+02  0.31062222482E+02  0.92808584675E+02  0.11395943361E+03  0.00000000000E+00 0. -1.
          1    1    1    2  501    0  0.12174556239E+02  0.63683121992E+02  0.35616102315E+03  0.36201441167E+03  0.00000000000E+00 0. -1.
<scales pt_clust_5="13000.00000" pt_clust_6="13000.00000" pt_clust_7="13000.00000" pt_clust_8="13000.00000" pt_clust_9="64.83644"></scales>
<clustering>
<clus scale="   64.836">  2  9  1 -1</clus>
<clus scale="   78.914">  5  6 -1 -1</clus>
<clus scale="   85.333">  7  8 -1 -1</clus>
<clus scale="   98.888">  2  5  1 -1</clus>
<clus scale="   64.836">  2  5  1 -1</clus>
</clustering>
</event>
<event>
 9    2  0.9254368E-005  0.9833090E+02  0.7546771E-02  0.1289469E+00
          2   -1    0    0  502    0 -0.00000000000E+00  0.00000000000E+00  0.47342040442E+03  0.47342040442E+03  0.00000000000E+00 0. -1.
         21   -1    0    0  501  502  0.00000000000E+00 -0.00000000000E+00 -0.35566157606E+02  0.35566157606E+02  0.00000000000E+00 0.  1.
         24    2    1    2    0    0 -0.22090402671E+02  0.24405708419E+02  0.30118428538E+03  0.31332384505E+03  0.79851321997E+02 0.  0.
         23    2    1    2    0    0  0.32969501279E+02 -0.50324873955E+02  0.90144843420E+02  0.14130515508E+03  0.90672339245E+02 0.  0.
        -11    1    3    3    0    0 -0.29373327340E+02 -0.22950625660E+02  0.10667712815E+03  0.11300235948E+03  0.00000000000E+00 0.  1.
         12    1    3    3    0    0  0.72829246686E+01  0.47356334078E+02  0.19450715723E+03  0.20032148558E+03  0.00000000000E+00 0. -1.
        -11    1    4    4    0    0  0.10981597455E+02 -0.39329861979E+02 -0.67075574329E+01  0.41381455420E+02  0.00000000000E+00 0.  1.
         11    1    4    4    0    0  0.21987903824E+02 -0.10995011975E+02  0.96852400853E+02  0.99923699661E+02  0.00000000000E+00 0. -1.
          1    1    1    2  501    0 -0.10879098608E+02  0.25919165536E+02  0.46525118010E+02  0.54357561888E+02  0.00000000000E+00 0. -1.
<scales pt_clust_5="13000.00000" pt_clust_6="13000.00000" pt_clust_7="13000.00000" pt_clust_8="13000.00000" pt_clust_9="28.10975"></scales>
<clustering>
<clus scale="   28.110">  2  9  1 -1</clus>
<clus scale="   79.851">  5  6 -1 -1</clus>
<clus scale="   88.452">  1  5  2 -1</clus>
<clus scale="   90.672">  7  8 -1 -1</clus>
<clus scale="   28.110">  2  5  1 -1</clus>
</clustering>
</event>
<event>
 9    2  0.9254368E-005  0.9308807E+02  0.7546771E-02  0.1301496E+00
         -3   -1    0    0    0  501 -0.00000000000E+00  0.00000000000E+00  0.60441689631E+02  0.60441689631E+02  0.00000000000E+00 0.  1.
         21   -1    0    0  501  502  0.00000000000E+00 -0.00000000000E+00 -0.24199813397E+03  0.24199813397E+03  0.00000000000E+00 0.  1.
         24    2    1    2    0    0 -0.72501266653E+01 -0.53515213173E+01 -0.41718384740E+02  0.91258707910E+02  0.80663033832E+02 0.  0.
         23    2    1    2    0    0  0.49438513970E+02  0.84846717490E+01 -0.13257550833E+03  0.16825768030E+03  0.90654427641E+02 0.  0.
        -11    1    3    3    0    0 -0.43417478809E+02  0.36457427616E+01 -0.18405762249E+02  0.47298424819E+02  0.00000000000E+00 0.  1.
         12    1    3    3    0    0  0.36167352144E+02 -0.89972640790E+01 -0.23312622491E+02  0.43960283091E+02  0.00000000000E+00 0. -1.
        -13    1    4    4    0    0  0.13546425885E+02  0.46305332574E+02 -0.43076884501E+02  0.64678493004E+02  0.00000000000E+00 0. -1.
         13    1    4    4    0    0  0.35892088086E+02 -0.37820660825E+02 -0.89498623834E+02  0.10357918729E+03  0.00000000000E+00 0.  1.
         -4    1    1    2    0  502 -0.42188387305E+02 -0.31331504317E+01 -0.72625512645E+01  0.42923435392E+02  0.00000000000E+00 0.  1.
<scales pt_clust_5="13000.00000" pt_clust_6="13000.00000" pt_clust_7="13000.00000" pt_clust_8="13000.00000" pt_clust_9="42.30459"></scales>
<clustering>
<clus scale="   42.305">  2  9  1 -1</clus>
<clus scale="   80.663">  5  6 -1 -1</clus>
<clus scale="   83.389">  1  5  2 -1</clus>
<clus scale="   90.654">  7  8 -1 -1</clus>
<clus scale="   42.305">  2  5  1 -1</clus>
</clustering>
</event>
<event>
 9    2  0.9254368E-005  0.3030060E+03  0.7546771E-02  0.1084043E+00
          2   -1    0    0  502    0 -0.00000000000E+00  0.00000000000E+00  0.74069561936E+02  0.74069561936E+02  0.00000000000E+00 0. -1.
         21   -1    0    0  501  502  0.00000000000E+00 -0.00000000000E+00 -0.14860177207E+04  0.14860177207E+04  0.00000000000E+00 0. -1.
         23    2    1    2    0    0  0.10178426281E+03  0.27720643312E+03 -0.48255884804E+03  0.57285085822E+03  0.89953439186E+02 0.  0.
         24    2    1    2    0    0 -0.13032310989E+03 -0.24940914373E+03 -0.80833343172E+03  0.85979357083E+03  0.81566007936E+02 0.  0.
        -13    1    4    4    0    0 -0.50473710304E+02 -0.72638878655E+02 -0.37059680714E+03  0.38100655583E+03  0.00000000000E+00 0.  1.
         14    1    4    4    0    0 -0.79849399584E+02 -0.17677026508E+03 -0.43773662458E+03  0.47878701499E+03  0.00000000000E+00 0. -1.
        -13    1    3    3    0    0  0.67589260013E+02  0.72564757762E+02 -0.18807284588E+03  0.21261549213E+03  0.00000000000E+00 0.  1.
         13    1    3    3    0    0  0.34195002801E+02  0.20464167536E+03 -0.29448600216E+03  0.36023536609E+03  0.00000000000E+00 0. -1.
          1    1    1    2  501    0  0.28538847075E+02 -0.27797289394E+02 -0.12105587905E+03  0.12744285363E+03  0.00000000000E+00 0. -1.
<scales pt_clust_5="13000.00000" pt_clust_6="13000.00000" pt_clust_7="13000.00000" pt_clust_8="13000.00000" pt_clust_9="39.83912"></scales>
<clustering>
<clus scale="   39.839">  2  9  1 -1</clus>
<clus scale="   81.566">  5  6 -1 -1</clus>
<clus scale="   89.953">  7  8 -1 -1</clus>
<clus scale="  300.623">  2  5  1 -1</clus>
<clus scale="   39.839">  2  5  1 -1</clus>
</clustering>
</event>
<event>
 9    2  0.9254368E-005  0.1055473E+03  0.7546771E-02  0.1274303E+00
          2   -1    0    0  502    0 -0.00000000000E+00  0.00000000000E+00  0.76651911971E+03  0.76651911971E+03  0.00000000000E+00 0. -1.
         21   -1    0    0  501  502  0.00000000000E+00 -0.00000000000E+00 -0.87369863252E+02  0.87369863252E+02  0.00000000000E+00 0. -1.
         24    2    1    2    0    0 -0.22033673106E+01 -0.50421525163E+02  0.55333645223E+03  0.56128792801E+03  0.79471527821E+02 0.  0.
         23    2    1    2    0    0  0.54062124488E+02  0.56129755232E+02  0.18062312398E+03  0.21693015078E+03  0.91436943720E+02 0.  0.
        -13    1    3    3    0    0  0.26989831870E+02  0.15343473932E+01  0.85526251350E+02  0.89696961578E+02  0.00000000000E+00 0.  1.
         14    1    3    3    0    0 -0.29193199181E+02 -0.51955872556E+02  0.46781020088E+03  0.47159096643E+03  0.00000000000E+00 0. -1.
        -13    1    4    4    0    0  0.79669478132E+02  0.38319724318E+02  0.14218781379E+03  0.16743058684E+03  0.00000000000E+00 0. -1.
         13    1    4    4    0    0 -0.25607353644E+02  0.17810030914E+02  0.38435310181E+02  0.49499563942E+02  0.00000000000E+00 0.  1.
          1    1    1    2  501    0 -0.51858757177E+02 -0.57082300685E+01 -0.54810319751E+02  0.75670904169E+02  0.00000000000E+00 0. -1.
<scales pt_clust_5="13000.00000" pt_clust_6="13000.00000" pt_clust_7="13000.00000" pt_clust_8="13000.00000" pt_clust_9="52.17197"></scales>
<clustering>
<clus scale="   52.172">  2  9  1 -1</clus>
<clus scale="   79.472">  5  6 -1 -1</clus>
<clus scale="   91.437">  7  8 -1 -1</clus>
<clus scale="   95.369">  1  5  2 -1</clus>
<clus scale="   52.172">  2  5  1 -1</clus>
</clustering>
</event>
<event>
 9    2  0.9254368E-005  0.1017200E+03  0.7546771E-02  0.1281674E+00
         21   -1    0    0  501  502  0.00000000000E+00  0.00000000000E+00  0.35421711853E+03  0.35421711853E+03  0.00000000000E+00 0.  1.
         -3   -1    0    0    0  501 -0.00000000000E+00 -0.00000000000E+00 -0.18044996718E+03  0.18044996718E+03  0.00000000000E+00 0.  1.
         24    2    1    2    0    0  0.20682455324E+02  0.46413220792E+02 -0.14741718573E+03  0.17547735142E+03  0.80489273768E+02 0.  0.
         23    2    1    2    0    0 -0.67499314161E+01  0.10481885468E+02  0.12908300299E+03  0.15835624382E+03  0.90878197594E+02 0.  0.
        -11    1    3    3    0    0 -0.17220207455E+01  0.65528350315E+02 -0.10666473246E+03  0.12519702553E+03  0.00000000000E+00 0.  1.
         12    1    3    3    0    0  0.22404476069E+02 -0.19115129523E+02 -0.40752453272E+02  0.50280325897E+02  0.00000000000E+00 0. -1.
        -13    1    4    4    0    0  0.24545352565E+02  0.92140549137E+01  0.72042922479E+00  0.26227698312E+02  0.00000000000E+00 0. -1.
         13    1    4    4    0    0 -0.31295283981E+02  0.12678305544E+01  0.12836257377E+03  0.13212854551E+03  0.00000000000E+00 0.  1.
         -4    1    1    2    0  502 -0.13932523908E+02 -0.56895106260E+02  0.19210133408E+03  0.20083349047E+03  0.00000000000E+00 0.  1.
<scales pt_clust_5="13000.00000" pt_clust_6="13000.00000" pt_clust_7="13000.00000" pt_clust_8="13000.00000" pt_clust_9="58.57618"></scales>
<clustering>
<clus scale="   58.576">  1  9  2 -1</clus>
<clus scale="   80.489">  5  6 -1 -1</clus>
<clus scale="   90.878">  7  8 -1 -1</clus>
<clus scale="   92.556">  2  5  1 -1</clus>
<clus scale="   58.576">  1  5  2 -1</clus>
</clustering>
</event>
<event>
 9    2  0.9254368E-005  0.2229377E+03  0.7546771E-02  0.1171841E+00
         21   -1    0    0  501  502  0.00000000000E+00  0.00000000000E+00  0.36633102442E+03  0.36633102442E+03  0.00000000000E+00 0.  1.
         -3   -1    0    0    0  501 -0.00000000000E+00 -0.00000000000E+00 -0.18237599245E+03  0.18237599245E+03  0.00000000000E+00 0.  1.
         24    2    1    2    0    0 -0.31945403566E+02 -0.68478236372E+01  0.14534718340E+02  0.87593943494E+02  0.79962737585E+02 0.  0.
         23    2    1    2    0    0  0.17026328170E+02 -0.20023278299E+03  0.10034712678E+03  0.24230708261E+03  0.90885164864E+02 0.  0.
        -13    1    3    3    0    0 -0.28814611192E+02 -0.33957574527E+02 -0.15366212428E+02  0.47111773160E+02  0.00000000000E+00 0.  1.
         14    1    3    3    0    0 -0.31307923738E+01  0.27109750890E+02  0.29900930767E+02  0.40482170334E+02  0.00000000000E+00 0. -1.
        -13    1    4    4    0    0 -0.17375481466E+02 -0.10279956907E+03  0.94447855123E+01  0.10468458688E+03  0.00000000000E+00 0.  1.
         13    1    4    4    0    0  0.34401809636E+02 -0.97433213920E+02  0.90902341268E+02  0.13762249572E+03  0.00000000000E+00 0. -1.
         -4    1    1    2    0  502  0.14919075396E+02  0.20708060663E+03  0.69073186852E+02  0.21880599077E+03  0.00000000000E+00 0.  1.
<scales pt_clust_5="13000.00000" pt_clust_6="13000.00000" pt_clust_7="13000.00000" pt_clust_8="13000.00000" pt_clust_9="203.57093"></scales>
<clustering>
<clus scale="   79.963">  5  6 -1 -1</clus>
<clus scale="   86.380">  2  5  1 -1</clus>
<clus scale="   90.885">  7  8 -1 -1</clus>
<clus scale="  203.571">  1  9  2 -1</clus>
<clus scale="  203.571">  1  5  2 -1</clus>
</clustering>
</event>
<event>
 9    2  0.9254368E-005  0.1869580E+03  0.7546771E-02  0.1198819E+00
         21   -1    0    0  501  502  0.00000000000E+00  0.00000000000E+00  0.47234992233E+03  0.47234992233E+03  0.00000000000E+00 0. -1.
         -3   -1    0    0    0  501 -0.00000000000E+00 -0.00000000000E+00 -0.10724817894E+03  0.10724817894E+03  0.00000000000E+00 0.  1.
         24    2    1    2    0    0  0.15484021240E+02  0.10199988954E+02  0.18298065148E+02  0.82363729555E+02  0.78135587728E+02 0.  0.
         23    2    1    2    0    0 -0.57005003588E+02  0.15059314810E+03  0.22418984322E+03  0.29080623062E+03  0.91538578073E+02 0.  0.
        -13    1    3    3    0    0 -0.31147397263E+02 -0.31361210800E+01  0.27218587478E+01  0.31422987234E+02  0.00000000000E+00 0.  1.
         14    1    3    3    0    0  0.46631418502E+02  0.13336110034E+02  0.15576206400E+02  0.50940742321E+02  0.00000000000E+00 0. -1.
        -13    1    4    4    0    0 -0.27317060356E+02  0.11840389770E+03  0.94535243059E+02  0.15395654243E+03  0.00000000000E+00 0.  1.
         13    1    4    4    0    0 -0.29687943232E+02  0.32189250403E+02  0.12965460016E+03  0.13684968819E+03  0.00000000000E+00 0. -1.
         -4    1    1    2    0  502  0.41520982349E+02 -0.16079313706E+03  0.12261383502E+03  0.20642814110E+03  0.00000000000E+00 0.  1.
<scales pt_clust_5="13000.00000" pt_clust_6="13000.00000" pt_clust_7="13000.00000" pt_clust_8="13000.00000" pt_clust_9="163.01533"></scales>
<clustering>
<clus scale="   78.136">  5  6 -1 -1</clus>
<clus scale="   80.305">  2  5  1 -1</clus>
<clus scale="   91.539">  7  8 -1 -1</clus>
<clus scale="  163.015">  1  9  2 -1</clus>
<clus scale="  163.015">  1  5  2 -1</clus>
</clustering>
</event>
<event>
 9    2  0.9254368E-005  0.1173441E+03  0.7546771E-02  0.1251736E+00
          2   -1    0    0  502    0 -0.00000000000E+00  0.00000000000E+00  0.17302855822E+03  0.17302855822E+03  0.00000000000E+00 0. -1.
         21   -1    0    0  501  502  0.00000000000E+00 -0.00000000000E+00 -0.26800277414E+03  0.26800277414E+03  0.00000000000E+00 0.  1.
         23    2    1    2    0    0 -0.74355737136E+02 -0.21231288503E+02  0.10775452955E+03  0.16087664308E+03  0.91053349152E+02 0.  0.
         24    2    1    2    0    0  0.63195914095E+02 -0.48158431742E+02 -0.16802818951E+03  0.20177354671E+03  0.78524732261E+02 0.  0.
        -13    1    4    4    0    0 -0.14972301865E+02 -0.21731866099E+02 -0.62289894372E+02  0.67649647214E+02  0.00000000000E+00 0.  1.
         14    1    4    4    0    0  0.78168215959E+02 -0.26426565643E+02 -0.10573829514E+03  0.13412389950E+03  0.00000000000E+00 0. -1.
        -13    1    3    3    0    0 -0.11844311407E+02 -0.42985314064E+02  0.15233286415E+02  0.47117703180E+02  0.00000000000E+00 0.  1.
         13    1    3    3    0    0 -0.62511425729E+02  0.21754025562E+02  0.92521243136E+02  0.11375893990E+03  0.00000000000E+00 0. -1.
          1    1    1    2  501    0  0.11159823042E+02  0.69389720244E+02 -0.34700555956E+02  0.78381142563E+02  0.00000000000E+00 0. -1.
<scales pt_clust_5="13000.00000" pt_clust_6="13000.00000" pt_clust_7="13000.00000" pt_clust_8="13000.00000" pt_clust_9="70.28140"></scales>
<clustering>
<clus scale="   70.281">  2  9  1 -1</clus>
<clus scale="   78.525">  5  6 -1 -1</clus>
<clus scale="   91.053">  7  8 -1 -1</clus>
<clus scale="  107.912">  2  5  1 -1</clus>
<clus scale="   70.281">  2  5  1 -1</clus>
</clustering>
</event>
<event>
 9    2  0.9254368E-005  0.1771626E+03  0.7546771E-02  0.1204107E+00
         21   -1    0    0  501  502  0.00000000000E+00  0.00000000000E+00  0.15845281008E+03  0.15845281008E+03  0.00000000000E+00 0. -1.
          2   -1    0    0  502    0 -0.00000000000E+00 -0.00000000000E+00 -0.30087302091E+03  0.30087302091E+03  0.00000000000E+00 0. -1.
         24    2    1    2    0    0  0.23850764849E+02 -0.23117211977E+02  0.14104983030E+02  0.85334095153E+02  0.77328473255E+02 0.  0.
         23    2    1    2    0    0  0.12588496268E+03  0.53889350770E+02 -0.14181687030E+03  0.22042075093E+03  0.98601200711E+02 0.  0.
        -11    1    3    3    0    0 -0.26756374992E+02 -0.19765761634E+02  0.28883464722E+01  0.33390589708E+02  0.00000000000E+00 0.  1.
         12    1    3    3    0    0  0.50607139841E+02 -0.33514503427E+01  0.11216636557E+02  0.51943505445E+02  0.00000000000E+00 0. -1.
        -11    1    4    4    0    0  0.10343624822E+03 -0.71211262514E+01 -0.84548564630E+02  0.13378425791E+03  0.00000000000E+00 0. -1.
         11    1    4    4    0    0  0.22448714465E+02  0.61010477022E+02 -0.57268305670E+02  0.86636493015E+02  0.00000000000E+00 0.  1.
          1    1    1    2  501    0 -0.14973572753E+03 -0.30772138793E+02 -0.14708323562E+02  0.15357098491E+03  0.00000000000E+00 0. -1.
<scales pt_clust_5="13000.00000" pt_clust_6="13000.00000" pt_clust_7="13000.00000" pt_clust_8="13000.00000" pt_clust_9="147.18823"></scales>
<clustering>
<clus scale="   77.328">  5  6 -1 -1</clus>
<clus scale="   84.160">  2  5  1 -1</clus>
<clus scale="   98.601">  7  8 -1 -1</clus>
<clus scale="  147.188">  1  9  2 -1</clus>
<clus scale="  147.188">  1  5  2 -1</clus>
</clustering>
</event>
<event>
 9    2  0.9254368E-005  0.1398397E+03  0.7546771E-02  0.1228913E+00
         -1   -1    0    0    0  501 -0.00000000000E+00  0.00000000000E+00  0.10180295708E+03  0.10180295708E+03  0.00000000000E+00 0.  1.
         21   -1    0    0  501  502  0.00000000000E+00 -0.00000000000E+00 -0.36209098276E+03  0.36209098276E+03  0.00000000000E+00 0.  1.
         24    2    1    2    0    0  0.45103765961E+02 -0.42362237031E+02 -0.99498165387E+02  0.14201885214E+03  0.80253103482E+02 0.  0.
         23    2    1    2    0    0 -0.98580017743E+01 -0.72590689468E+02  0.66672614533E+01  0.11572386450E+03  0.89336286262E+02 0.  0.
        -11    1    3    3    0    0  0.31162520425E+02 -0.65824785213E+02 -0.81640534435E+02  0.10940375629E+03  0.00000000000E+00 0.  1.
         12    1    3    3    0    0  0.13941245536E+02  0.23462548182E+02 -0.17857630952E+02  0.32615095853E+02  0.00000000000E+00 0. -1.
        -13    1    4    4    0    0 -0.31205405217E+02 -0.78134062270E+02  0.24202752796E+02  0.87547028759E+02  0.00000000000E+00 0.  1.
         13    1    4    4    0    0  0.21347403443E+02  0.55433728017E+01 -0.17535491343E+02  0.28176835741E+02  0.00000000000E+00 0. -1.
         -2    1    1    2    0  502 -0.35245764187E+02  0.11495292650E+03 -0.16745712174E+03  0.20615122320E+03  0.00000000000E+00 0.  1.
<scales pt_clust_5="13000.00000" pt_clust_6="13000.00000" pt_clust_7="13000.00000" pt_clust_8="13000.00000" pt_clust_9="107.58331"></scales>
<clustering>
<clus scale="   80.253">  5  6 -1 -1</clus>
<clus scale="   89.336">  7  8 -1 -1</clus>
<clus scale="  101.338">  1  5  2 -1</clus>
<clus scale="  107.583">  2  9  1 -1</clus>
<clus scale="  107.583">  2  5  1 -1</clus>
</clustering>
</event>
<event>
 9    2  0.9254368E-005  0.2758207E+03  0.7546771E-02  0.1130304E+00
         21   -1    0    0  501  502  0.00000000000E+00  0.00000000000E+00  0.67760676124E+02  0.67760676124E+02  0.00000000000E+00 0. -1.
          2   -1    0    0  502    0 -0.00000000000E+00 -0.00000000000E+00 -0.26094179410E+04  0.26094179410E+04  0.00000000000E+00 0. -1.
         24    2    1    2    0    0 -0.87476904521E+02 -0.29729512861E+02 -0.63842542648E+03  0.64995012423E+03  0.79448637777E+02 0.  0.
         23    2    1    2    0    0 -0.24181799206E+03 -0.23412474939E+02 -0.33413199860E+03  0.42306718336E+03  0.91200679176E+02 0.  0.
        -11    1    3    3    0    0 -0.10078785538E+03 -0.16230860838E+02 -0.50820410970E+03  0.51835610322E+03  0.00000000000E+00 0.  1.
         12    1    3    3    0    0  0.13310950854E+02 -0.13498652024E+02 -0.13022131678E+03  0.13159402100E+03  0.00000000000E+00 0. -1.
        -11    1    4    4    0    0 -0.20851472227E+03 -0.49410602378E+02 -0.25269052754E+03  0.33131903015E+03  0.00000000000E+00 0. -1.
         11    1    4    4    0    0 -0.33303269783E+02  0.25998127438E+02 -0.81441471063E+02  0.91748153210E+02  0.00000000000E+00 0.  1.
          1    1    1    2  501    0  0.32929489658E+03  0.53141987801E+02 -0.15690998398E+04  0.16041613096E+04  0.00000000000E+00 0. -1.
<scales pt_clust_5="13000.00000" pt_clust_6="13000.00000" pt_clust_7="13000.00000" pt_clust_8="13000.00000" pt_clust_9="260.30662"></scales>
<clustering>
<clus scale="   79.449">  5  6 -1 -1</clus>
<clus scale="   91.201">  7  8 -1 -1</clus>
<clus scale="  121.853">  2  5  1 -1</clus>
<clus scale="  260.307">  1  9  2 -1</clus>
<clus scale="  260.307">  1  5  2 -1</clus>
</clustering>
</event>
<event>
 9    2  0.9254368E-005  0.2569800E+03  0.7546771E-02  0.1109412E+00
         21   -1    0    0  501  502  0.00000000000E+00  0.00000000000E+00  0.45479998682E+03  0.45479998682E+03  0.00000000000E+00 0.  1.
          2   -1    0    0  502    0 -0.00000000000E+00 -0.00000000000E+00 -0.30413122531E+03  0.30413122531E+03  0.00000000000E+00 0. -1.
         24    2    1    2    0    0  0.12843939916E+03 -0.22265331781E+03 -0.29559560592E+02  0.27102643632E+03  0.80686940522E+02 0.  0.
         23    2    1    2    0    0 -0.18401668015E+03  0.11871455456E+03  0.25541750602E+03  0.34809950394E+03  0.89330164131E+02 0.  0.
        -11    1    3    3    0    0  0.12239256052E+03 -0.16655946933E+03  0.13458333070E+01  0.20669738015E+03  0.00000000000E+00 0.  1.
         12    1    3    3    0    0  0.60468386402E+01 -0.56093848483E+02 -0.30905393899E+02  0.64329056167E+02  0.00000000000E+00 0. -1.
        -11    1    4    4    0    0 -0.16533793766E+03  0.93907987472E+02  0.16247539784E+03  0.25010717431E+03  0.00000000000E+00 0.  1.
         11    1    4    4    0    0 -0.18678742485E+02  0.24806567090E+02  0.92942108185E+02  0.97992329626E+02  0.00000000000E+00 0. -1.
          1    1    1    2  501    0  0.55577280985E+02  0.10393876325E+03 -0.75189183911E+02  0.13980527188E+03  0.00000000000E+00 0. -1.
<scales pt_clust_5="13000.00000" pt_clust_6="13000.00000" pt_clust_7="13000.00000" pt_clust_8="13000.00000" pt_clust_9="117.86481"></scales>
<clustering>
<clus scale="   80.687">  5  6 -1 -1</clus>
<clus scale="   89.330">  7  8 -1 -1</clus>
<clus scale="  117.865">  1  9  2 -1</clus>
<clus scale="  254.105">  2  5  1 -1</clus>
<clus scale="  117.865">  1  5  2 -1</clus>
</clustering>
</event>
<event>
 9    2  0.9254368E-005  0.1497117E+03  0.7546771E-02  0.1202905E+00
          2   -1    0    0  502    0 -0.00000000000E+00  0.00000000000E+00  0.17061795802E+03  0.17061795802E+03  0.00000000000E+00 0. -1.
         21   -1    0    0  501  502  0.00000000000E+00 -0.00000000000E+00 -0.21197140273E+03  0.21197140273E+03  0.00000000000E+00 0.  1.
         24    2    1    2    0    0  0.91288144398E+01  0.12506542903E+03  0.84720358976E+02  0.17094468801E+03  0.79497486395E+02 0.  0.
         23    2    1    2    0    0  0.20386399442E+01 -0.10190232882E+03 -0.78265113690E+02  0.15735920426E+03  0.90819879277E+02 0.  0.
        -13    1    3    3    0    0  0.43278341356E+02  0.66903878620E+02  0.57265733426E+02  0.98124961298E+02  0.00000000000E+00 0.  1.
         14    1    3    3    0    0 -0.34149526916E+02  0.58161550408E+02  0.27454625550E+02  0.72819726713E+02  0.00000000000E+00 0. -1.
        -13    1    4    4    0    0  0.32717341596E+02 -0.13700561886E+02 -0.46994203697E+02  0.58877712406E+02  0.00000000000E+00 0.  1.
         13    1    4    4    0    0 -0.30678701651E+02 -0.88201766935E+02 -0.31270909992E+02  0.98481491851E+02  0.00000000000E+00 0. -1.
          1    1    1    2  501    0 -0.11167454384E+02 -0.23163100208E+02 -0.47808690004E+02  0.54285468484E+02  0.00000000000E+00 0. -1.
<scales pt_clust_5="13000.00000" pt_clust_6="13000.00000" pt_clust_7="13000.00000" pt_clust_8="13000.00000" pt_clust_9="25.71461"></scales>
<clustering>
<clus scale="   25.715">  2  9  1 -1</clus>
<clus scale="   79.497">  5  6 -1 -1</clus>
<clus scale="   90.820">  7  8 -1 -1</clus>
<clus scale="  143.127">  1  5  2 -1</clus>
<clus scale="   25.715">  2  5  1 -1</clus>
</clustering>
</event>
<event>
 9    2  0.9254368E-005  0.1319472E+03  0.7546771E-02  0.1227602E+00
         21   -1    0    0  501  502  0.00000000000E+00  0.00000000000E+00  0.17182946766E+03  0.17182946766E+03  0.00000000000E+00 0. -1.
          2   -1    0    0  502    0 -0.00000000000E+00 -0.00000000000E+00 -0.14837382432E+03  0.14837382432E+03  0.00000000000E+00 0. -1.
         23    2    1    2    0    0 -0.22976268637E+02  0.81749880647E+02 -0.13484667195E+02  0.12547305354E+03  0.91382159136E+02 0.  0.
         24    2    1    2    0    0  0.69972609356E+02 -0.93174487004E+02  0.39074121794E+02  0.14631814469E+03  0.79401268138E+02 0.  0.
        -13    1    4    4    0    0  0.85647343729E+02 -0.80809916033E+02  0.21456124928E+02  0.11969158414E+03  0.00000000000E+00 0.  1.
         14    1    4    4    0    0 -0.15674734373E+02 -0.12364570971E+02  0.17617996866E+02  0.26626560546E+02  0.00000000000E+00 0. -1.
        -11    1    3    3    0    0  0.19053801498E+02  0.68799591018E+02 -0.31392901008E+02  0.77986827794E+02  0.00000000000E+00 0. -1.
         11    1    3    3    0    0 -0.42030070135E+02  0.12950289629E+02  0.17908233813E+02  0.47486225743E+02  0.00000000000E+00 0.  1.
          1    1    1    2  501    0 -0.46996340719E+02  0.11424606357E+02 -0.21338112614E+01  0.48412093756E+02  0.00000000000E+00 0. -1.
<scales pt_clust_5="13000.00000" pt_clust_6="13000.00000" pt_clust_7="13000.00000" pt_clust_8="13000.00000" pt_clust_9="48.36507"></scales>
<clustering>
<clus scale="   48.365">  1  9  2 -1</clus>
<clus scale="   79.401">  5  6 -1 -1</clus>
<clus scale="   91.382">  7  8 -1 -1</clus>
<clus scale="  123.951">  1  5  2 -1</clus>
<clus scale="   48.365">  1  5  2 -1</clus>
</clustering>
</event>
<event>
 9    2  0.9254368E-005  0.1297127E+03  0.7546771E-02  0.1230337E+00
         21   -1    0    0  501  502  0.00000000000E+00  0.00000000000E+00  0.18605923453E+03  0.18605923453E+03  0.00000000000E+00 0.  1.
         -1   -1    0    0    0  501 -0.00000000000E+00 -0.00000000000E+00 -0.17316762447E+03  0.17316762447E+03  0.00000000000E+00 0.  1.
         23    2    1    2    0    0  0.84876820200E+02  0.17106077280E+02 -0.71078280432E+02  0.14321102574E+03  0.89222101841E+02 0.  0.
         24    2    1    2    0    0 -0.12316018170E+03  0.13722796088E+02  0.77524083855E+02  0.16644181160E+03  0.79599922008E+02 0.  0.
        -13    1    4    4    0    0 -0.13202800769E+03  0.51795252087E+01  0.79148047385E+02  0.15402154298E+03  0.00000000000E+00 0.  1.
         14    1    4    4    0    0  0.88678259933E+01  0.85432708796E+01 -0.16239635303E+01  0.12420268625E+02  0.00000000000E+00 0. -1.
        -11    1    3    3    0    0  0.53084941973E+02 -0.34218288615E+02 -0.44419905299E+02  0.77214184751E+02  0.00000000000E+00 0.  1.
         11    1    3    3    0    0  0.31791878228E+02  0.51324365895E+02 -0.26658375134E+02  0.65996840989E+02  0.00000000000E+00 0. -1.
         -2    1    1    2    0  502  0.38283361499E+02 -0.30828873368E+02  0.64458066360E+01  0.49574021664E+02  0.00000000000E+00 0.  1.
<scales pt_clust_5="13000.00000" pt_clust_6="13000.00000" pt_clust_7="13000.00000" pt_clust_8="13000.00000" pt_clust_9="49.15318"></scales>
<clustering>
<clus scale="   49.153">  1  9  2 -1</clus>
<clus scale="   79.600">  5  6 -1 -1</clus>
<clus scale="   89.222">  7  8 -1 -1</clus>
<clus scale="  123.292">  1  5  2 -1</clus>
<clus scale="   49.153">  1  5  2 -1</clus>
</clustering>
</event>
<event>
 9    2  0.9254368E-005  0.1280614E+03  0.7546771E-02  0.1253050E+00
          4   -1    0    0  502    0 -0.00000000000E+00  0.00000000000E+00  0.11652734592E+03  0.11652734592E+03  0.00000000000E+00 0. -1.
         21   -1    0    0  501  502  0.00000000000E+00 -0.00000000000E+00 -0.31431181616E+03  0.31431181616E+03  0.00000000000E+00 0.  1.
         24    2    1    2    0    0  0.76302625479E+01 -0.27595942754E+01 -0.13959706411E+03  0.16133462930E+03  0.80471647395E+02 0.  0.
         23    2    1    2    0    0 -0.15318899112E+01 -0.88800683659E+02 -0.10618651272E+03  0.16594590745E+03  0.91512625420E+02 0.  0.
        -11    1    3    3    0    0  0.18867307974E+02  0.18969920360E+02 -0.13345737708E+03  0.13611283806E+03  0.00000000000E+00 0.  1.
         12    1    3    3    0    0 -0.11237045426E+02 -0.21729514635E+02 -0.61396870332E+01  0.25221791234E+02  0.00000000000E+00 0. -1.
        -13    1    4    4    0    0 -0.41117778003E+02 -0.27429541892E+02 -0.20901185654E+02  0.53664802227E+02  0.00000000000E+00 0. -1.
         13    1    4    4    0    0  0.39585888091E+02 -0.61371141767E+02 -0.85285327068E+02  0.11228110523E+03  0.00000000000E+00 0.  1.
          3    1    1    2  501    0 -0.60983726366E+01  0.91560277934E+02  0.47999106597E+02  0.10355862532E+03  0.00000000000E+00 0. -1.
<scales pt_clust_5="13000.00000" pt_clust_6="13000.00000" pt_clust_7="13000.00000" pt_clust_8="13000.00000" pt_clust_9="89.58331"></scales>
<clustering>
<clus scale="   80.472">  5  6 -1 -1</clus>
<clus scale="   80.880">  1  5  2 -1</clus>
<clus scale="   89.583">  2  9  1 -1</clus>
<clus scale="   91.513">  7  8 -1 -1</clus>
<clus scale="   89.583">  2  5  1 -1</clus>
</clustering>
</event>
<event>
 9    2  0.9254368E-005  0.2324399E+03  0.7546771E-02  0.1124934E+00
         -1   -1    0    0    0  501 -0.00000000000E+00  0.00000000000E+00  0.44011143899E+02  0.44011143899E+02  0.00000000000E+00 0.  1.
         21   -1    0    0  501  502  0.00000000000E+00 -0.00000000000E+00 -0.84044112627E+03  0.84044112627E+03  0.00000000000E+00 0. -1.
         24    2    1    2    0    0  0.22423832523E+02 -0.68586698003E+02 -0.24440725292E+03  0.26693166487E+03  0.79439568363E+02 0.  0.
         23    2    1    2    0    0  0.74778942116E+02 -0.43246334695E+02 -0.30248275698E+03  0.32730481582E+03  0.90390754748E+02 0.  0.
        -11    1    3    3    0    0 -0.25439306595E+02 -0.11782059874E+02 -0.10834755465E+03  0.11191589634E+03  0.00000000000E+00 0.  1.
         12    1    3    3    0    0  0.47863139118E+02 -0.56804638129E+02 -0.13605969827E+03  0.15501576853E+03  0.00000000000E+00 0. -1.
        -11    1    4    4    0    0  0.95799479417E+02 -0.35108600272E+02 -0.25786203603E+03  0.27731387217E+03  0.00000000000E+00 0.  1.
         11    1    4    4    0    0 -0.21020537301E+02 -0.81377344230E+01 -0.44620720943E+02  0.49990943654E+02  0.00000000000E+00 0. -1.
         -2    1    1    2    0  502 -0.97202774640E+02  0.11183303270E+03 -0.24953997248E+03  0.29021578948E+03  0.00000000000E+00 0.  1.
<scales pt_clust_5="13000.00000" pt_clust_6="13000.00000" pt_clust_7="13000.00000" pt_clust_8="13000.00000" pt_clust_9="148.17229"></scales>
<clustering>
<clus scale="   79.440">  5  6 -1 -1</clus>
<clus scale="   90.391">  7  8 -1 -1</clus>
<clus scale="  104.202">  5  7 -1 -1</clus>
<clus scale="  148.172">  2  9  1 -1</clus>
<clus scale="  148.172">  2  5  1 -1</clus>
</clustering>
</event>
<event>
 9    2  0.9254368E-005  0.2656167E+03  0.7546771E-02  0.1103815E+00
          2   -1    0    0  502    0 -0.00000000000E+00  0.00000000000E+00  0.14882949066E+04  0.14882949066E+04  0.00000000000E+00 0. -1.
         21   -1    0    0  501  502  0.00000000000E+00 -0.00000000000E+00 -0.35666954722E+02  0.35666954722E+02  0.00000000000E+00 0. -1.
         24    2    1    2    0    0  0.74024972186E+02 -0.14727848512E+02  0.37895103359E+03  0.39438467025E+03  0.78985924333E+02 0.  0.
         23    2    1    2    0    0  0.11657124733E+03  0.51501940812E+02  0.51099805588E+03  0.53435726956E+03  0.90428827302E+02 0.  0.
        -13    1    3    3    0    0  0.49075439307E+02 -0.44375169940E+02  0.18188100605E+03  0.19354135169E+03  0.00000000000E+00 0.  1.
         14    1    3    3    0    0  0.24949532878E+02  0.29647321428E+02  0.19707002753E+03  0.20084331856E+03  0.00000000000E+00 0. -1.
        -13    1    4    4    0    0  0.84241947679E+02  0.25681450377E+01  0.18729849337E+03  0.20538750384E+03  0.00000000000E+00 0. -1.
         13    1    4    4    0    0  0.32329299656E+02  0.48933795775E+02  0.32369956251E+03  0.32896976571E+03  0.00000000000E+00 0.  1.
          1    1    1    2  501    0 -0.19059621952E+03 -0.36774092300E+02  0.56267886243E+03  0.59521992153E+03  0.00000000000E+00 0. -1.
<scales pt_clust_5="13000.00000" pt_clust_6="13000.00000" pt_clust_7="13000.00000" pt_clust_8="13000.00000" pt_clust_9="194.11144"></scales>
<clustering>
<clus scale="   78.986">  5  6 -1 -1</clus>
<clus scale="   90.429">  7  8 -1 -1</clus>
<clus scale="  101.457">  5  7 -1 -1</clus>
<clus scale="  194.111">  2  9  1 -1</clus>
<clus scale="  194.111">  2  5  1 -1</clus>
</clustering>
</event>
<event>
 9    2  0.9254368E-005  0.1070657E+03  0.7546771E-02  0.1272733E+00
         -1   -1    0    0    0  501 -0.00000000000E+00  0.00000000000E+00  0.38008174018E+03  0.38008174018E+03  0.00000000000E+00 0.  1.
         21   -1    0    0  501  502  0.00000000000E+00 -0.00000000000E+00 -0.93512275584E+02  0.93512275584E+02  0.00000000000E+00 0.  1.
         23    2    1    2    0    0 -0.51773143582E+02  0.14647442141E+02  0.26599466028E+03  0.28709406477E+03  0.93674098735E+02 0.  0.
         24    2    1    2    0    0  0.13613778339E+02 -0.76424601569E+02 -0.18799905416E+01  0.11049486962E+03  0.78609968587E+02 0.  0.
        -11    1    4    4    0    0 -0.14796940885E+02 -0.32715961946E+02 -0.33845883279E+02  0.49343970661E+02  0.00000000000E+00 0.  1.
         12    1    4    4    0    0  0.28410719224E+02 -0.43708639623E+02  0.31965892737E+02  0.61150898955E+02  0.00000000000E+00 0. -1.
        -13    1    3    3    0    0 -0.37671675846E+02 -0.37585718741E+02  0.14832758749E+03  0.15758462687E+03  0.00000000000E+00 0.  1.
         13    1    3    3    0    0 -0.14101467735E+02  0.52233160882E+02  0.11766707278E+03  0.12950943790E+03  0.00000000000E+00 0. -1.
         -2    1    1    2    0  502  0.38159365243E+02  0.61777159429E+02  0.22454794861E+02  0.76005081377E+02  0.00000000000E+00 0.  1.
<scales pt_clust_5="13000.00000" pt_clust_6="13000.00000" pt_clust_7="13000.00000" pt_clust_8="13000.00000" pt_clust_9="72.61236"></scales>
<clustering>
<clus scale="   72.612">  2  9  1 -1</clus>
<clus scale="   78.610">  5  6 -1 -1</clus>
<clus scale="   93.674">  7  8 -1 -1</clus>
<clus scale="   94.169">  2  5  1 -1</clus>
<clus scale="   72.612">  2  5  1 -1</clus>
</clustering>
</event>
<event>
 9    2  0.9254368E-005  0.1063373E+03  0.7546771E-02  0.1274107E+00
         21   -1    0    0  501  502  0.00000000000E+00  0.00000000000E+00  0.89510323354E+02  0.89510323354E+02  0.00000000000E+00 0.  1.
         -1   -1    0    0    0  501 -0.00000000000E+00 -0.00000000000E+00 -0.35159627569E+03  0.35159627569E+03  0.00000000000E+00 0.  1.
         24    2    1    2    0    0 -0.24597328177E+02 -0.54017818922E+02 -0.13353211200E+03  0.16476693096E+03  0.76120715240E+02 0.  0.
         23    2    1    2    0    0  0.49138164757E+02  0.10471184928E+02  0.31322205738E+02  0.10883172170E+03  0.91318443520E+02 0.  0.
        -13    1    3    3    0    0  0.18451056592E+02 -0.39285347492E+02 -0.97513235335E+02  0.10673617513E+03  0.00000000000E+00 0.  1.
         14    1    3    3    0    0 -0.43048384768E+02 -0.14732471430E+02 -0.36018876666E+02  0.58030755827E+02  0.00000000000E+00 0. -1.
        -11    1    4    4    0    0  0.72144944228E+02  0.35653823823E+00  0.48180153113E+01  0.72306523694E+02  0.00000000000E+00 0. -1.
         11    1    4    4    0    0 -0.23006779472E+02  0.10114646689E+02  0.26504190427E+02  0.36525198008E+02  0.00000000000E+00 0.  1.
         -2    1    1    2    0  502 -0.24540836580E+02  0.43546633994E+02 -0.15987604607E+03  0.16750794638E+03  0.00000000000E+00 0.  1.
<scales pt_clust_5="13000.00000" pt_clust_6="13000.00000" pt_clust_7="13000.00000" pt_clust_8="13000.00000" pt_clust_9="49.98564"></scales>
<clustering>
<clus scale="   49.986">  1  9  2 -1</clus>
<clus scale="   76.121">  5  6 -1 -1</clus>
<clus scale="   91.318">  7  8 -1 -1</clus>
<clus scale="   93.611">  2  5  1 -1</clus>
<clus scale="   49.986">  1  5  2 -1</clus>
</clustering>
</event>
<event>
 9    2  0.9254368E-005  0.1739563E+03  0.7546771E-02  0.1195898E+00
          2   -1    0    0  502    0 -0.00000000000E+00  0.00000000000E+00  0.10691824275E+04  0.10691824275E+04  0.00000000000E+00 0. -1.
         21   -1    0    0  501  502  0.00000000000E+00 -0.00000000000E+00 -0.63963701783E+02  0.63963701783E+02  0.00000000000E+00 0. -1.
         24    2    1    2    0    0 -0.44243456643E+02  0.52003107336E+02  0.51828212305E+03  0.52906093696E+03  0.81408287756E+02 0.  0.
         23    2    1    2    0    0  0.15931733395E+03  0.37704839479E+02  0.37792269013E+03  0.42194912756E+03  0.91716076664E+02 0.  0.
        -13    1    3    3    0    0 -0.48746672151E+02  0.86107120955E+01  0.14454441095E+03  0.15278569680E+03  0.00000000000E+00 0.  1.
         14    1    3    3    0    0  0.45032155081E+01  0.43392395241E+02  0.37373771210E+03  0.37627524017E+03  0.00000000000E+00 0. -1.
        -11    1    4    4    0    0  0.10931607088E+03 -0.12281742357E+02  0.28270107891E+03  0.30334921223E+03  0.00000000000E+00 0.  1.
         11    1    4    4    0    0  0.50001263062E+02  0.49986581835E+02  0.95221611227E+02  0.11859991533E+03  0.00000000000E+00 0. -1.
          1    1    1    2  501    0 -0.11507387730E+03 -0.89707946815E+02  0.10901391252E+03  0.18213606475E+03  0.00000000000E+00 0. -1.
<scales pt_clust_5="13000.00000" pt_clust_6="13000.00000" pt_clust_7="13000.00000" pt_clust_8="13000.00000" pt_clust_9="147.81393"></scales>
<clustering>
<clus scale="   81.408">  5  6 -1 -1</clus>
<clus scale="   91.716">  7  8 -1 -1</clus>
<clus scale="  106.250">  1  5  2 -1</clus>
<clus scale="  147.814">  2  9  1 -1</clus>
<clus scale="  147.814">  2  5  1 -1</clus>
</clustering>
</event>
<event>
 9    2  0.9254368E-005  0.3099235E+03  0.7546771E-02  0.1131252E+00
          2   -1    0    0  502    0 -0.00000000000E+00  0.00000000000E+00  0.19963632711E+03  0.19963632711E+03  0.00000000000E+00 0. -1.
         21   -1    0    0  501  502  0.00000000000E+00 -0.00000000000E+00 -0.67048068776E+03  0.67048068776E+03  0.00000000000E+00 0. -1.
         24    2    1    2    0    0  0.12757917541E+00  0.17026090849E+02 -0.65131450823E+02  0.10622884086E+03  0.82173941721E+02 0.  0.
         23    2    1    2    0    0 -0.28444011353E+03  0.78562010267E+02 -0.33565790566E+03  0.45586478874E+03  0.89823762682E+02 0.  0.
        -11    1    3    3    0    0  0.19735990748E+02  0.24099809056E+02 -0.76418909986E+02  0.82523693148E+02  0.00000000000E+00 0.  1.
         12    1    3    3    0    0 -0.19608411572E+02 -0.70737182068E+01  0.11287459163E+02  0.23705147711E+02  0.00000000000E+00 0. -1.
        -13    1    4    4    0    0 -0.10911546121E+03 -0.14283935507E+02 -0.11724598024E+03  0.16080060501E+03  0.00000000000E+00 0.  1.
         13    1    4    4    0    0 -0.17532465232E+03  0.92845945773E+02 -0.21841192542E+03  0.29506418373E+03  0.00000000000E+00 0. -1.
          1    1    1    2  501    0  0.28431253435E+03 -0.95588101116E+02 -0.70055004169E+02  0.30802338527E+03  0.00000000000E+00 0. -1.
<scales pt_clust_5="13000.00000" pt_clust_6="13000.00000" pt_clust_7="13000.00000" pt_clust_8="13000.00000" pt_clust_9="296.62160"></scales>
<clustering>
<clus scale="   82.174">  5  6 -1 -1</clus>
<clus scale="   83.919">  1  5  2 -1</clus>
<clus scale="   89.824">  7  8 -1 -1</clus>
<clus scale="  296.622">  2  9  1 -1</clus>
<clus scale="  296.622">  2  5  1 -1</clus>
</clustering>
</event>
<event>
 9    2  0.9254368E-005  0.1436639E+03  0.7546771E-02  0.1210371E+00
         21   -1    0    0  501  502  0.00000000000E+00  0.00000000000E+00  0.28631964907E+03  0.28631964907E+03  0.00000000000E+00 0. -1.
          2   -1    0    0  502    0 -0.00000000000E+00 -0.00000000000E+00 -0.17505210328E+03  0.17505210328E+03  0.00000000000E+00 0. -1.
         24    2    1    2    0    0 -0.45891564485E+02  0.12657428282E+03 -0.72775910867E+02  0.17365382380E+03  0.82050183149E+02 0.  0.
         23    2    1    2    0    0  0.45842975734E+02 -0.61112436200E+02  0.33659990978E+02  0.12370438498E+03  0.91287850164E+02 0.  0.
        -13    1    3    3    0    0 -0.38120657020E+01  0.58657848719E+02  0.88386024332E+01  0.59442375073E+02  0.00000000000E+00 0.  1.
         14    1    3    3    0    0 -0.42079498783E+02  0.67916434103E+02 -0.81614513300E+02  0.11421144873E+03  0.00000000000E+00 0. -1.
        -13    1    4    4    0    0  0.26573711385E+02 -0.34682082605E+02 -0.29402327810E+02  0.52664085212E+02  0.00000000000E+00 0.  1.
         13    1    4    4    0    0  0.19269264349E+02 -0.26430353595E+02  0.63062318789E+02  0.71040299765E+02  0.00000000000E+00 0. -1.
          1    1    1    2  501    0  0.48588751145E-01 -0.65461846622E+02  0.15038346568E+03  0.16401354357E+03  0.00000000000E+00 0. -1.
<scales pt_clust_5="13000.00000" pt_clust_6="13000.00000" pt_clust_7="13000.00000" pt_clust_8="13000.00000" pt_clust_9="65.46186"></scales>
<clustering>
<clus scale="   65.462">  1  9  2 -1</clus>
<clus scale="   82.050">  5  6 -1 -1</clus>
<clus scale="   91.288">  7  8 -1 -1</clus>
<clus scale="  137.979">  2  5  1 -1</clus>
<clus scale="   65.462">  1  5  2 -1</clus>
</clustering>
</event>
<event>
 9    2  0.9254368E-005  0.1235065E+03  0.7546771E-02  0.1240746E+00
         21   -1    0    0  501  502  0.00000000000E+00  0.00000000000E+00  0.12706740128E+03  0.12706740128E+03  0.00000000000E+00 0.  1.
          2   -1    0    0  502    0 -0.00000000000E+00 -0.00000000000E+00 -0.38460744468E+03  0.38460744468E+03  0.00000000000E+00 0. -1.
         24    2    1    2    0    0  0.41956450105E+02 -0.44989071474E+02 -0.15045509590E+03  0.18085956941E+03  0.79303768569E+02 0.  0.
         23    2    1    2    0    0 -0.66264811854E+02  0.11474508000E+03 -0.16996717071E+03  0.23380511639E+03  0.90656134141E+02 0.  0.
        -13    1    3    3    0    0  0.16660310920E+02  0.16330464441E+02 -0.83151647530E+02  0.86362298000E+02  0.00000000000E+00 0.  1.
         14    1    3    3    0    0  0.25296139185E+02 -0.61319535915E+02 -0.67303448368E+02  0.94497271414E+02  0.00000000000E+00 0. -1.
        -11    1    4    4    0    0 -0.49540436751E+02  0.11695530342E+02 -0.85545934401E+02  0.99544699488E+02  0.00000000000E+00 0.  1.
         11    1    4    4    0    0 -0.16724375103E+02  0.10304954966E+03 -0.84421236311E+02  0.13426041691E+03  0.00000000000E+00 0. -1.
          1    1    1    2  501    0  0.24308361749E+02 -0.69756008527E+02  0.62882223218E+02  0.97010160155E+02  0.00000000000E+00 0. -1.
<scales pt_clust_5="13000.00000" pt_clust_6="13000.00000" pt_clust_7="13000.00000" pt_clust_8="13000.00000" pt_clust_9="73.87014"></scales>
<clustering>
<clus scale="   73.870">  1  9  2 -1</clus>
<clus scale="   79.304">  5  6 -1 -1</clus>
<clus scale="   90.656">  7  8 -1 -1</clus>
<clus scale="  115.431">  2  5  1 -1</clus>
<clus scale="   73.870">  1  5  2 -1</clus>
</clustering>
</event>
<event>
 9    2  0.9254368E-005  0.9506266E+02  0.7546771E-02  0.1295695E+00
         21   -1    0    0  501  502  0.00000000000E+00  0.00000000000E+00  0.33842495471E+03  0.33842495471E+03  0.00000000000E+00 0. -1.
         -1   -1    0    0    0  501 -0.00000000000E+00 -0.00000000000E+00 -0.57852181535E+02  0.57852181535E+02  0.00000000000E+00 0.  1.
         24    2    1    2    0    0 -0.46995492076E+02  0.17826333112E+02  0.19677435172E+02  0.96307826229E+02  0.79759899136E+02 0.  0.
         23    2    1    2    0    0 -0.37893088804E+01  0.11639768057E+02  0.15065450004E+03  0.17506779089E+03  0.88329553158E+02 0.  0.
        -11    1    3    3    0    0 -0.69416258591E+02  0.94291532098E+01  0.17875733256E+02  0.72298462822E+02  0.00000000000E+00 0.  1.
         12    1    3    3    0    0  0.22420766514E+02  0.83971799025E+01  0.18017019161E+01  0.24009363407E+02  0.00000000000E+00 0. -1.
        -13    1    4    4    0    0 -0.15192259547E+02 -0.21932498909E+02  0.76816119049E+01  0.27764121091E+02  0.00000000000E+00 0.  1.
         13    1    4    4    0    0  0.11402950666E+02  0.33572266966E+02  0.14297288814E+03  0.14730366980E+03  0.00000000000E+00 0. -1.
         -2    1    1    2    0  502  0.50784800957E+02 -0.29466101170E+02  0.11024083796E+03  0.12490151913E+03  0.00000000000E+00 0.  1.
<scales pt_clust_5="13000.00000" pt_clust_6="13000.00000" pt_clust_7="13000.00000" pt_clust_8="13000.00000" pt_clust_9="58.71411"></scales>
<clustering>
<clus scale="   58.714">  1  9  2 -1</clus>
<clus scale="   79.760">  5  6 -1 -1</clus>
<clus scale="   87.158">  2  5  1 -1</clus>
<clus scale="   88.330">  7  8 -1 -1</clus>
<clus scale="   58.714">  1  5  2 -1</clus>
</clustering>
</event>
<event>
 9    2  0.9254368E-005  0.1265161E+03  0.7546771E-02  0.1251668E+00
         21   -1    0    0  501  502  0.00000000000E+00  0.00000000000E+00  0.16669100694E+03  0.16669100694E+03  0.00000000000E+00 0. -1.
          2   -1    0    0  502    0 -0.00000000000E+00 -0.00000000000E+00 -0.58325017309E+03  0.58325017309E+03  0.00000000000E+00 0. -1.
         24    2    1    2    0    0 -0.23346577995E+02  0.20183277227E+02 -0.74088402991E+02  0.11367785929E+03  0.80505508198E+02 0.  0.
         23    2    1    2    0    0 -0.63949460063E+02  0.14317445789E+01 -0.46857819548E+03  0.48137338589E+03  0.89795478890E+02 0.  0.
        -11    1    3    3    0    0 -0.15442300016E+01  0.41913389508E+02 -0.10814519260E+02  0.43313631725E+02  0.00000000000E+00 0.  1.
         12    1    3    3    0    0 -0.21802347994E+02 -0.21730112281E+02 -0.63273883731E+02  0.70364227560E+02  0.00000000000E+00 0. -1.
        -13    1    4    4    0    0 -0.21964780864E+02  0.40598882219E+02 -0.12978793956E+03  0.13775206021E+03  0.00000000000E+00 0.  1.
         13    1    4    4    0    0 -0.41984679199E+02 -0.39167137640E+02 -0.33879025593E+03  0.34362132569E+03  0.00000000000E+00 0. -1.
          1    1    1    2  501    0  0.87296038058E+02 -0.21615021806E+02  0.12610743233E+03  0.15488993485E+03  0.00000000000E+00 0. -1.
<scales pt_clust_5="13000.00000" pt_clust_6="13000.00000" pt_clust_7="13000.00000" pt_clust_8="13000.00000" pt_clust_9="89.12408"></scales>
<clustering>
<clus scale="   80.506">  5  6 -1 -1</clus>
<clus scale="   86.218">  2  5  1 -1</clus>
<clus scale="   89.124">  1  9  2 -1</clus>
<clus scale="   89.795">  7  8 -1 -1</clus>
<clus scale="   89.124">  1  5  2 -1</clus>
</clustering>
</event>
<event>
 9    2  0.9254368E-005  0.9209676E+02  0.7546771E-02  0.1306250E+00
         21   -1    0    0  501  502  0.00000000000E+00  0.00000000000E+00  0.36150097586E+02  0.36150097586E+02  0.00000000000E+00 0. -1.
          2   -1    0    0  502    0 -0.00000000000E+00 -0.00000000000E+00 -0.58545849522E+03  0.58545849522E+03  0.00000000000E+00 0. -1.
         24    2    1    2    0    0  0.14604427191E+02  0.19075048951E+02 -0.27797529655E+03  0.28990618302E+03  0.78728537869E+02 0.  0.
         23    2    1    2    0    0  0.74669148174E+01  0.28287498743E+02 -0.26124075268E+03  0.27848389272E+03  0.91927200790E+02 0.  0.
        -13    1    3    3    0    0  0.40114199639E+02 -0.12157465871E+02 -0.13569525151E+03  0.14202166832E+03  0.00000000000E+00 0.  1.
         14    1    3    3    0    0 -0.25509772448E+02  0.31232514822E+02 -0.14228004504E+03  0.14788451470E+03  0.00000000000E+00 0. -1.
        -13    1    4    4    0    0  0.47299855666E+02  0.91924115040E+01 -0.95634330800E+02  0.10708735688E+03  0.00000000000E+00 0. -1.
         13    1    4    4    0    0 -0.39832940849E+02  0.19095087239E+02 -0.16560642188E+03  0.17139653585E+03  0.00000000000E+00 0.  1.
          1    1    1    2  501    0 -0.22071342008E+02 -0.47362547694E+02 -0.10092348408E+02  0.53218517064E+02  0.00000000000E+00 0. -1.
<scales pt_clust_5="13000.00000" pt_clust_6="13000.00000" pt_clust_7="13000.00000" pt_clust_8="13000.00000" pt_clust_9="52.25280"></scales>
<clustering>
<clus scale="   52.253">  1  9  2 -1</clus>
<clus scale="   78.729">  5  6 -1 -1</clus>
<clus scale="   78.926">  2  5  1 -1</clus>
<clus scale="   91.927">  7  8 -1 -1</clus>
<clus scale="   52.253">  1  5  2 -1</clus>
</clustering>
</event>
<event>
 9    2  0.9254368E-005  0.1192137E+03  0.7546771E-02  0.1252985E+00
          2   -1    0    0  502    0 -0.00000000000E+00  0.00000000000E+00  0.94079855869E+03  0.94079855869E+03  0.00000000000E+00 0. -1.
         21   -1    0    0  501  502  0.00000000000E+00 -0.00000000000E+00 -0.16201610142E+03  0.16201610142E+03  0.00000000000E+00 0. -1.
         24    2    1    2    0    0  0.27577375499E+02 -0.52421541850E+02  0.82511358731E+03  0.83105881316E+03  0.79610233509E+02 0.  0.
         23    2    1    2    0    0 -0.53135088359E+02  0.71377608036E+02  0.68971718326E+02  0.15214282101E+03  0.10233396070E+03 0.  0.
        -13    1    3    3    0    0 -0.22414519733E+02 -0.20496919801E+02  0.13374998550E+03  0.13715536095E+03  0.00000000000E+00 0.  1.
         14    1    3    3    0    0  0.49991895232E+02 -0.31924622049E+02  0.69136360181E+03  0.69390345221E+03  0.00000000000E+00 0. -1.
        -13    1    4    4    0    0 -0.60784258666E+02  0.44126559539E+00  0.48933779496E+02  0.78034835764E+02  0.00000000000E+00 0. -1.
         13    1    4    4    0    0  0.76491703076E+01  0.70936342441E+02  0.20037938830E+02  0.74107985250E+02  0.00000000000E+00 0.  1.
          1    1    1    2  501    0  0.25557712860E+02 -0.18956066186E+02 -0.11530284837E+03  0.11961302594E+03  0.00000000000E+00 0. -1.
<scales pt_clust_5="13000.00000" pt_clust_6="13000.00000" pt_clust_7="13000.00000" pt_clust_8="13000.00000" pt_clust_9="31.82026"></scales>
<clustering>
<clus scale="   31.820">  2  9  1 -1</clus>
<clus scale="   79.610">  5  6 -1 -1</clus>
<clus scale="  100.387">  1  5  2 -1</clus>
<clus scale="  102.334">  7  8 -1 -1</clus>
<clus scale="   31.820">  2  5  1 -1</clus>
</clustering>
</event>
<event>
 9    2  0.9254368E-005  0.1479999E+03  0.7546771E-02  0.1229002E+00
         21   -1    0    0  501  502  0.00000000000E+00  0.00000000000E+00  0.77518179225E+02  0.77518179225E+02  0.00000000000E+00 0. -1.
          2   -1    0    0  502    0 -0.00000000000E+00 -0.00000000000E+00 -0.40063588513E+03  0.40063588513E+03  0.00000000000E+00 0. -1.
         24    2    1    2    0    0 -0.12455558442E+02  0.23457971118E+02 -0.80962887563E+02  0.11762440420E+03  0.81086953050E+02 0.  0.
         23    2    1    2    0    0 -0.10315345070E+03 -0.51193232792E+02 -0.11745031300E+03  0.18823368984E+03  0.91520295526E+02 0.  0.
        -13    1    3    3    0    0 -0.17542360920E+02  0.52752490506E+02 -0.52878991838E+02  0.76725142287E+02  0.00000000000E+00 0.  1.
         14    1    3    3    0    0  0.50868024780E+01 -0.29294519388E+02 -0.28083895725E+02  0.40899261910E+02  0.00000000000E+00 0. -1.
        -11    1    4    4    0    0 -0.52189078891E+02  0.56082498494E+01 -0.55414761623E+01  0.52781250268E+02  0.00000000000E+00 0. -1.
         11    1    4    4    0    0 -0.50964371807E+02 -0.56801482642E+02 -0.11190883684E+03  0.13545243958E+03  0.00000000000E+00 0.  1.
          1    1    1    2  501    0  0.11560900914E+03  0.27735261675E+02 -0.12470450533E+03  0.17229597031E+03  0.00000000000E+00 0. -1.
<scales pt_clust_5="13000.00000" pt_clust_6="13000.00000" pt_clust_7="13000.00000" pt_clust_8="13000.00000" pt_clust_9="116.31002"></scales>
<clustering>
<clus scale="   81.087">  5  6 -1 -1</clus>
<clus scale="   85.326">  2  5  1 -1</clus>
<clus scale="   91.520">  7  8 -1 -1</clus>
<clus scale="  116.310">  1  9  2 -1</clus>
<clus scale="  116.310">  1  5  2 -1</clus>
</clustering>
</event>
<event>
 9    2  0.9254368E-005  0.1814633E+03  0.7546771E-02  0.1167440E+00
          2   -1    0    0  502    0 -0.00000000000E+00  0.00000000000E+00  0.34532391065E+03  0.34532391065E+03  0.00000000000E+00 0. -1.
         21   -1    0    0  501  502  0.00000000000E+00 -0.00000000000E+00 -0.16495595482E+03  0.16495595482E+03  0.00000000000E+00 0. -1.
         23    2    1    2    0    0  0.14443198272E+03 -0.39623670545E+02  0.41687020081E+02  0.17973526494E+03  0.90201579363E+02 0.  0.
         24    2    1    2    0    0 -0.11973732767E+03  0.13331185701E+03  0.59813040227E+02  0.20561483140E+03  0.81183620587E+02 0.  0.
        -13    1    4    4    0    0 -0.13235746480E+02  0.17545061500E+02 -0.19558915950E+02  0.29420492196E+02  0.00000000000E+00 0.  1.
         14    1    4    4    0    0 -0.10650158119E+03  0.11576679551E+03  0.79371956177E+02  0.17619433920E+03  0.00000000000E+00 0. -1.
        -11    1    3    3    0    0  0.13314763834E+03 -0.28449669775E+01  0.17575109163E+02  0.13433269109E+03  0.00000000000E+00 0. -1.
         11    1    3    3    0    0  0.11284344379E+02 -0.36778703568E+02  0.24111910918E+02  0.45402573851E+02  0.00000000000E+00 0.  1.
          1    1    1    2  501    0 -0.24694655048E+02 -0.93688186465E+02  0.78867895528E+02  0.12492976913E+03  0.00000000000E+00 0. -1.
<scales pt_clust_5="13000.00000" pt_clust_6="13000.00000" pt_clust_7="13000.00000" pt_clust_8="13000.00000" pt_clust_9="96.88814"></scales>
<clustering>
<clus scale="   81.184">  5  6 -1 -1</clus>
<clus scale="   90.202">  7  8 -1 -1</clus>
<clus scale="   96.888">  2  9  1 -1</clus>
<clus scale="  177.154">  2  5  1 -1</clus>
<clus scale="   96.888">  2  5  1 -1</clus>
</clustering>
</event>
<event>
 9    2  0.9254368E-005  0.2022555E+03  0.7546771E-02  0.1186016E+00
          2   -1    0    0  502    0 -0.00000000000E+00  0.00000000000E+00  0.52028279135E+03  0.52028279135E+03  0.00000000000E+00 0. -1.
         21   -1    0    0  501  502  0.00000000000E+00 -0.00000000000E+00 -0.16721885366E+03  0.16721885366E+03  0.00000000000E+00 0. -1.
         24    2    1    2    0    0  0.47403697248E+01  0.23720851815E+02  0.15336781025E+03  0.17489602943E+03  0.80509539633E+02 0.  0.
         23    2    1    2    0    0 -0.16938680007E+03  0.48145302821E+02 -0.47216082345E+02  0.20725527492E+03  0.98567399927E+02 0.  0.
        -13    1    3    3    0    0  0.31031318522E+02  0.38177666622E+02  0.64642886143E+02  0.81235335211E+02  0.00000000000E+00 0.  1.
         14    1    3    3    0    0 -0.26290948797E+02 -0.14456814806E+02  0.88724924107E+02  0.93660694214E+02  0.00000000000E+00 0. -1.
        -11    1    4    4    0    0 -0.15493713327E+03  0.27763489982E+02 -0.41415803932E+01  0.15745945297E+03  0.00000000000E+00 0. -1.
         11    1    4    4    0    0 -0.14449666802E+02  0.20381812839E+02 -0.43074501951E+02  0.49795821950E+02  0.00000000000E+00 0.  1.
          1    1    1    2  501    0  0.16464643035E+03 -0.71866154636E+02  0.24691220978E+03  0.30535034067E+03  0.00000000000E+00 0. -1.
<scales pt_clust_5="13000.00000" pt_clust_6="13000.00000" pt_clust_7="13000.00000" pt_clust_8="13000.00000" pt_clust_9="176.61201"></scales>
<clustering>
<clus scale="   80.510">  5  6 -1 -1</clus>
<clus scale="   84.065">  1  5  2 -1</clus>
<clus scale="   98.567">  7  8 -1 -1</clus>
<clus scale="  176.612">  2  9  1 -1</clus>
<clus scale="  176.612">  2  5  1 -1</clus>
</clustering>
</event>
<event>
 9    2  0.9254368E-005  0.1005808E+03  0.7546771E-02  0.1283704E+00
         21   -1    0    0  501  502  0.00000000000E+00  0.00000000000E+00  0.72981156607E+02  0.72981156607E+02  0.00000000000E+00 0.  1.
          2   -1    0    0  502    0 -0.00000000000E+00 -0.00000000000E+00 -0.27906581242E+03  0.27906581242E+03  0.00000000000E+00 0. -1.
         24    2    1    2    0    0  0.34696306542E+01 -0.31441315899E+02 -0.10133768518E+03  0.13370524341E+03  0.81284506483E+02 0.  0.
         23    2    1    2    0    0 -0.63193773912E+02  0.56250882608E+02 -0.50602352384E+02  0.13399643783E+03  0.90756996577E+02 0.  0.
        -13    1    3    3    0    0 -0.31438788715E+02 -0.15810773679E+02 -0.13126831791E+02  0.37559176150E+02  0.00000000000E+00 0.  1.
         14    1    3    3    0    0  0.34908419369E+02 -0.15630542219E+02 -0.88210853393E+02  0.96146067258E+02  0.00000000000E+00 0. -1.
        -13    1    4    4    0    0 -0.21475755921E+02  0.34169839536E+02  0.23080151163E+02  0.46491713283E+02  0.00000000000E+00 0.  1.
         13    1    4    4    0    0 -0.41718017991E+02  0.22081043072E+02 -0.73682503547E+02  0.87504724542E+02  0.00000000000E+00 0. -1.
          1    1    1    2  501    0  0.59724143258E+02 -0.24809566710E+02 -0.54144618250E+02  0.84345287798E+02  0.00000000000E+00 0. -1.
<scales pt_clust_5="13000.00000" pt_clust_6="13000.00000" pt_clust_7="13000.00000" pt_clust_8="13000.00000" pt_clust_9="64.67219"></scales>
<clustering>
<clus scale="   64.672">  1  9  2 -1</clus>
<clus scale="   81.285">  5  6 -1 -1</clus>
<clus scale="   90.757">  7  8 -1 -1</clus>
<clus scale="   92.124">  2  5  1 -1</clus>
<clus scale="   64.672">  1  5  2 -1</clus>
</clustering>
</event>
<event>
 9    2  0.1014080E-004  0.3610521E+03  0.7546771E-02  0.1107436E+00
         21   -1    0    0  501  502  0.00000000000E+00  0.00000000000E+00  0.22350002154E+03  0.22350002154E+03  0.00000000000E+00 0. -1.
          2   -1    0    0  502    0 -0.00000000000E+00 -0.00000000000E+00 -0.11031329470E+04  0.11031329470E+04  0.00000000000E+00 0. -1.
         24    2    1    2    0    0  0.35026034749E+02  0.22902122818E+02 -0.22571778560E+03  0.24542801980E+03  0.86804745426E+02 0.  0.
         23    2    1    2    0    0  0.96473512060E+02 -0.33714031821E+03 -0.23161159277E+02  0.36434487990E+03  0.96125020259E+02 0.  0.
        -11    1    3    3    0    0 -0.24174729700E+02  0.61847102247E+01 -0.24318160229E+02  0.34843092767E+02  0.00000000000E+00 0.  1.
         12    1    3    3    0    0  0.59200764449E+02  0.16717412594E+02 -0.20139962537E+03  0.21058492703E+03  0.00000000000E+00 0. -1.
        -11    1    4    4    0    0  0.24919107748E+01 -0.29328582314E+02 -0.30547380134E+02  0.42420723626E+02  0.00000000000E+00 0.  1.
         11    1    4    4    0    0  0.93981601286E+02 -0.30781173590E+03  0.73862208578E+01  0.32192415628E+03  0.00000000000E+00 0. -1.
          1    1    1    2  501    0 -0.13149954681E+03  0.31423819539E+03 -0.63075398056E+03  0.71686006880E+03  0.00000000000E+00 0. -1.
<scales pt_clust_5="13000.00000" pt_clust_6="13000.00000" pt_clust_7="13000.00000" pt_clust_8="13000.00000" pt_clust_9="348.02117"></scales>
<clustering>
<clus scale="   86.805">  5  6 -1 -1</clus>
<clus scale="   96.125">  7  8 -1 -1</clus>
<clus scale="   96.366">  2  5  1 -1</clus>
<clus scale="  348.021">  1  9  2 -1</clus>
<clus scale="  348.021">  1  5  2 -1</clus>
</clustering>
</event>
<event>
 9    2  0.9254368E-005  0.1145152E+03  0.7546771E-02  0.1257585E+00
         21   -1    0    0  501  502  0.00000000000E+00  0.00000000000E+00  0.21580194280E+02  0.21580194280E+02  0.00000000000E+00 0. -1.
          2   -1    0    0  502    0 -0.00000000000E+00 -0.00000000000E+00 -0.17254587365E+04  0.17254587365E+04  0.00000000000E+00 0. -1.
         24    2    1    2    0    0 -0.61454410044E+02 -0.11612035163E+02 -0.12502704442E+04  0.12542290202E+04  0.77477529355E+02 0.  0.
         23    2    1    2    0    0  0.10700529771E+03  0.27863786346E+02 -0.35483113344E+03  0.38282858711E+03  0.91793624632E+02 0.  0.
        -11    1    3    3    0    0  0.38295258069E+01 -0.20611967069E+02 -0.10547696125E+03  0.10754026134E+03  0.00000000000E+00 0.  1.
         12    1    3    3    0    0 -0.65283935851E+02  0.89999319053E+01 -0.11447934829E+04  0.11466887588E+04  0.00000000000E+00 0. -1.
        -13    1    4    4    0    0  0.28973301976E+02 -0.33535489721E+02 -0.10298802552E+03  0.11211875267E+03  0.00000000000E+00 0.  1.
         13    1    4    4    0    0  0.78031995733E+02  0.61399276067E+02 -0.25184310792E+03  0.27070983445E+03  0.00000000000E+00 0. -1.
          1    1    1    2  501    0 -0.45550887665E+02 -0.16251751183E+02 -0.98776964549E+02  0.10998132346E+03  0.00000000000E+00 0. -1.
<scales pt_clust_5="13000.00000" pt_clust_6="13000.00000" pt_clust_7="13000.00000" pt_clust_8="13000.00000" pt_clust_9="48.36324"></scales>
<clustering>
<clus scale="   48.363">  1  9  2 -1</clus>
<clus scale="   77.478">  5  6 -1 -1</clus>
<clus scale="   91.794">  7  8 -1 -1</clus>
<clus scale="  103.395">  2  5  1 -1</clus>
<clus scale="   48.363">  1  5  2 -1</clus>
</clustering>
</event>
<event>
 9    2  0.9254368E-005  0.1533790E+03  0.7546771E-02  0.1198888E+00
         21   -1    0    0  501  502  0.00000000000E+00  0.00000000000E+00  0.59875854370E+02  0.59875854370E+02  0.00000000000E+00 0.  1.
         -1   -1    0    0    0  501 -0.00000000000E+00 -0.00000000000E+00 -0.84079528007E+03  0.84079528007E+03  0.00000000000E+00 0.  1.
         24    2    1    2    0    0  0.20873102263E+02 -0.99240707782E+02 -0.29301159671E+03  0.32069061069E+03  0.81867377478E+02 0.  0.
         23    2    1    2    0    0 -0.12916697687E+03  0.11049074276E+03 -0.37762954048E+03  0.42501140593E+03  0.95594524816E+02 0.  0.
        -11    1    3    3    0    0  0.29016045882E+02 -0.42216048118E+02 -0.52398460426E+02  0.73278402632E+02  0.00000000000E+00 0.  1.
         12    1    3    3    0    0 -0.81429436185E+01 -0.57024659664E+02 -0.24061313629E+03  0.24741220805E+03  0.00000000000E+00 0. -1.
        -13    1    4    4    0    0 -0.59144790537E+02 -0.30484748775E+01 -0.87169933082E+02  0.10538499267E+03  0.00000000000E+00 0. -1.
         13    1    4    4    0    0 -0.70022186333E+02  0.11353921764E+03 -0.29045960740E+03  0.31962641326E+03  0.00000000000E+00 0.  1.
         -2    1    1    2    0  502  0.10829387461E+03 -0.11250034976E+02 -0.11027828851E+03  0.15496911783E+03  0.00000000000E+00 0.  1.
<scales pt_clust_5="13000.00000" pt_clust_6="13000.00000" pt_clust_7="13000.00000" pt_clust_8="13000.00000" pt_clust_9="108.87666"></scales>
<clustering>
<clus scale="   81.867">  5  6 -1 -1</clus>
<clus scale="   95.595">  7  8 -1 -1</clus>
<clus scale="  108.877">  1  9  2 -1</clus>
<clus scale="  145.221">  2  5  1 -1</clus>
<clus scale="  108.877">  1  5  2 -1</clus>
</clustering>
</event>
<event>
 9    2  0.9254368E-005  0.1510684E+03  0.7546771E-02  0.1216950E+00
          2   -1    0    0  502    0 -0.00000000000E+00  0.00000000000E+00  0.11343775860E+04  0.11343775860E+04  0.00000000000E+00 0. -1.
         21   -1    0    0  501  502  0.00000000000E+00 -0.00000000000E+00 -0.55128952803E+02  0.55128952803E+02  0.00000000000E+00 0.  1.
         24    2    1    2    0    0 -0.13959780527E+02  0.62597757115E+02  0.67609886646E+02  0.12337884548E+03  0.80857207920E+02 0.  0.
         23    2    1    2    0    0  0.87841754024E+01  0.10595323191E+03  0.24818672877E+03  0.28427399457E+03  0.88948313995E+02 0.  0.
        -11    1    3    3    0    0  0.22703511248E+02  0.48845344409E+02  0.11699543818E+02  0.55119836891E+02  0.00000000000E+00 0.  1.
         12    1    3    3    0    0 -0.36663291775E+02  0.13752412707E+02  0.55910342828E+02  0.68259008594E+02  0.00000000000E+00 0. -1.
        -13    1    4    4    0    0  0.31093332494E+02  0.86708530748E+02  0.11237983221E+03  0.14530791898E+03  0.00000000000E+00 0.  1.
         13    1    4    4    0    0 -0.22309157092E+02  0.19244701164E+02  0.13580689656E+03  0.13896607559E+03  0.00000000000E+00 0. -1.
          1    1    1    2  501    0  0.51756051250E+01 -0.16855098903E+03  0.76345201782E+03  0.78185369878E+03  0.00000000000E+00 0. -1.
<scales pt_clust_5="13000.00000" pt_clust_6="13000.00000" pt_clust_7="13000.00000" pt_clust_8="13000.00000" pt_clust_9="122.10603"></scales>
<clustering>
<clus scale="   80.857">  5  6 -1 -1</clus>
<clus scale="   88.948">  7  8 -1 -1</clus>
<clus scale="  103.205">  1  5  2 -1</clus>
<clus scale="  122.106">  2  9  1 -1</clus>
<clus scale="  122.106">  2  5  1 -1</clus>
</clustering>
</event>
<event>
 9    2  0.9254368E-005  0.9535368E+02  0.7546771E-02  0.1292504E+00
         21   -1    0    0  501  502  0.00000000000E+00  0.00000000000E+00  0.57221892583E+02  0.57221892583E+02  0.00000000000E+00 0.  1.
         -3   -1    0    0    0  501 -0.00000000000E+00 -0.00000000000E+00 -0.51037440505E+03  0.51037440505E+03  0.00000000000E+00 0.  1.
         24    2    1    2    0    0  0.48567456324E+02 -0.16361204855E+01 -0.41402957507E+03  0.42479451102E+03  0.81660350571E+02 0.  0.
         23    2    1    2    0    0 -0.10262866715E+02  0.29040169850E+01 -0.53720141890E+02  0.10179047688E+03  0.85800278500E+02 0.  0.
        -11    1    3    3    0    0  0.17837692772E+02 -0.39553581509E+02 -0.14420317283E+03  0.15058958844E+03  0.00000000000E+00 0.  1.
         12    1    3    3    0    0  0.30729763551E+02  0.37917461024E+02 -0.26982640225E+03  0.27420492258E+03  0.00000000000E+00 0. -1.
        -11    1    4    4    0    0  0.20452458475E+02  0.34865204531E+02 -0.15604049522E+02  0.43328649946E+02  0.00000000000E+00 0.  1.
         11    1    4    4    0    0 -0.30715325191E+02 -0.31961187546E+02 -0.38116092368E+02  0.58461826933E+02  0.00000000000E+00 0. -1.
         -4    1    1    2    0  502 -0.38304589608E+02 -0.12678964995E+01  0.14597204498E+02  0.41011309730E+02  0.00000000000E+00 0.  1.
<scales pt_clust_5="13000.00000" pt_clust_6="13000.00000" pt_clust_7="13000.00000" pt_clust_8="13000.00000" pt_clust_9="38.32557"></scales>
<clustering>
<clus scale="   38.326">  1  9  2 -1</clus>
<clus scale="   81.660">  5  6 -1 -1</clus>
<clus scale="   85.800">  7  8 -1 -1</clus>
<clus scale="   91.646">  2  5  1 -1</clus>
<clus scale="   38.326">  1  5  2 -1</clus>
</clustering>
</event>
<event>
 9    2  0.9254368E-005  0.1160376E+03  0.7546771E-02  0.1254568E+00
         21   -1    0    0  501  502  0.00000000000E+00  0.00000000000E+00  0.25715773749E+03  0.25715773749E+03  0.00000000000E+00 0.  1.
         -1   -1    0    0    0  501 -0.00000000000E+00 -0.00000000000E+00 -0.29609053410E+03  0.29609053410E+03  0.00000000000E+00 0.  1.
         23    2    1    2    0    0 -0.63205263571E+02 -0.20377725713E+02 -0.23809993487E+03  0.26369543235E+03  0.91834334579E+02 0.  0.
         24    2    1    2    0    0  0.11122618629E+03  0.18572248372E+02  0.74813151508E+02  0.15623673823E+03  0.78081481844E+02 0.  0.
        -13    1    4    4    0    0  0.65303712862E+02  0.44805104819E+02  0.23650462431E+02  0.82652384749E+02  0.00000000000E+00 0.  1.
         14    1    4    4    0    0  0.45922473426E+02 -0.26232856447E+02  0.51162689077E+02  0.73584353476E+02  0.00000000000E+00 0. -1.
        -11    1    3    3    0    0  0.14953077962E+02  0.19475276321E+02 -0.38470957522E+02  0.45638749993E+02  0.00000000000E+00 0. -1.
         11    1    3    3    0    0 -0.78158341533E+02 -0.39853002033E+02 -0.19962897735E+03  0.21805668235E+03  0.00000000000E+00 0.  1.
         -2    1    1    2    0  502 -0.48020922717E+02  0.18054773408E+01  0.12435398675E+03  0.13331610101E+03  0.00000000000E+00 0.  1.
<scales pt_clust_5="13000.00000" pt_clust_6="13000.00000" pt_clust_7="13000.00000" pt_clust_8="13000.00000" pt_clust_9="48.05485"></scales>
<clustering>
<clus scale="   48.055">  1  9  2 -1</clus>
<clus scale="   78.081">  5  6 -1 -1</clus>
<clus scale="   91.834">  7  8 -1 -1</clus>
<clus scale="  105.489">  1  5  2 -1</clus>
<clus scale="   48.055">  1  5  2 -1</clus>
</clustering>
</event>
<event>
 9    2  0.9254368E-005  0.3259183E+03  0.7546771E-02  0.1099815E+00
          4   -1    0    0  502    0 -0.00000000000E+00  0.00000000000E+00  0.32463870869E+03  0.32463870869E+03  0.00000000000E+00 0. -1.
         21   -1    0    0  501  502  0.00000000000E+00 -0.00000000000E+00 -0.77576533871E+03  0.77576533871E+03  0.00000000000E+00 0. -1.
         24    2    1    2    0    0  0.12676148806E+03  0.52419697219E+02 -0.20397888396E+03  0.25890223538E+03  0.81281503865E+02 0.  0.
         23    2    1    2    0    0 -0.41194484173E+03 -0.82414226662E+02  0.44791252960E+02  0.43228598125E+03  0.91510960294E+02 0.  0.
        -13    1    3    3    0    0  0.26193917376E+02  0.72231218891E+01 -0.15957066694E+00  0.27172049244E+02  0.00000000000E+00 0.  1.
         14    1    3    3    0    0  0.10056757069E+03  0.45196575330E+02 -0.20381931329E+03  0.23173018613E+03  0.00000000000E+00 0. -1.
        -13    1    4    4    0    0 -0.32619082755E+03 -0.27112317408E+02  0.24357720097E+02  0.32822070663E+03  0.00000000000E+00 0. -1.
         13    1    4    4    0    0 -0.85754014185E+02 -0.55301909254E+02  0.20433532863E+02  0.10406527462E+03  0.00000000000E+00 0.  1.
          3    1    1    2  501    0  0.28518335367E+03  0.29994529443E+02 -0.29193899902E+03  0.40921583078E+03  0.00000000000E+00 0. -1.
<scales pt_clust_5="13000.00000" pt_clust_6="13000.00000" pt_clust_7="13000.00000" pt_clust_8="13000.00000" pt_clust_9="312.80747"></scales>
<clustering>
<clus scale="   81.282">  5  6 -1 -1</clus>
<clus scale="   91.511">  7  8 -1 -1</clus>
<clus scale="  159.446">  1  5  2 -1</clus>
<clus scale="  312.807">  2  9  1 -1</clus>
<clus scale="  312.807">  2  5  1 -1</clus>
</clustering>
</event>
<event>
 9    2  0.9254368E-005  0.1036551E+03  0.7546771E-02  0.1277488E+00
          2   -1    0    0  502    0 -0.00000000000E+00  0.00000000000E+00  0.49415609734E+03  0.49415609734E+03  0.00000000000E+00 0. -1.
         21   -1    0    0  501  502  0.00000000000E+00 -0.00000000000E+00 -0.19669371017E+03  0.19669371017E+03  0.00000000000E+00 0. -1.
         23    2    1    2    0    0 -0.52378976679E+02 -0.21550565554E+02  0.44760977679E+03  0.46019071072E+03  0.90625569689E+02 0.  0.
         24    2    1    2    0    0  0.17080134769E+01 -0.27205617178E+02 -0.27195944577E+02  0.89019520030E+02  0.80260778896E+02 0.  0.
        -11    1    4    4    0    0  0.77667590485E+01  0.19905894418E+02 -0.34877982567E+02  0.40902821989E+02  0.00000000000E+00 0.  1.
         12    1    4    4    0    0 -0.60587455716E+01 -0.47111511596E+02  0.76820379904E+01  0.48116698042E+02  0.00000000000E+00 0. -1.
        -11    1    3    3    0    0 -0.71084585110E+02 -0.38138801660E+02  0.36840510026E+03  0.37713380162E+03  0.00000000000E+00 0. -1.
         11    1    3    3    0    0  0.18705608430E+02  0.16588236106E+02  0.79204676537E+02  0.83056909099E+02  0.00000000000E+00 0.  1.
          1    1    1    2  501    0  0.50670963203E+02  0.48756182732E+02 -0.12295144505E+03  0.14163957676E+03  0.00000000000E+00 0. -1.
<scales pt_clust_5="13000.00000" pt_clust_6="13000.00000" pt_clust_7="13000.00000" pt_clust_8="13000.00000" pt_clust_9="70.31865"></scales>
<clustering>
<clus scale="   70.319">  2  9  1 -1</clus>
<clus scale="   80.261">  5  6 -1 -1</clus>
<clus scale="   90.626">  7  8 -1 -1</clus>
<clus scale="   94.727">  2  5  1 -1</clus>
<clus scale="   70.319">  2  5  1 -1</clus>
</clustering>
</event>
<event>
 9    2  0.9254368E-005  0.2683492E+03  0.7546771E-02  0.1137544E+00
         21   -1    0    0  501  502  0.00000000000E+00  0.00000000000E+00  0.11214131208E+03  0.11214131208E+03  0.00000000000E+00 0.  1.
          2   -1    0    0  502    0 -0.00000000000E+00 -0.00000000000E+00 -0.12809754937E+04  0.12809754937E+04  0.00000000000E+00 0. -1.
         23    2    1    2    0    0  0.38653976500E+02 -0.49203514842E+02 -0.14692356869E+03  0.18408098753E+03  0.91565054265E+02 0.  0.
         24    2    1    2    0    0 -0.24918331563E+03 -0.75513238316E+02 -0.16709890868E+03  0.31989020538E+03  0.81321118212E+02 0.  0.
        -13    1    4    4    0    0 -0.22369321176E+03 -0.37436855399E+02 -0.13495013206E+03  0.26391610271E+03  0.00000000000E+00 0.  1.
         14    1    4    4    0    0 -0.25490103877E+02 -0.38076382916E+02 -0.32148776620E+02  0.55974102671E+02  0.00000000000E+00 0. -1.
        -13    1    3    3    0    0  0.58684120026E+02 -0.14122230931E+02 -0.47644303787E+02  0.76897613961E+02  0.00000000000E+00 0. -1.
         13    1    3    3    0    0 -0.20030143526E+02 -0.35081283911E+02 -0.99279264902E+02  0.10718337357E+03  0.00000000000E+00 0.  1.
          1    1    1    2  501    0  0.21052933913E+03  0.12471675316E+03 -0.85481170423E+03  0.88914561285E+03  0.00000000000E+00 0. -1.
<scales pt_clust_5="13000.00000" pt_clust_6="13000.00000" pt_clust_7="13000.00000" pt_clust_8="13000.00000" pt_clust_9="255.73078"></scales>
<clustering>
<clus scale="   81.321">  5  6 -1 -1</clus>
<clus scale="   91.565">  7  8 -1 -1</clus>
<clus scale="  110.902">  2  7  1 -1</clus>
<clus scale="  255.731">  1  9  2 -1</clus>
<clus scale="  255.731">  1  5  2 -1</clus>
</clustering>
</event>
<event>
 9    2  0.9254368E-005  0.9331722E+02  0.7546771E-02  0.1301827E+00
         21   -1    0    0  501  502  0.00000000000E+00  0.00000000000E+00  0.30749812002E+03  0.30749812002E+03  0.00000000000E+00 0. -1.
          2   -1    0    0  502    0 -0.00000000000E+00 -0.00000000000E+00 -0.50493705570E+02  0.50493705570E+02  0.00000000000E+00 0. -1.
         24    2    1    2    0    0 -0.47094313074E+01 -0.57215504367E+01  0.10582774541E+02  0.83232156268E+02  0.82223365519E+02 0.  0.
         23    2    1    2    0    0 -0.75052808479E+01 -0.17488067554E+02  0.19780549373E+03  0.21952005283E+03  0.93273139220E+02 0.  0.
        -13    1    3    3    0    0  0.17116424066E+02 -0.35422315844E+02 -0.10569435749E+02  0.40736045520E+02  0.00000000000E+00 0.  1.
         14    1    3    3    0    0 -0.21825855373E+02  0.29700765407E+02  0.21152210290E+02  0.42496110748E+02  0.00000000000E+00 0. -1.
        -13    1    4    4    0    0 -0.43958300996E+02 -0.23857808840E+02  0.15533965019E+03  0.16319293548E+03  0.00000000000E+00 0. -1.
         13    1    4    4    0    0  0.36453020149E+02  0.63697412853E+01  0.42465843531E+02  0.56327117349E+02  0.00000000000E+00 0.  1.
          1    1    1    2  501    0  0.12214712155E+02  0.23209617991E+02  0.48616146186E+02  0.55239616493E+02  0.00000000000E+00 0. -1.
<scales pt_clust_5="13000.00000" pt_clust_6="13000.00000" pt_clust_7="13000.00000" pt_clust_8="13000.00000" pt_clust_9="26.22757"></scales>
<clustering>
<clus scale="   26.228">  1  9  2 -1</clus>
<clus scale="   82.223">  5  6 -1 -1</clus>
<clus scale="   82.273">  2  5  1 -1</clus>
<clus scale="   93.273">  7  8 -1 -1</clus>
<clus scale="   26.228">  1  5  2 -1</clus>
</clustering>
</event>
<event>
 9    2  0.9254368E-005  0.1276201E+03  0.7546771E-02  0.1234204E+00
         21   -1    0    0  501  502  0.00000000000E+00  0.00000000000E+00  0.13661733401E+03  0.13661733401E+03  0.00000000000E+00 0. -1.
         -1   -1    0    0    0  501 -0.00000000000E+00 -0.00000000000E+00 -0.22044369863E+03  0.22044369863E+03  0.00000000000E+00 0.  1.
         24    2    1    2    0    0 -0.91428941354E+02  0.22289313339E+02 -0.10356751498E+03  0.16161980309E+03  0.80862016955E+02 0.  0.
         23    2    1    2    0    0  0.51022463839E+02 -0.70249706030E+02  0.33752993981E+02  0.13118226555E+03  0.92364545027E+02 0.  0.
        -11    1    3    3    0    0 -0.30050234073E+02  0.48703799590E+02 -0.49431273858E+02  0.75620946156E+02  0.00000000000E+00 0.  1.
         12    1    3    3    0    0 -0.61378707281E+02 -0.26414486251E+02 -0.54136241121E+02  0.85998856935E+02  0.00000000000E+00 0. -1.
        -11    1    4    4    0    0  0.52941674576E+02 -0.22423325633E+02 -0.18425807225E+02  0.60374968416E+02  0.00000000000E+00 0.  1.
         11    1    4    4    0    0 -0.19192107370E+01 -0.47826380397E+02  0.52178801206E+02  0.70807297131E+02  0.00000000000E+00 0. -1.
         -2    1    1    2    0  502  0.40406477515E+02  0.47960392691E+02 -0.14011843623E+02  0.64258963997E+02  0.00000000000E+00 0.  1.
<scales pt_clust_5="13000.00000" pt_clust_6="13000.00000" pt_clust_7="13000.00000" pt_clust_8="13000.00000" pt_clust_9="62.71270"></scales>
<clustering>
<clus scale="   62.713">  1  9  2 -1</clus>
<clus scale="   80.862">  5  6 -1 -1</clus>
<clus scale="   92.365">  7  8 -1 -1</clus>
<clus scale="  119.559">  2  5  1 -1</clus>
<clus scale="   62.713">  1  5  2 -1</clus>
</clustering>
</event>
<event>
 9    2  0.9254368E-005  0.9365745E+02  0.7546771E-02  0.1300378E+00
         21   -1    0    0  501  502  0.00000000000E+00  0.00000000000E+00  0.18883868625E+02  0.18883868625E+02  0.00000000000E+00 0. -1.
          2   -1    0    0  502    0 -0.00000000000E+00 -0.00000000000E+00 -0.13321751632E+04  0.13321751632E+04  0.00000000000E+00 0. -1.
         24    2    1    2    0    0  0.20678220701E+02  0.21383552143E+02 -0.84817548860E+03  0.85255488729E+03  0.81014389240E+02 0.  0.
         23    2    1    2    0    0  0.52075811179E+02 -0.99715118048E+01 -0.28142403829E+03  0.30060000275E+03  0.91375878487E+02 0.  0.
        -13    1    3    3    0    0 -0.22385599545E+02 -0.76802390898E+01 -0.10821118142E+03  0.11076895289E+03  0.00000000000E+00 0.  1.
         14    1    3    3    0    0  0.43063820246E+02  0.29063791232E+02 -0.73996430718E+03  0.74178593440E+03  0.00000000000E+00 0. -1.
        -11    1    4    4    0    0  0.73135903912E+01  0.33263693590E+02 -0.16610030120E+03  0.16955610274E+03  0.00000000000E+00 0.  1.
         11    1    4    4    0    0  0.44762220788E+02 -0.43235205395E+02 -0.11532373709E+03  0.13104390002E+03  0.00000000000E+00 0. -1.
          1    1    1    2  501    0 -0.72754031880E+02 -0.11412040338E+02 -0.18369176765E+03  0.19790414175E+03  0.00000000000E+00 0. -1.
<scales pt_clust_5="13000.00000" pt_clust_6="13000.00000" pt_clust_7="13000.00000" pt_clust_8="13000.00000" pt_clust_9="73.64363"></scales>
<clustering>
<clus scale="   73.644">  1  9  2 -1</clus>
<clus scale="   81.014">  5  6 -1 -1</clus>
<clus scale="   83.579">  2  5  1 -1</clus>
<clus scale="   91.376">  7  8 -1 -1</clus>
<clus scale="   73.644">  1  5  2 -1</clus>
</clustering>
</event>
<event>
 9    2  0.9254368E-005  0.9361094E+02  0.7546771E-02  0.1300644E+00
         21   -1    0    0  501  502  0.00000000000E+00  0.00000000000E+00  0.11235082499E+03  0.11235082499E+03  0.00000000000E+00 0. -1.
         -1   -1    0    0    0  501 -0.00000000000E+00 -0.00000000000E+00 -0.19928310358E+03  0.19928310358E+03  0.00000000000E+00 0.  1.
         24    2    1    2    0    0  0.46790407261E+01 -0.16204802569E+02 -0.14935477750E+03  0.17078639621E+03  0.81096575260E+02 0.  0.
         23    2    1    2    0    0 -0.26776304223E+02  0.25473075512E+02  0.36014529829E+02  0.10518844141E+03  0.91660862983E+02 0.  0.
        -11    1    3    3    0    0  0.37242755827E+02 -0.29647561116E+02 -0.85649066070E+02  0.97988587398E+02  0.00000000000E+00 0.  1.
         12    1    3    3    0    0 -0.32563715100E+02  0.13442758547E+02 -0.63705711431E+02  0.72797808810E+02  0.00000000000E+00 0. -1.
        -11    1    4    4    0    0 -0.11296421493E+00  0.25725057461E+02 -0.26678078046E+02  0.37060911895E+02  0.00000000000E+00 0.  1.
         11    1    4    4    0    0 -0.26663340008E+02 -0.25198194826E+00  0.62692607874E+02  0.68127529512E+02  0.00000000000E+00 0. -1.
         -2    1    1    2    0  502  0.22097263497E+02 -0.92682729433E+01  0.26407969082E+02  0.35659090965E+02  0.00000000000E+00 0.  1.
<scales pt_clust_5="13000.00000" pt_clust_6="13000.00000" pt_clust_7="13000.00000" pt_clust_8="13000.00000" pt_clust_9="23.96226"></scales>
<clustering>
<clus scale="   23.962">  1  9  2 -1</clus>
<clus scale="   81.097">  5  6 -1 -1</clus>
<clus scale="   83.294">  2  5  1 -1</clus>
<clus scale="   91.661">  7  8 -1 -1</clus>
<clus scale="   23.962">  1  5  2 -1</clus>
</clustering>
</event>
<event>
 9    2  0.9254368E-005  0.9996134E+02  0.7546771E-02  0.1285960E+00
         21   -1    0    0  501  502  0.00000000000E+00  0.00000000000E+00  0.20397041444E+02  0.20397041444E+02  0.00000000000E+00 0.  1.
          2   -1    0    0  502    0 -0.00000000000E+00 -0.00000000000E+00 -0.71525492501E+03  0.71525492501E+03  0.00000000000E+00 0. -1.
         24    2    1    2    0    0 -0.39173300656E+02 -0.10289311922E+02 -0.45708431048E+03  0.46591537846E+03  0.80688633482E+02 0.  0.
         23    2    1    2    0    0  0.27788047676E+02  0.33444823640E+02 -0.19239418637E+03  0.21753418913E+03  0.91732593287E+02 0.  0.
        -11    1    3    3    0    0 -0.28983270230E+02  0.28746906085E+02 -0.12761384900E+03  0.13398398792E+03  0.00000000000E+00 0.  1.
         12    1    3    3    0    0 -0.10190030426E+02 -0.39036218007E+02 -0.32947046148E+03  0.33193139054E+03  0.00000000000E+00 0. -1.
        -13    1    4    4    0    0  0.60687358484E+01  0.53688802824E+02 -0.55498779446E+02  0.77455997983E+02  0.00000000000E+00 0.  1.
         13    1    4    4    0    0  0.21719311827E+02 -0.20243979184E+02 -0.13689540692E+03  0.14007819115E+03  0.00000000000E+00 0. -1.
          1    1    1    2  501    0  0.11385252980E+02 -0.23155511718E+02 -0.45379386726E+02  0.52202398871E+02  0.00000000000E+00 0. -1.
<scales pt_clust_5="13000.00000" pt_clust_6="13000.00000" pt_clust_7="13000.00000" pt_clust_8="13000.00000" pt_clust_9="25.80313"></scales>
<clustering>
<clus scale="   25.803">  1  9  2 -1</clus>
<clus scale="   80.689">  5  6 -1 -1</clus>
<clus scale="   89.934">  2  5  1 -1</clus>
<clus scale="   91.733">  7  8 -1 -1</clus>
<clus scale="   25.803">  1  5  2 -1</clus>
</clustering>
</event>
<event>
 9    2  0.9254368E-005  0.3554796E+03  0.7546771E-02  0.1060388E+00
         21   -1    0    0  501  502  0.00000000000E+00  0.00000000000E+00  0.42257734097E+03  0.42257734097E+03  0.00000000000E+00 0.  1.
          2   -1    0    0  502    0 -0.00000000000E+00 -0.00000000000E+00 -0.78644522775E+03  0.78644522775E+03  0.00000000000E+00 0. -1.
         24    2    1    2    0    0 -0.65535957043E+01  0.15105143478E+03 -0.44169660281E+03  0.47445294860E+03  0.84559008606E+02 0.  0.
         23    2    1    2    0    0 -0.39695278421E+02  0.13828712774E+03 -0.24487477064E+03  0.29868740847E+03  0.92474157777E+02 0.  0.
        -13    1    3    3    0    0 -0.28214236237E+02  0.14816994812E+03 -0.39736176374E+03  0.42502558503E+03  0.00000000000E+00 0.  1.
         14    1    3    3    0    0  0.21660640533E+02  0.28814866607E+01 -0.44334839073E+02  0.49427363568E+02  0.00000000000E+00 0. -1.
        -11    1    4    4    0    0 -0.19240549355E+02  0.10508817813E+03 -0.92223527324E+02  0.14113434350E+03  0.00000000000E+00 0.  1.
         11    1    4    4    0    0 -0.20454729066E+02  0.33198949604E+02 -0.15265124332E+03  0.15755306497E+03  0.00000000000E+00 0. -1.
          1    1    1    2  501    0  0.46248874125E+02 -0.28933856252E+03  0.32270348667E+03  0.43588221165E+03  0.00000000000E+00 0. -1.
<scales pt_clust_5="13000.00000" pt_clust_6="13000.00000" pt_clust_7="13000.00000" pt_clust_8="13000.00000" pt_clust_9="293.01154"></scales>
<clustering>
<clus scale="   84.559">  5  6 -1 -1</clus>
<clus scale="   92.474">  7  8 -1 -1</clus>
<clus scale="  122.918">  5  7 -1 -1</clus>
<clus scale="  293.012">  1  9  2 -1</clus>
<clus scale="  293.012">  1  5  2 -1</clus>
</clustering>
</event>
<event>
 9    2  0.9254368E-005  0.9961668E+02  0.7546771E-02  0.1286843E+00
         21   -1    0    0  501  502  0.00000000000E+00  0.00000000000E+00  0.13929984757E+03  0.13929984757E+03  0.00000000000E+00 0. -1.
          2   -1    0    0  502    0 -0.00000000000E+00 -0.00000000000E+00 -0.49527403414E+03  0.49527403414E+03  0.00000000000E+00 0. -1.
         24    2    1    2    0    0 -0.30188366255E+02  0.16275553002E+02 -0.40475849449E+03  0.41415521643E+03  0.80739540208E+02 0.  0.
         23    2    1    2    0    0  0.97200025747E+02 -0.16286785792E+02 -0.44083273926E+01  0.13486155520E+03  0.91951624915E+02 0.  0.
        -11    1    3    3    0    0  0.55193824064E+01 -0.27002776778E+02 -0.80732758109E+02  0.85307630185E+02  0.00000000000E+00 0.  1.
         12    1    3    3    0    0 -0.35707748661E+02  0.43278329780E+02 -0.32402573638E+03  0.32884758625E+03  0.00000000000E+00 0. -1.
        -11    1    4    4    0    0 -0.77465177177E+01  0.21681229068E+02  0.17368087739E+01  0.23088974325E+02  0.00000000000E+00 0.  1.
         11    1    4    4    0    0  0.10494654346E+03 -0.37968014860E+02 -0.61451361664E+01  0.11177258088E+03  0.00000000000E+00 0. -1.
          1    1    1    2  501    0 -0.67011659492E+02  0.11232789688E-01  0.53192635307E+02  0.85557110078E+02  0.00000000000E+00 0. -1.
<scales pt_clust_5="13000.00000" pt_clust_6="13000.00000" pt_clust_7="13000.00000" pt_clust_8="13000.00000" pt_clust_9="67.01166"></scales>
<clustering>
<clus scale="   67.012">  1  9  2 -1</clus>
<clus scale="   80.740">  5  6 -1 -1</clus>
<clus scale="   89.371">  2  5  1 -1</clus>
<clus scale="   91.952">  7  8 -1 -1</clus>
<clus scale="   67.012">  1  5  2 -1</clus>
</clustering>
</event>
<event>
 9    2  0.9254368E-005  0.1051145E+03  0.7546771E-02  0.1274426E+00
         21   -1    0    0  501  502  0.00000000000E+00  0.00000000000E+00  0.45416589084E+03  0.45416589084E+03  0.00000000000E+00 0. -1.
          2   -1    0    0  502    0 -0.00000000000E+00 -0.00000000000E+00 -0.18998536483E+03  0.18998536483E+03  0.00000000000E+00 0. -1.
         24    2    1    2    0    0  0.52911751103E+02  0.12524452467E+02 -0.16065148598E+03  0.18748046700E+03  0.79896872567E+02 0.  0.
         23    2    1    2    0    0 -0.43486290735E+02  0.25391384694E+02  0.39270664759E+03  0.40608927971E+03  0.90300676249E+02 0.  0.
        -13    1    3    3    0    0  0.22884582479E+02 -0.24455346069E+02 -0.20065601064E+02  0.39043519471E+02  0.00000000000E+00 0.  1.
         14    1    3    3    0    0  0.30027168624E+02  0.36979798536E+02 -0.14058588492E+03  0.14843694753E+03  0.00000000000E+00 0. -1.
        -13    1    4    4    0    0 -0.55898337455E+02 -0.13583929511E+02  0.16505773523E+03  0.17479474600E+03  0.00000000000E+00 0.  1.
         13    1    4    4    0    0  0.12412046720E+02  0.38975314206E+02  0.22764891237E+03  0.23129453371E+03  0.00000000000E+00 0. -1.
          1    1    1    2  501    0 -0.94254603684E+01 -0.37915837162E+02  0.32125364401E+02  0.50581508960E+02  0.00000000000E+00 0. -1.
<scales pt_clust_5="13000.00000" pt_clust_6="13000.00000" pt_clust_7="13000.00000" pt_clust_8="13000.00000" pt_clust_9="39.06981"></scales>
<clustering>
<clus scale="   39.070">  1  9  2 -1</clus>
<clus scale="   79.897">  5  6 -1 -1</clus>
<clus scale="   90.301">  7  8 -1 -1</clus>
<clus scale="   96.324">  2  5  1 -1</clus>
<clus scale="   39.070">  1  5  2 -1</clus>
</clustering>
</event>
<event>
 9    2  0.9254368E-005  0.1577591E+03  0.7546771E-02  0.1193118E+00
          4   -1    0    0  502    0 -0.00000000000E+00  0.00000000000E+00  0.43251769469E+03  0.43251769469E+03  0.00000000000E+00 0. -1.
         21   -1    0    0  501  502  0.00000000000E+00 -0.00000000000E+00 -0.10828295708E+03  0.10828295708E+03  0.00000000000E+00 0.  1.
         24    2    1    2    0    0 -0.11943757211E+03  0.75500734256E+02  0.24673949222E+03  0.29509612676E+03  0.78966147835E+02 0.  0.
         23    2    1    2    0    0  0.51626867776E+02 -0.88705140763E+02 -0.64036822685E+01  0.13702298088E+03  0.90555809692E+02 0.  0.
        -13    1    3    3    0    0 -0.56465395232E+02 -0.40660855842E+01  0.59498147063E+02  0.82127360938E+02  0.00000000000E+00 0.  1.
         14    1    3    3    0    0 -0.62972176878E+02  0.79566819840E+02  0.18724134516E+03  0.21296876583E+03  0.00000000000E+00 0. -1.
        -11    1    4    4    0    0 -0.24176043481E+02 -0.32049243325E+02  0.89997909061E+01  0.41141600752E+02  0.00000000000E+00 0. -1.
         11    1    4    4    0    0  0.75802911258E+02 -0.56655897438E+02 -0.15403473175E+02  0.95881380129E+02  0.00000000000E+00 0.  1.
          3    1    1    2  501    0  0.67810704335E+02  0.13204406507E+02  0.83898927654E+02  0.10868154413E+03  0.00000000000E+00 0. -1.
<scales pt_clust_5="13000.00000" pt_clust_6="13000.00000" pt_clust_7="13000.00000" pt_clust_8="13000.00000" pt_clust_9="69.08439"></scales>
<clustering>
<clus scale="   69.084">  2  9  1 -1</clus>
<clus scale="   78.966">  5  6 -1 -1</clus>
<clus scale="   90.556">  7  8 -1 -1</clus>
<clus scale="  151.404">  1  5  2 -1</clus>
<clus scale="   69.084">  2  5  1 -1</clus>
</clustering>
</event>
<event>
 9    2  0.9254368E-005  0.2358878E+03  0.7546771E-02  0.1155845E+00
         21   -1    0    0  501  502  0.00000000000E+00  0.00000000000E+00  0.17099764451E+03  0.17099764451E+03  0.00000000000E+00 0. -1.
          2   -1    0    0  502    0 -0.00000000000E+00 -0.00000000000E+00 -0.60546293911E+03  0.60546293911E+03  0.00000000000E+00 0. -1.
         23    2    1    2    0    0 -0.44917992234E+02  0.22292045717E+02 -0.10393224546E+03  0.14813421834E+03  0.92883118314E+02 0.  0.
         24    2    1    2    0    0  0.23145597695E+03 -0.28018673894E+02  0.17349185816E+01  0.24723422894E+03  0.82248639280E+02 0.  0.
        -13    1    4    4    0    0  0.61792383069E+02  0.74326342238E+01  0.34014550700E+02  0.70926245608E+02  0.00000000000E+00 0.  1.
         14    1    4    4    0    0  0.16966359388E+03 -0.35451308118E+02 -0.32279632118E+02  0.17630798333E+03  0.00000000000E+00 0. -1.
        -11    1    3    3    0    0 -0.65916386807E+02  0.40376604548E+02 -0.82874817447E+02  0.11332905899E+03  0.00000000000E+00 0.  1.
         11    1    3    3    0    0  0.20998394573E+02 -0.18084558831E+02 -0.21057428013E+02  0.34805159349E+02  0.00000000000E+00 0. -1.
          1    1    1    2  501    0 -0.18653798471E+03  0.57266281771E+01 -0.33226796772E+03  0.38109213635E+03  0.00000000000E+00 0. -1.
<scales pt_clust_5="13000.00000" pt_clust_6="13000.00000" pt_clust_7="13000.00000" pt_clust_8="13000.00000" pt_clust_9="221.08429"></scales>
<clustering>
<clus scale="   82.249">  5  6 -1 -1</clus>
<clus scale="   92.883">  7  8 -1 -1</clus>
<clus scale="  105.555">  2  7  1 -1</clus>
<clus scale="  221.084">  1  9  2 -1</clus>
<clus scale="  221.084">  1  5  2 -1</clus>
</clustering>
</event>
<event>
 9    2  0.9254368E-005  0.1361277E+03  0.7546771E-02  0.1220946E+00
          4   -1    0    0  502    0 -0.00000000000E+00  0.00000000000E+00  0.62048688229E+03  0.62048688229E+03  0.00000000000E+00 0. -1.
         21   -1    0    0  501  502  0.00000000000E+00 -0.00000000000E+00 -0.81656404458E+02  0.81656404458E+02  0.00000000000E+00 0.  1.
         24    2    1    2    0    0 -0.10498608186E+03 -0.14358358811E+02  0.52121404129E+03  0.53798666093E+03  0.80853760833E+02 0.  0.
         23    2    1    2    0    0  0.75648808734E+02  0.20724445476E+02  0.40225719106E+02  0.12657495059E+03  0.90834270719E+02 0.  0.
        -13    1    3    3    0    0 -0.25798214159E+02 -0.41153313545E+02  0.15914755237E+03  0.16639437039E+03  0.00000000000E+00 0.  1.
         14    1    3    3    0    0 -0.79187867705E+02  0.26794954734E+02  0.36206648892E+03  0.37159229054E+03  0.00000000000E+00 0. -1.
        -11    1    4    4    0    0  0.45751204698E+02  0.50792077007E+02  0.47917299242E+02  0.83480988163E+02  0.00000000000E+00 0. -1.
         11    1    4    4    0    0  0.29897604037E+02 -0.30067631531E+02 -0.76915801360E+01  0.43093962431E+02  0.00000000000E+00 0.  1.
          3    1    1    2  501    0  0.29337273129E+02 -0.63660866657E+01 -0.22609282573E+02  0.37581675222E+02  0.00000000000E+00 0. -1.
<scales pt_clust_5="13000.00000" pt_clust_6="13000.00000" pt_clust_7="13000.00000" pt_clust_8="13000.00000" pt_clust_9="30.02004"></scales>
<clustering>
<clus scale="   30.020">  2  9  1 -1</clus>
<clus scale="   80.854">  5  6 -1 -1</clus>
<clus scale="   90.834">  7  8 -1 -1</clus>
<clus scale="  129.681">  1  5  2 -1</clus>
<clus scale="   30.020">  2  5  1 -1</clus>
</clustering>
</event>
<event>
 9    2  0.9254368E-005  0.1551413E+03  0.7546771E-02  0.1223028E+00
         21   -1    0    0  501  502  0.00000000000E+00  0.00000000000E+00  0.38653402427E+03  0.38653402427E+03  0.00000000000E+00 0.  1.
          2   -1    0    0  502    0 -0.00000000000E+00 -0.00000000000E+00 -0.12234391127E+03  0.12234391127E+03  0.00000000000E+00 0. -1.
         24    2    1    2    0    0  0.10105244332E+02 -0.18207812666E+02 -0.19179163217E+02  0.86035758055E+02  0.81244513398E+02 0.  0.
         23    2    1    2    0    0  0.55561082597E+02 -0.10418116886E+03  0.22905249278E+03  0.27370652696E+03  0.92246781028E+02 0.  0.
        -11    1    3    3    0    0 -0.33442485751E+02  0.28784429818E+01 -0.16942985989E+02  0.37599867838E+02  0.00000000000E+00 0.  1.
         12    1    3    3    0    0  0.43547730082E+02 -0.21086255647E+02 -0.22361772279E+01  0.48435890217E+02  0.00000000000E+00 0. -1.
        -13    1    4    4    0    0  0.74700410158E+02 -0.44492045433E+02  0.14010725800E+03  0.16489310819E+03  0.00000000000E+00 0. -1.
         13    1    4    4    0    0 -0.19139327561E+02 -0.59689123431E+02  0.88945234773E+02  0.10881341877E+03  0.00000000000E+00 0.  1.
          1    1    1    2  501    0 -0.65666326929E+02  0.12238898153E+03  0.54316783441E+02  0.14913565052E+03  0.00000000000E+00 0. -1.
<scales pt_clust_5="13000.00000" pt_clust_6="13000.00000" pt_clust_7="13000.00000" pt_clust_8="13000.00000" pt_clust_9="124.73721"></scales>
<clustering>
<clus scale="   81.245">  5  6 -1 -1</clus>
<clus scale="   83.871">  2  5  1 -1</clus>
<clus scale="   92.247">  7  8 -1 -1</clus>
<clus scale="  124.737">  1  9  2 -1</clus>
<clus scale="  124.737">  1  5  2 -1</clus>
</clustering>
</event>
<event>
 9    2  0.9254368E-005  0.1550419E+03  0.7546771E-02  0.1215370E+00
         21   -1    0    0  501  502  0.00000000000E+00  0.00000000000E+00  0.20151518784E+03  0.20151518784E+03  0.00000000000E+00 0. -1.
          2   -1    0    0  502    0 -0.00000000000E+00 -0.00000000000E+00 -0.20593058572E+03  0.20593058572E+03  0.00000000000E+00 0. -1.
         23    2    1    2    0    0 -0.29346235365E+02 -0.21863962974E+02 -0.47591708225E+02  0.10958613758E+03  0.91678331418E+02 0.  0.
         24    2    1    2    0    0 -0.80016907369E+02 -0.83967470070E+02  0.32331816623E+02  0.14528771113E+03  0.81301483036E+02 0.  0.
        -13    1    4    4    0    0  0.70041094396E+01 -0.31186032521E+02  0.29462644928E+02  0.43470376345E+02  0.00000000000E+00 0.  1.
         14    1    4    4    0    0 -0.87021016809E+02 -0.52781437549E+02  0.28691716949E+01  0.10181733478E+03  0.00000000000E+00 0. -1.
        -13    1    3    3    0    0  0.11513977492E+02 -0.36405236276E+02  0.80663352582E+01  0.39025359326E+02  0.00000000000E+00 0. -1.
         13    1    3    3    0    0 -0.40860212857E+02  0.14541273302E+02 -0.55658043483E+02  0.70560778258E+02  0.00000000000E+00 0.  1.
          1    1    1    2  501    0  0.10936314273E+03  0.10583143304E+03  0.10844493729E+02  0.15257192485E+03  0.00000000000E+00 0. -1.
<scales pt_clust_5="13000.00000" pt_clust_6="13000.00000" pt_clust_7="13000.00000" pt_clust_8="13000.00000" pt_clust_9="132.01545"></scales>
<clustering>
<clus scale="   81.301">  5  6 -1 -1</clus>
<clus scale="   91.678">  7  8 -1 -1</clus>
<clus scale="   98.712">  2  7  1 -1</clus>
<clus scale="  132.015">  1  9  2 -1</clus>
<clus scale="  132.015">  1  5  2 -1</clus>
</clustering>
</event>
<event>
 9    2  0.1507393E-004  0.3314863E+03  0.7546771E-02  0.1070847E+00
         21   -1    0    0  501  502  0.00000000000E+00  0.00000000000E+00  0.35774460651E+03  0.35774460651E+03  0.00000000000E+00 0. -1.
          2   -1    0    0  502    0 -0.00000000000E+00 -0.00000000000E+00 -0.16421832698E+04  0.16421832698E+04  0.00000000000E+00 0. -1.
         23    2    1    2    0    0 -0.28771328968E+03  0.14798289015E+03 -0.10123111425E+04  0.10668354918E+04  0.93200024222E+02 0.  0.
         24    2    1    2    0    0  0.28949299153E+03  0.11429256775E+02  0.24754829011E+03  0.38951318295E+03  0.80644551569E+02 0.  0.
        -11    1    4    4    0    0  0.81012373146E+02  0.40660833214E+01  0.25934019405E+02  0.85159327139E+02  0.00000000000E+00 0.  1.
         12    1    4    4    0    0  0.20848061839E+03  0.73631734532E+01  0.22161427070E+03  0.30435385581E+03  0.00000000000E+00 0. -1.
        -13    1    3    3    0    0 -0.65326648548E+02  0.15335661027E+02 -0.11749867458E+03  0.13530961546E+03  0.00000000000E+00 0.  1.
         13    1    3    3    0    0 -0.22238664113E+03  0.13264722913E+03 -0.89481246789E+03  0.93152587631E+03  0.00000000000E+00 0. -1.
          1    1    1    2  501    0 -0.17797018534E+01 -0.15941214693E+03 -0.51967581090E+03  0.54357920155E+03  0.00000000000E+00 0. -1.
<scales pt_clust_5="13000.00000" pt_clust_6="13000.00000" pt_clust_7="13000.00000" pt_clust_8="13000.00000" pt_clust_9="159.42216"></scales>
<clustering>
<clus scale="   80.645">  5  6 -1 -1</clus>
<clus scale="   93.200">  7  8 -1 -1</clus>
<clus scale="  159.422">  1  9  2 -1</clus>
<clus scale="  328.177">  1  5  2 -1</clus>
<clus scale="  159.422">  1  5  2 -1</clus>
</clustering>
</event>
<event>
 9    2  0.9254368E-005  0.1126872E+03  0.7546771E-02  0.1262357E+00
         21   -1    0    0  501  502  0.00000000000E+00  0.00000000000E+00  0.12975159798E+03  0.12975159798E+03  0.00000000000E+00 0. -1.
          4   -1    0    0  502    0 -0.00000000000E+00 -0.00000000000E+00 -0.19210487647E+03  0.19210487647E+03  0.00000000000E+00 0. -1.
         24    2    1    2    0    0  0.30981477558E+02 -0.35439523997E+02 -0.95445019960E+02  0.13514889735E+03  0.83304626556E+02 0.  0.
         23    2    1    2    0    0 -0.17992336985E+02  0.84634798171E+02  0.32926106079E+02  0.13582614425E+03  0.99387321873E+02 0.  0.
        -13    1    3    3    0    0  0.26134682821E+02 -0.37149975258E+02 -0.63009504221E+01  0.45856780132E+02  0.00000000000E+00 0.  1.
         14    1    3    3    0    0  0.48467947376E+01  0.17104512608E+01 -0.89144069538E+02  0.89292117213E+02  0.00000000000E+00 0. -1.
        -11    1    4    4    0    0  0.31054336872E+02  0.58237170997E+02  0.43617258218E+02  0.79110082409E+02  0.00000000000E+00 0. -1.
         11    1    4    4    0    0 -0.49046673857E+02  0.26397627174E+02 -0.10691152139E+02  0.56716061843E+02  0.00000000000E+00 0.  1.
          3    1    1    2  501    0 -0.12989140573E+02 -0.49195274174E+02  0.16563539653E+00  0.50881432851E+02  0.00000000000E+00 0. -1.
<scales pt_clust_5="13000.00000" pt_clust_6="13000.00000" pt_clust_7="13000.00000" pt_clust_8="13000.00000" pt_clust_9="50.88116"></scales>
<clustering>
<clus scale="   50.881">  1  9  2 -1</clus>
<clus scale="   83.305">  5  6 -1 -1</clus>
<clus scale="   98.794">  2  5  1 -1</clus>
<clus scale="   99.387">  7  8 -1 -1</clus>
<clus scale="   50.881">  1  5  2 -1</clus>
</clustering>
</event>
<event>
 9    2  0.9254368E-005  0.9181247E+02  0.7546771E-02  0.1303075E+00
          2   -1    0    0  502    0 -0.00000000000E+00  0.00000000000E+00  0.79908590472E+02  0.79908590472E+02  0.00000000000E+00 0. -1.
         21   -1    0    0  501  502  0.00000000000E+00 -0.00000000000E+00 -0.26975263697E+03  0.26975263697E+03  0.00000000000E+00 0.  1.
         24    2    1    2    0    0 -0.24030444075E+02 -0.33024254431E+01 -0.33186621547E+02  0.89487327264E+02  0.79487493575E+02 0.  0.
         23    2    1    2    0    0  0.36969612421E+02  0.27550199341E+02 -0.19170805473E+03  0.21563264666E+03  0.87290860521E+02 0.  0.
        -13    1    3    3    0    0  0.29263307025E+02 -0.52124480749E+01 -0.13433520245E+02  0.32618556363E+02  0.00000000000E+00 0.  1.
         14    1    3    3    0    0 -0.53293751100E+02  0.19100226318E+01 -0.19753101301E+02  0.56868770901E+02  0.00000000000E+00 0. -1.
        -13    1    4    4    0    0 -0.27255659317E+02  0.80291446878E+01 -0.34508724062E+02  0.44701120406E+02  0.00000000000E+00 0. -1.
         13    1    4    4    0    0  0.64225271737E+02  0.19521054653E+02 -0.15719933067E+03  0.17093152626E+03  0.00000000000E+00 0.  1.
          1    1    1    2  501    0 -0.12939168346E+02 -0.24247773898E+02  0.35050629783E+02  0.44541253515E+02  0.00000000000E+00 0. -1.
<scales pt_clust_5="13000.00000" pt_clust_6="13000.00000" pt_clust_7="13000.00000" pt_clust_8="13000.00000" pt_clust_9="27.48413"></scales>
<clustering>
<clus scale="   27.484">  2  9  1 -1</clus>
<clus scale="   79.487">  5  6 -1 -1</clus>
<clus scale="   84.428">  1  5  2 -1</clus>
<clus scale="   87.291">  7  8 -1 -1</clus>
<clus scale="   27.484">  2  5  1 -1</clus>
</clustering>
</event>
<event>
 9    2  0.9254368E-005  0.1429356E+03  0.7546771E-02  0.1211816E+00
          2   -1    0    0  502    0 -0.00000000000E+00  0.00000000000E+00  0.39553619561E+03  0.39553619561E+03  0.00000000000E+00 0. -1.
         21   -1    0    0  501  502  0.00000000000E+00 -0.00000000000E+00 -0.76380703717E+02  0.76380703717E+02  0.00000000000E+00 0.  1.
         23    2    1    2    0    0  0.11776461375E+03  0.69153484014E+00  0.24305976642E+03  0.28516845452E+03  0.91509643919E+02 0.  0.
         24    2    1    2    0    0 -0.97768162327E+02  0.72953755718E+01  0.94896261734E+02  0.15816332679E+03  0.79990633087E+02 0.  0.
        -11    1    4    4    0    0 -0.39291051625E+02  0.39711814246E+02  0.24269520083E+02  0.60908328934E+02  0.00000000000E+00 0.  1.
         12    1    4    4    0    0 -0.58477110703E+02 -0.32416438674E+02  0.70626741651E+02  0.97254997860E+02  0.00000000000E+00 0. -1.
        -13    1    3    3    0    0 -0.40577631729E+01  0.20074688590E+02  0.13393410742E+02  0.24471248747E+02  0.00000000000E+00 0.  1.
         13    1    3    3    0    0  0.12182237692E+03 -0.19383153750E+02  0.22966635568E+03  0.26069720578E+03  0.00000000000E+00 0. -1.
          1    1    1    2  501    0 -0.19996451421E+02 -0.79869104119E+01 -0.18800536269E+02  0.28585118005E+02  0.00000000000E+00 0. -1.
<scales pt_clust_5="13000.00000" pt_clust_6="13000.00000" pt_clust_7="13000.00000" pt_clust_8="13000.00000" pt_clust_9="21.53251"></scales>
<clustering>
<clus scale="   21.533">  2  9  1 -1</clus>
<clus scale="   79.991">  5  6 -1 -1</clus>
<clus scale="   91.510">  7  8 -1 -1</clus>
<clus scale="  135.849">  2  5  1 -1</clus>
<clus scale="   21.533">  2  5  1 -1</clus>
</clustering>
</event>
<event>
 9    2  0.9254368E-005  0.2246446E+03  0.7546771E-02  0.1131114E+00
         21   -1    0    0  501  502  0.00000000000E+00  0.00000000000E+00  0.18238746375E+03  0.18238746375E+03  0.00000000000E+00 0.  1.
         -3   -1    0    0    0  501 -0.00000000000E+00 -0.00000000000E+00 -0.39209203119E+03  0.39209203119E+03  0.00000000000E+00 0.  1.
         24    2    1    2    0    0  0.19229410648E+03 -0.35541562656E+02 -0.94783758888E+02  0.23158183933E+03  0.80037249424E+02 0.  0.
         23    2    1    2    0    0 -0.22088423448E+03 -0.30952780782E+02 -0.12325375138E+03  0.27003936119E+03  0.89341198139E+02 0.  0.
        -11    1    3    3    0    0  0.88947204483E+02 -0.39258640471E+02 -0.97805688216E+01  0.97716454927E+02  0.00000000000E+00 0.  1.
         12    1    3    3    0    0  0.10334690200E+03  0.37170778146E+01 -0.85003190067E+02  0.13386538440E+03  0.00000000000E+00 0. -1.
        -11    1    4    4    0    0 -0.56372666557E+02 -0.23411374018E+01  0.88631689781E+01  0.57113170314E+02  0.00000000000E+00 0. -1.
         11    1    4    4    0    0 -0.16451156792E+03 -0.28611643380E+02 -0.13211692036E+03  0.21292619088E+03  0.00000000000E+00 0.  1.
         -4    1    1    2    0  502  0.28590127998E+02  0.66494343438E+02  0.83329428300E+01  0.72858294411E+02  0.00000000000E+00 0.  1.
<scales pt_clust_5="13000.00000" pt_clust_6="13000.00000" pt_clust_7="13000.00000" pt_clust_8="13000.00000" pt_clust_9="72.38020"></scales>
<clustering>
<clus scale="   72.380">  1  9  2 -1</clus>
<clus scale="   80.037">  5  6 -1 -1</clus>
<clus scale="   89.341">  7  8 -1 -1</clus>
<clus scale="  221.109">  2  5  1 -1</clus>
<clus scale="   72.380">  1  5  2 -1</clus>
</clustering>
</event>
<event>
 9    2  0.9254368E-005  0.2168534E+03  0.7546771E-02  0.1150289E+00
         21   -1    0    0  501  502  0.00000000000E+00  0.00000000000E+00  0.74594830434E+02  0.74594830434E+02  0.00000000000E+00 0. -1.
          2   -1    0    0  502    0 -0.00000000000E+00 -0.00000000000E+00 -0.13762192678E+04  0.13762192678E+04  0.00000000000E+00 0. -1.
         23    2    1    2    0    0  0.11489688260E+03  0.53236051982E+02 -0.19242326212E+03  0.24700449180E+03  0.89157929016E+02 0.  0.
         24    2    1    2    0    0 -0.31164411962E+02  0.15964012779E+03 -0.79520448709E+03  0.81532368039E+03  0.77112492778E+02 0.  0.
        -13    1    4    4    0    0  0.21457594783E+02  0.23693488882E+02 -0.99428953809E+02  0.10444101993E+03  0.00000000000E+00 0.  1.
         14    1    4    4    0    0 -0.52622006745E+02  0.13594663891E+03 -0.69577553328E+03  0.71088266046E+03  0.00000000000E+00 0. -1.
        -11    1    3    3    0    0  0.99599599401E+02  0.76461010707E+02 -0.14307692523E+03  0.19036116435E+03  0.00000000000E+00 0. -1.
         11    1    3    3    0    0  0.15297283199E+02 -0.23224958725E+02 -0.49346336891E+02  0.56643327459E+02  0.00000000000E+00 0.  1.
          1    1    1    2  501    0 -0.83732470637E+02 -0.21287617977E+03 -0.31399668813E+03  0.38848592602E+03  0.00000000000E+00 0. -1.
<scales pt_clust_5="13000.00000" pt_clust_6="13000.00000" pt_clust_7="13000.00000" pt_clust_8="13000.00000" pt_clust_9="202.67973"></scales>
<clustering>
<clus scale="   77.112">  5  6 -1 -1</clus>
<clus scale="   89.158">  7  8 -1 -1</clus>
<clus scale="  154.869">  2  7  1 -1</clus>
<clus scale="  202.680">  1  9  2 -1</clus>
<clus scale="  202.680">  1  5  2 -1</clus>
</clustering>
</event>
<event>
 9    2  0.9254368E-005  0.9086150E+02  0.7546771E-02  0.1306932E+00
         -1   -1    0    0    0  501 -0.00000000000E+00  0.00000000000E+00  0.37019271440E+03  0.37019271440E+03  0.00000000000E+00 0.  1.
         21   -1    0    0  501  502  0.00000000000E+00 -0.00000000000E+00 -0.49587317437E+02  0.49587317437E+02  0.00000000000E+00 0.  1.
         24    2    1    2    0    0 -0.17055257409E+01 -0.34713058178E+01  0.11836590537E+03  0.14316826986E+03  0.80446921369E+02 0.  0.
         23    2    1    2    0    0 -0.17844835899E+02 -0.46208881577E+02  0.48321574949E+02  0.11369748169E+03  0.90213324023E+02 0.  0.
        -13    1    3    3    0    0 -0.32978636282E+01  0.31870465462E+02  0.18001646819E+02  0.36751350471E+02  0.00000000000E+00 0.  1.
         14    1    3    3    0    0  0.15923378872E+01 -0.35341771280E+02  0.10036425855E+03  0.10641691939E+03  0.00000000000E+00 0. -1.
        -11    1    4    4    0    0 -0.45252367069E+02 -0.60131609085E+01  0.75344961644E+00  0.45656352414E+02  0.00000000000E+00 0.  1.
         11    1    4    4    0    0  0.27407531170E+02 -0.40195720669E+02  0.47568125333E+02  0.68041129272E+02  0.00000000000E+00 0. -1.
         -2    1    1    2    0  502  0.19550361640E+02  0.49680187395E+02  0.15391791664E+03  0.16291428029E+03  0.00000000000E+00 0.  1.
<scales pt_clust_5="13000.00000" pt_clust_6="13000.00000" pt_clust_7="13000.00000" pt_clust_8="13000.00000" pt_clust_9="53.38858"></scales>
<clustering>
<clus scale="   53.389">  2  9  1 -1</clus>
<clus scale="   80.447">  5  6 -1 -1</clus>
<clus scale="   81.173">  1  5  2 -1</clus>
<clus scale="   90.213">  7  8 -1 -1</clus>
<clus scale="   53.389">  2  5  1 -1</clus>
</clustering>
</event>
<event>
 9    2  0.9254368E-005  0.9766518E+02  0.7546771E-02  0.1292246E+00
         21   -1    0    0  501  502  0.00000000000E+00  0.00000000000E+00  0.48764637999E+02  0.48764637999E+02  0.00000000000E+00 0.  1.
         -1   -1    0    0    0  501 -0.00000000000E+00 -0.00000000000E+00 -0.35966865621E+03  0.35966865621E+03  0.00000000000E+00 0.  1.
         24    2    1    2    0    0 -0.21233227882E+02  0.19796498401E+02 -0.26294241574E+03  0.27648226805E+03  0.80380216669E+02 0.  0.
         23    2    1    2    0    0  0.38329467613E+02 -0.59815306983E+01 -0.36817354837E+02  0.10730698021E+03  0.93028724528E+02 0.  0.
        -11    1    3    3    0    0  0.24690405156E+02  0.38792412102E+01 -0.32656696804E+02  0.41123283736E+02  0.00000000000E+00 0.  1.
         12    1    3    3    0    0 -0.45923633038E+02  0.15917257191E+02 -0.23028571894E+03  0.23535898431E+03  0.00000000000E+00 0. -1.
        -11    1    4    4    0    0  0.56163711057E+02  0.15598408191E+02  0.33047760310E+01  0.58383168143E+02  0.00000000000E+00 0.  1.
         11    1    4    4    0    0 -0.17834243444E+02 -0.21579938889E+02 -0.40122130868E+02  0.48923812066E+02  0.00000000000E+00 0. -1.
         -2    1    1    2    0  502 -0.17096239731E+02 -0.13814967703E+02 -0.11144247624E+02  0.24644045948E+02  0.00000000000E+00 0.  1.
<scales pt_clust_5="13000.00000" pt_clust_6="13000.00000" pt_clust_7="13000.00000" pt_clust_8="13000.00000" pt_clust_9="21.98033"></scales>
<clustering>
<clus scale="   21.980">  1  9  2 -1</clus>
<clus scale="   80.380">  5  6 -1 -1</clus>
<clus scale="   85.704">  2  5  1 -1</clus>
<clus scale="   93.029">  7  8 -1 -1</clus>
<clus scale="   21.980">  1  5  2 -1</clus>
</clustering>
</event>
<event>
 9    2  0.9254368E-005  0.1070570E+03  0.7546771E-02  0.1272703E+00
          2   -1    0    0  502    0 -0.00000000000E+00  0.00000000000E+00  0.33619660243E+03  0.33619660243E+03  0.00000000000E+00 0. -1.
         21   -1    0    0  501  502  0.00000000000E+00 -0.00000000000E+00 -0.78157028461E+02  0.78157028461E+02  0.00000000000E+00 0.  1.
         23    2    1    2    0    0 -0.44905700496E+02  0.61170516053E+02  0.56242069175E+02  0.13309409856E+03  0.93768410220E+02 0.  0.
         24    2    1    2    0    0 -0.22223551614E+01 -0.34551386514E+02  0.15782432692E+02  0.87529723741E+02  0.78826582978E+02 0.  0.
        -13    1    4    4    0    0  0.23781673296E+02 -0.42463570230E+02 -0.10423375442E+02  0.49773180901E+02  0.00000000000E+00 0.  1.
         14    1    4    4    0    0 -0.26004028457E+02  0.79121837161E+01  0.26205808135E+02  0.37756542839E+02  0.00000000000E+00 0. -1.
        -13    1    3    3    0    0 -0.70974588502E+02  0.58382077677E+02  0.31792412025E+02  0.97245136995E+02  0.00000000000E+00 0.  1.
         13    1    3    3    0    0  0.26068888006E+02  0.27884383758E+01  0.24449657150E+02  0.35848961564E+02  0.00000000000E+00 0. -1.
          1    1    1    2  501    0  0.47128055657E+02 -0.26619129539E+02  0.18601507210E+03  0.19372980859E+03  0.00000000000E+00 0. -1.
<scales pt_clust_5="13000.00000" pt_clust_6="13000.00000" pt_clust_7="13000.00000" pt_clust_8="13000.00000" pt_clust_9="54.12610"></scales>
<clustering>
<clus scale="   54.126">  2  9  1 -1</clus>
<clus scale="   78.827">  5  6 -1 -1</clus>
<clus scale="   93.768">  7  8 -1 -1</clus>
<clus scale="   94.246">  2  5  1 -1</clus>
<clus scale="   54.126">  2  5  1 -1</clus>
</clustering>
</event>
<event>
 9    2  0.9254368E-005  0.1481690E+03  0.7546771E-02  0.1218077E+00
         21   -1    0    0  501  502  0.00000000000E+00  0.00000000000E+00  0.11812505163E+03  0.11812505163E+03  0.00000000000E+00 0.  1.
          2   -1    0    0  502    0 -0.00000000000E+00 -0.00000000000E+00 -0.76110169315E+03  0.76110169315E+03  0.00000000000E+00 0. -1.
         23    2    1    2    0    0 -0.37112032229E+02  0.38908824914E+02  0.46265157438E+02  0.11640329627E+03  0.92293352948E+02 0.  0.
         24    2    1    2    0    0  0.95023038751E+02  0.79092627680E+02 -0.16277066221E+03  0.22019108187E+03  0.81882857860E+02 0.  0.
        -11    1    4    4    0    0  0.76183079466E+02  0.96288633186E+02 -0.13487682333E+03  0.18239276288E+03  0.00000000000E+00 0.  1.
         12    1    4    4    0    0  0.18839959285E+02 -0.17196005506E+02 -0.27893838875E+02  0.37798318989E+02  0.00000000000E+00 0. -1.
        -13    1    3    3    0    0 -0.42446504785E+02 -0.42443616500E+01  0.57402829197E+02  0.71517866118E+02  0.00000000000E+00 0.  1.
         13    1    3    3    0    0  0.53344725565E+01  0.43153186564E+02 -0.11137671759E+02  0.44885430156E+02  0.00000000000E+00 0. -1.
          1    1    1    2  501    0 -0.57911006523E+02 -0.11800145259E+03 -0.52647113675E+03  0.54263236664E+03  0.00000000000E+00 0. -1.
<scales pt_clust_5="13000.00000" pt_clust_6="13000.00000" pt_clust_7="13000.00000" pt_clust_8="13000.00000" pt_clust_9="123.48787"></scales>
<clustering>
<clus scale="   81.883">  5  6 -1 -1</clus>
<clus scale="   92.293">  7  8 -1 -1</clus>
<clus scale="  106.814">  2  7  1 -1</clus>
<clus scale="  123.488">  1  9  2 -1</clus>
<clus scale="  123.488">  1  5  2 -1</clus>
</clustering>
</event>
<event>
 9    2  0.1326168E-004  0.1070783E+03  0.7546771E-02  0.1268769E+00
         21   -1    0    0  501  502  0.00000000000E+00  0.00000000000E+00  0.13324618704E+03  0.13324618704E+03  0.00000000000E+00 0. -1.
         -1   -1    0    0    0  501 -0.00000000000E+00 -0.00000000000E+00 -0.22790519599E+03  0.22790519599E+03  0.00000000000E+00 0.  1.
         23    2    1    2    0    0  0.31580837628E+02  0.30061044368E+02 -0.78085514497E+02  0.12887209430E+03  0.92788218117E+02 0.  0.
         24    2    1    2    0    0 -0.48761124480E+02 -0.80453805444E+02  0.58278741356E+02  0.14042369646E+03  0.86440388497E+02 0.  0.
        -11    1    4    4    0    0 -0.22996478933E+02 -0.10296954612E+02 -0.20019392640E+02  0.32181382805E+02  0.00000000000E+00 0.  1.
         12    1    4    4    0    0 -0.25764645547E+02 -0.70156850832E+02  0.78298133996E+02  0.10824231366E+03  0.00000000000E+00 0. -1.
        -11    1    3    3    0    0  0.15107893729E+02 -0.33549305142E+02 -0.29216119686E+02  0.46982826415E+02  0.00000000000E+00 0.  1.
         11    1    3    3    0    0  0.16472943899E+02  0.63610349511E+02 -0.48869394812E+02  0.81889267885E+02  0.00000000000E+00 0. -1.
         -2    1    1    2    0  502  0.17180286852E+02  0.50392761076E+02 -0.74852235810E+02  0.91855592268E+02  0.00000000000E+00 0.  1.
<scales pt_clust_5="13000.00000" pt_clust_6="13000.00000" pt_clust_7="13000.00000" pt_clust_8="13000.00000" pt_clust_9="53.24092"></scales>
<clustering>
<clus scale="   53.241">  1  9  2 -1</clus>
<clus scale="   86.440">  5  6 -1 -1</clus>
<clus scale="   92.788">  7  8 -1 -1</clus>
<clus scale="  101.627">  1  5  2 -1</clus>
<clus scale="   53.241">  1  5  2 -1</clus>
</clustering>
</event>
<event>
 9    2  0.9254368E-005  0.1579739E+03  0.7546771E-02  0.1211567E+00
          2   -1    0    0  502    0 -0.00000000000E+00  0.00000000000E+00  0.36927292982E+03  0.36927292982E+03  0.00000000000E+00 0. -1.
         21   -1    0    0  501  502  0.00000000000E+00 -0.00000000000E+00 -0.14439349700E+03  0.14439349700E+03  0.00000000000E+00 0. -1.
         23    2    1    2    0    0 -0.13968523438E+02  0.50563218569E+02 -0.66641666671E+00  0.10116571956E+03  0.86500288924E+02 0.  0.
         24    2    1    2    0    0 -0.10320882047E+03  0.33919404395E+02  0.23120394650E+03  0.26793287691E+03  0.80809498420E+02 0.  0.
        -13    1    4    4    0    0 -0.47802348464E+02  0.10874469502E+02  0.28880899945E+02  0.56898374205E+02  0.00000000000E+00 0.  1.
         14    1    4    4    0    0 -0.55406472006E+02  0.23044934893E+02  0.20232304656E+03  0.21103450271E+03  0.00000000000E+00 0. -1.
        -11    1    3    3    0    0 -0.77815030605E+01 -0.24454133765E+02  0.27950304501E+01  0.25814117132E+02  0.00000000000E+00 0.  1.
         11    1    3    3    0    0 -0.61870203776E+01  0.75017352334E+02 -0.34614471168E+01  0.75351602428E+02  0.00000000000E+00 0. -1.
          1    1    1    2  501    0  0.11717734391E+03 -0.84482622964E+02 -0.56580970202E+01  0.14456783034E+03  0.00000000000E+00 0. -1.
<scales pt_clust_5="13000.00000" pt_clust_6="13000.00000" pt_clust_7="13000.00000" pt_clust_8="13000.00000" pt_clust_9="135.74085"></scales>
<clustering>
<clus scale="   80.809">  5  6 -1 -1</clus>
<clus scale="   86.500">  7  8 -1 -1</clus>
<clus scale="  101.164">  1  7  2 -1</clus>
<clus scale="  135.741">  2  9  1 -1</clus>
<clus scale="  135.741">  2  5  1 -1</clus>
</clustering>
</event>
<event>
 9    2  0.9254368E-005  0.2074869E+03  0.7546771E-02  0.1167840E+00
         21   -1    0    0  501  502  0.00000000000E+00  0.00000000000E+00  0.59209093718E+03  0.59209093718E+03  0.00000000000E+00 0.  1.
         -3   -1    0    0    0  501 -0.00000000000E+00 -0.00000000000E+00 -0.21068201096E+03  0.21068201096E+03  0.00000000000E+00 0.  1.
         23    2    1    2    0    0  0.50618361257E+02 -0.53217147452E+02 -0.80858957522E+02  0.14256876693E+03  0.91615495485E+02 0.  0.
         24    2    1    2    0    0  0.48493588792E+01 -0.14491108900E+03  0.13413794346E+02  0.16644162733E+03  0.80623479420E+02 0.  0.
        -11    1    4    4    0    0  0.55110897258E+01 -0.13727257937E+03  0.36472131928E+02  0.14214200492E+03  0.00000000000E+00 0.  1.
         12    1    4    4    0    0 -0.66173084659E+00 -0.76385096278E+01 -0.23058337581E+02  0.24299622406E+02  0.00000000000E+00 0. -1.
        -13    1    3    3    0    0  0.37633809422E+02 -0.35498188845E+02  0.68182360883E+01  0.52181542391E+02  0.00000000000E+00 0.  1.
         13    1    3    3    0    0  0.12984551834E+02 -0.17718958607E+02 -0.87677193611E+02  0.90387224539E+02  0.00000000000E+00 0. -1.
         -4    1    1    2    0  502 -0.55467720136E+02  0.19812823645E+03  0.44885408939E+03  0.49376255389E+03  0.00000000000E+00 0.  1.
<scales pt_clust_5="13000.00000" pt_clust_6="13000.00000" pt_clust_7="13000.00000" pt_clust_8="13000.00000" pt_clust_9="191.18230"></scales>
<clustering>
<clus scale="   80.623">  5  6 -1 -1</clus>
<clus scale="   91.615">  7  8 -1 -1</clus>
<clus scale="  117.421">  2  7  1 -1</clus>
<clus scale="  191.182">  1  9  2 -1</clus>
<clus scale="  191.182">  1  5  2 -1</clus>
</clustering>
</event>
<event>
 9    2  0.9254368E-005  0.1012860E+03  0.7546771E-02  0.1279583E+00
         -3   -1    0    0    0  501 -0.00000000000E+00  0.00000000000E+00  0.92183126048E+02  0.92183126048E+02  0.00000000000E+00 0.  1.
         21   -1    0    0  501  502  0.00000000000E+00 -0.00000000000E+00 -0.20087862474E+03  0.20087862474E+03  0.00000000000E+00 0.  1.
         24    2    1    2    0    0 -0.41223689740E+02  0.13949351620E+02  0.21904307723E+02  0.98827403510E+02  0.85983021471E+02 0.  0.
         23    2    1    2    0    0  0.41790734155E+02 -0.35388486722E+02 -0.62055203746E+02  0.12241289778E+03  0.90195669388E+02 0.  0.
        -13    1    3    3    0    0 -0.23545253111E+02  0.42962218576E+02  0.37253565012E+02  0.61546399367E+02  0.00000000000E+00 0.  1.
         14    1    3    3    0    0 -0.17678436629E+02 -0.29012866956E+02 -0.15349257288E+02  0.37281004143E+02  0.00000000000E+00 0. -1.
        -11    1    4    4    0    0  0.38565254237E+01  0.21332354089E+02  0.93831526301E+01  0.23621720356E+02  0.00000000000E+00 0. -1.
         11    1    4    4    0    0  0.37934208731E+02 -0.56720840811E+02 -0.71438356376E+02  0.98791177420E+02  0.00000000000E+00 0.  1.
         -4    1    1    2    0  502 -0.56704441499E+00  0.21439135102E+02 -0.68544602666E+02  0.71821449498E+02  0.00000000000E+00 0.  1.
<scales pt_clust_5="13000.00000" pt_clust_6="13000.00000" pt_clust_7="13000.00000" pt_clust_8="13000.00000" pt_clust_9="21.44663"></scales>
<clustering>
<clus scale="   21.447">  2  9  1 -1</clus>
<clus scale="   85.983">  5  6 -1 -1</clus>
<clus scale="   90.196">  7  8 -1 -1</clus>
<clus scale="   97.553">  1  5  2 -1</clus>
<clus scale="   21.447">  2  5  1 -1</clus>
</clustering>
</event>
<event>
 9    2  0.9254368E-005  0.1116001E+03  0.7546771E-02  0.1261295E+00
         -1   -1    0    0    0  501 -0.00000000000E+00  0.00000000000E+00  0.82144629760E+02  0.82144629760E+02  0.00000000000E+00 0.  1.
         21   -1    0    0  501  502  0.00000000000E+00 -0.00000000000E+00 -0.33236441741E+03  0.33236441741E+03  0.00000000000E+00 0. -1.
         23    2    1    2    0    0  0.65782269828E+02  0.31860138515E-01  0.16044907217E+02  0.11379100870E+03  0.91452974662E+02 0.  0.
         24    2    1    2    0    0 -0.54672052944E+02  0.33672520271E+02 -0.19004367177E+03  0.21664029742E+03  0.81814114260E+02 0.  0.
        -13    1    4    4    0    0 -0.44881944514E+02  0.37400968596E+02 -0.52039085037E+02  0.78238659030E+02  0.00000000000E+00 0.  1.
         14    1    4    4    0    0 -0.97901084301E+01 -0.37284483246E+01 -0.13800458673E+03  0.13840163839E+03  0.00000000000E+00 0. -1.
        -13    1    3    3    0    0 -0.23411596063E+02  0.10264349183E+01  0.24557308610E+01  0.23562406773E+02  0.00000000000E+00 0. -1.
         13    1    3    3    0    0  0.89193865891E+02 -0.99457477978E+00  0.13589176356E+02  0.90228601927E+02  0.00000000000E+00 0.  1.
         -2    1    1    2    0  502 -0.11110216884E+02 -0.33704380410E+02 -0.76221023095E+02  0.84077741047E+02  0.00000000000E+00 0.  1.
<scales pt_clust_5="13000.00000" pt_clust_6="13000.00000" pt_clust_7="13000.00000" pt_clust_8="13000.00000" pt_clust_9="35.48834"></scales>
<clustering>
<clus scale="   35.488">  2  9  1 -1</clus>
<clus scale="   81.814">  5  6 -1 -1</clus>
<clus scale="   91.453">  7  8 -1 -1</clus>
<clus scale="  103.848">  2  5  1 -1</clus>
<clus scale="   35.488">  2  5  1 -1</clus>
</clustering>
</event>
<event>
 9    2  0.9254368E-005  0.1764670E+03  0.7546771E-02  0.1185017E+00
         21   -1    0    0  501  502  0.00000000000E+00  0.00000000000E+00  0.65306478864E+02  0.65306478864E+02  0.00000000000E+00 0. -1.
          2   -1    0    0  502    0 -0.00000000000E+00 -0.00000000000E+00 -0.12184113709E+04  0.12184113709E+04  0.00000000000E+00 0. -1.
         24    2    1    2    0    0  0.30804732630E+02  0.97261655745E+02 -0.64512930794E+03  0.65798237356E+03  0.79625490391E+02 0.  0.
         23    2    1    2    0    0 -0.32561811882E+02  0.11554268737E+03 -0.17442738529E+03  0.23008010003E+03  0.90008641206E+02 0.  0.
        -13    1    3    3    0    0  0.56206956481E+02  0.79517458864E+02 -0.52267652532E+03  0.53167000888E+03  0.00000000000E+00 0.  1.
         14    1    3    3    0    0 -0.25402223851E+02  0.17744196881E+02 -0.12245278262E+03  0.12631236468E+03  0.00000000000E+00 0. -1.
        -11    1    4    4    0    0 -0.47630083364E+02  0.52416469499E+02 -0.13933080046E+03  0.15629837834E+03  0.00000000000E+00 0.  1.
         11    1    4    4    0    0  0.15068271481E+02  0.63126217870E+02 -0.35096584834E+02  0.73781721687E+02  0.00000000000E+00 0. -1.
          1    1    1    2  501    0  0.17570792526E+01 -0.21280434311E+03 -0.33354819883E+03  0.39565537620E+03  0.00000000000E+00 0. -1.
<scales pt_clust_5="13000.00000" pt_clust_6="13000.00000" pt_clust_7="13000.00000" pt_clust_8="13000.00000" pt_clust_9="151.78622"></scales>
<clustering>
<clus scale="   79.625">  5  6 -1 -1</clus>
<clus scale="   90.009">  7  8 -1 -1</clus>
<clus scale="  129.418">  2  5  1 -1</clus>
<clus scale="  151.786">  1  9  2 -1</clus>
<clus scale="  151.786">  1  5  2 -1</clus>
</clustering>
</event>
<event>
 9    2  0.9254368E-005  0.8335045E+02  0.7546771E-02  0.1325179E+00
         21   -1    0    0  501  502  0.00000000000E+00  0.00000000000E+00  0.40325011564E+03  0.40325011564E+03  0.00000000000E+00 0. -1.
          4   -1    0    0  502    0 -0.00000000000E+00 -0.00000000000E+00 -0.41388450244E+02  0.41388450244E+02  0.00000000000E+00 0. -1.
         24    2    1    2    0    0  0.53525132815E+01  0.58050241827E+01  0.32230866966E+02  0.82253441059E+02  0.75262554279E+02 0.  0.
         23    2    1    2    0    0  0.48650988449E+02 -0.69151225554E+01  0.20314197175E+03  0.22484591663E+03  0.82911325760E+02 0.  0.
        -13    1    3    3    0    0  0.25987201460E+01  0.39306126784E+02  0.28098110515E+02  0.48386245604E+02  0.00000000000E+00 0.  1.
         14    1    3    3    0    0  0.27537931356E+01 -0.33501102601E+02  0.41327564503E+01  0.33867195455E+02  0.00000000000E+00 0. -1.
        -11    1    4    4    0    0  0.14640556591E+02 -0.28603797726E+02  0.21223968897E+02  0.38509479318E+02  0.00000000000E+00 0.  1.
         11    1    4    4    0    0  0.34010431858E+02  0.21688675170E+02  0.18191800285E+03  0.18633643731E+03  0.00000000000E+00 0. -1.
          3    1    1    2  501    0 -0.54003501731E+02  0.11100983728E+01  0.12648882668E+03  0.13753920820E+03  0.00000000000E+00 0. -1.
<scales pt_clust_5="13000.00000" pt_clust_6="13000.00000" pt_clust_7="13000.00000" pt_clust_8="13000.00000" pt_clust_9="54.01491"></scales>
<clustering>
<clus scale="   54.015">  1  9  2 -1</clus>
<clus scale="   75.263">  5  6 -1 -1</clus>
<clus scale="   75.746">  2  5  1 -1</clus>
<clus scale="   82.911">  7  8 -1 -1</clus>
<clus scale="   54.015">  1  5  2 -1</clus>
</clustering>
</event>
<event>
 9    2  0.9254368E-005  0.1074501E+03  0.7546771E-02  0.1269305E+00
         21   -1    0    0  501  502  0.00000000000E+00  0.00000000000E+00  0.76738369778E+02  0.76738369778E+02  0.00000000000E+00 0.  1.
          2   -1    0    0  502    0 -0.00000000000E+00 -0.00000000000E+00 -0.48775038831E+03  0.48775038831E+03  0.00000000000E+00 0. -1.
         23    2    1    2    0    0 -0.17540438058E+01 -0.50452571451E+02 -0.17364928897E+03  0.20189271489E+03  0.89766664915E+02 0.  0.
         24    2    1    2    0    0  0.45088177811E+02  0.90360325874E+02 -0.11780479813E+02  0.12944839162E+03  0.80125989035E+02 0.  0.
        -13    1    4    4    0    0  0.25014096827E+02  0.89092224811E+02  0.17249366072E+02  0.94131132956E+02  0.00000000000E+00 0.  1.
         14    1    4    4    0    0  0.20074080984E+02  0.12681010633E+01 -0.29029845885E+02  0.35317258667E+02  0.00000000000E+00 0. -1.
        -13    1    3    3    0    0  0.12084387902E+02  0.17535530771E+02 -0.93452678353E+02  0.95848476054E+02  0.00000000000E+00 0. -1.
         13    1    3    3    0    0 -0.13838431708E+02 -0.67988102222E+02 -0.80196610619E+02  0.10604423884E+03  0.00000000000E+00 0.  1.
          1    1    1    2  501    0 -0.43334134005E+02 -0.39907754423E+02 -0.22558224974E+03  0.23314765157E+03  0.00000000000E+00 0. -1.
<scales pt_clust_5="13000.00000" pt_clust_6="13000.00000" pt_clust_7="13000.00000" pt_clust_8="13000.00000" pt_clust_9="58.91078"></scales>
<clustering>
<clus scale="   58.911">  1  9  2 -1</clus>
<clus scale="   80.126">  5  6 -1 -1</clus>
<clus scale="   89.767">  7  8 -1 -1</clus>
<clus scale="   99.537">  1  5  2 -1</clus>
<clus scale="   58.911">  1  5  2 -1</clus>
</clustering>
</event>
<event>
 9    2  0.9254368E-005  0.9568841E+02  0.7546771E-02  0.1297148E+00
         21   -1    0    0  501  502  0.00000000000E+00  0.00000000000E+00  0.26006922104E+03  0.26006922104E+03  0.00000000000E+00 0.  1.
         -3   -1    0    0    0  501 -0.00000000000E+00 -0.00000000000E+00 -0.91412392155E+02  0.91412392155E+02  0.00000000000E+00 0.  1.
         24    2    1    2    0    0  0.18039074942E+01  0.23758189144E+02 -0.28301750683E+02  0.86331877942E+02  0.78003194958E+02 0.  0.
         23    2    1    2    0    0 -0.57896111789E+02 -0.35423302386E+02  0.94855041717E+02  0.14807051980E+03  0.91217486166E+02 0.  0.
        -13    1    3    3    0    0 -0.17128724364E+02  0.28956709678E+02 -0.47936956908E+02  0.58564802325E+02  0.00000000000E+00 0.  1.
         14    1    3    3    0    0  0.18932631858E+02 -0.51985205340E+01  0.19635206226E+02  0.27767075618E+02  0.00000000000E+00 0. -1.
        -13    1    4    4    0    0  0.20902671590E+02  0.68221877209E+01  0.79378133965E+01  0.23376757825E+02  0.00000000000E+00 0. -1.
         13    1    4    4    0    0 -0.78798783380E+02 -0.42245490107E+02  0.86917228321E+02  0.12469376197E+03  0.00000000000E+00 0.  1.
         -4    1    1    2    0  502  0.56092204295E+02  0.11665113242E+02  0.10210353785E+03  0.11707921546E+03  0.00000000000E+00 0.  1.
<scales pt_clust_5="13000.00000" pt_clust_6="13000.00000" pt_clust_7="13000.00000" pt_clust_8="13000.00000" pt_clust_9="57.29232"></scales>
<clustering>
<clus scale="   57.292">  1  9  2 -1</clus>
<clus scale="   78.003">  5  6 -1 -1</clus>
<clus scale="   83.187">  2  5  1 -1</clus>
<clus scale="   91.217">  7  8 -1 -1</clus>
<clus scale="   57.292">  1  5  2 -1</clus>
</clustering>
</event>
<event>
 9    2  0.9254368E-005  0.1079998E+03  0.7546771E-02  0.1268536E+00
          2   -1    0    0  502    0 -0.00000000000E+00  0.00000000000E+00  0.32993323647E+03  0.32993323647E+03  0.00000000000E+00 0. -1.
         21   -1    0    0  501  502  0.00000000000E+00 -0.00000000000E+00 -0.92830693004E+02  0.92830693004E+02  0.00000000000E+00 0. -1.
         24    2    1    2    0    0  0.45746291326E+02 -0.31637624429E+02  0.23262598064E+03  0.25268092809E+03  0.81480930901E+02 0.  0.
         23    2    1    2    0    0 -0.70339049248E+02  0.59073227050E+01  0.37404409559E+02  0.12159490739E+03  0.91671987747E+02 0.  0.
        -11    1    3    3    0    0  0.50717218624E+02  0.12575389822E+02  0.14995238436E+03  0.15879576275E+03  0.00000000000E+00 0.  1.
         12    1    3    3    0    0 -0.49709272974E+01 -0.44213014251E+02  0.82673596285E+02  0.93885165335E+02  0.00000000000E+00 0. -1.
        -11    1    4    4    0    0 -0.33657836450E+02  0.48675647938E+02  0.22509137003E+02  0.63315321253E+02  0.00000000000E+00 0.  1.
         11    1    4    4    0    0 -0.36681212798E+02 -0.42768325233E+02  0.14895272556E+02  0.58279586135E+02  0.00000000000E+00 0. -1.
          1    1    1    2  501    0  0.24592757922E+02  0.25730301724E+02 -0.32927846734E+02  0.48488093998E+02  0.00000000000E+00 0. -1.
<scales pt_clust_5="13000.00000" pt_clust_6="13000.00000" pt_clust_7="13000.00000" pt_clust_8="13000.00000" pt_clust_9="35.59287"></scales>
<clustering>
<clus scale="   35.593">  2  9  1 -1</clus>
<clus scale="   81.481">  5  6 -1 -1</clus>
<clus scale="   91.672">  7  8 -1 -1</clus>
<clus scale="   99.495">  1  5  2 -1</clus>
<clus scale="   35.593">  2  5  1 -1</clus>
</clustering>
</event>
<event>
 9    2  0.9254368E-005  0.1849414E+03  0.7546771E-02  0.1186763E+00
         21   -1    0    0  501  502  0.00000000000E+00  0.00000000000E+00  0.29416133964E+02  0.29416133964E+02  0.00000000000E+00 0. -1.
          2   -1    0    0  502    0 -0.00000000000E+00 -0.00000000000E+00 -0.21064851555E+04  0.21064851555E+04  0.00000000000E+00 0. -1.
         24    2    1    2    0    0  0.70190000002E+02  0.18683297109E+02 -0.38163259000E+03  0.39665940831E+03  0.80122099097E+02 0.  0.
         23    2    1    2    0    0  0.60902665176E+01  0.15219984709E+03 -0.53316588917E+03  0.56200250801E+03  0.91537253766E+02 0.  0.
        -11    1    3    3    0    0  0.15860517632E+02  0.28207774219E+02 -0.44377594818E+02  0.54923633053E+02  0.00000000000E+00 0.  1.
         12    1    3    3    0    0  0.54329482371E+02 -0.95244771101E+01 -0.33725499518E+03  0.34173577526E+03  0.00000000000E+00 0. -1.
        -11    1    4    4    0    0 -0.15490869683E+02  0.35186679172E+02 -0.43352576106E+02  0.57944070359E+02  0.00000000000E+00 0.  1.
         11    1    4    4    0    0  0.21581136201E+02  0.11701316792E+03 -0.48981331307E+03  0.50405843765E+03  0.00000000000E+00 0. -1.
          1    1    1    2  501    0 -0.76280266520E+02 -0.17088314420E+03 -0.11622705424E+04  0.11772393732E+04  0.00000000000E+00 0. -1.
<scales pt_clust_5="13000.00000" pt_clust_6="13000.00000" pt_clust_7="13000.00000" pt_clust_8="13000.00000" pt_clust_9="160.69938"></scales>
<clustering>
<clus scale="   80.122">  5  6 -1 -1</clus>
<clus scale="   91.537">  7  8 -1 -1</clus>
<clus scale="  108.145">  2  5  1 -1</clus>
<clus scale="  160.699">  1  9  2 -1</clus>
<clus scale="  160.699">  1  5  2 -1</clus>
</clustering>
</event>
<event>
 9    2  0.9610172E-005  0.9559019E+02  0.7546771E-02  0.1296829E+00
         21   -1    0    0  501  502  0.00000000000E+00  0.00000000000E+00  0.10767614106E+03  0.10767614106E+03  0.00000000000E+00 0. -1.
         -1   -1    0    0    0  501 -0.00000000000E+00 -0.00000000000E+00 -0.20246395655E+03  0.20246395655E+03  0.00000000000E+00 0.  1.
         23    2    1    2    0    0  0.35257157872E+02  0.13509819548E+01 -0.67024526699E+02  0.11897716030E+03  0.91751758344E+02 0.  0.
         24    2    1    2    0    0 -0.12140253893E+01 -0.74305368197E+00  0.58287292541E+02  0.98621017113E+02  0.79540370618E+02 0.  0.
        -13    1    4    4    0    0 -0.27112068353E+02  0.32045006403E+01 -0.70763684345E+01  0.28202979717E+02  0.00000000000E+00 0.  1.
         14    1    4    4    0    0  0.25898042963E+02 -0.39475543223E+01  0.65363660976E+02  0.70418037396E+02  0.00000000000E+00 0. -1.
        -11    1    3    3    0    0  0.65673962112E+02 -0.50811904776E+01 -0.36044089867E+02  0.75087044225E+02  0.00000000000E+00 0. -1.
         11    1    3    3    0    0 -0.30416804240E+02  0.64321724324E+01 -0.30980436832E+02  0.43890116070E+02  0.00000000000E+00 0.  1.
         -2    1    1    2    0  502 -0.34043132482E+02 -0.60792827282E+00 -0.86050581334E+02  0.92541920198E+02  0.00000000000E+00 0.  1.
<scales pt_clust_5="13000.00000" pt_clust_6="13000.00000" pt_clust_7="13000.00000" pt_clust_8="13000.00000" pt_clust_9="34.04858"></scales>
<clustering>
<clus scale="   34.049">  1  9  2 -1</clus>
<clus scale="   79.540">  5  6 -1 -1</clus>
<clus scale="   83.939">  1  5  2 -1</clus>
<clus scale="   91.752">  7  8 -1 -1</clus>
<clus scale="   34.049">  1  5  2 -1</clus>
</clustering>
</event>
<event>
 9    2  0.9254368E-005  0.1220343E+03  0.7546771E-02  0.1243139E+00
         21   -1    0    0  501  502  0.00000000000E+00  0.00000000000E+00  0.41942631395E+02  0.41942631395E+02  0.00000000000E+00 0.  1.
         -1   -1    0    0    0  501 -0.00000000000E+00 -0.00000000000E+00 -0.82376622445E+03  0.82376622445E+03  0.00000000000E+00 0.  1.
         24    2    1    2    0    0 -0.72290361721E+02  0.37601798400E+02 -0.65850840267E+03  0.66848393791E+03  0.81226025473E+02 0.  0.
         23    2    1    2    0    0  0.75556160791E+02 -0.10633644203E+02 -0.12066954075E+03  0.16993121451E+03  0.92161118579E+02 0.  0.
        -11    1    3    3    0    0 -0.84157503795E+02  0.49210288472E+02 -0.52808697524E+03  0.53701023394E+03  0.00000000000E+00 0.  1.
         12    1    3    3    0    0  0.11867142074E+02 -0.11608490073E+02 -0.13042142743E+03  0.13147370397E+03  0.00000000000E+00 0. -1.
        -11    1    4    4    0    0  0.68338671611E+02  0.32667025540E+02 -0.75705507908E+02  0.10709170147E+03  0.00000000000E+00 0.  1.
         11    1    4    4    0    0  0.72174891799E+01 -0.43300669743E+02 -0.44964032843E+02  0.62839513045E+02  0.00000000000E+00 0. -1.
         -2    1    1    2    0  502 -0.32657990700E+01 -0.26968154197E+02 -0.26456496277E+01  0.27293703419E+02  0.00000000000E+00 0.  1.
<scales pt_clust_5="13000.00000" pt_clust_6="13000.00000" pt_clust_7="13000.00000" pt_clust_8="13000.00000" pt_clust_9="27.16518"></scales>
<clustering>
<clus scale="   27.165">  1  9  2 -1</clus>
<clus scale="   81.226">  5  6 -1 -1</clus>
<clus scale="   92.161">  7  8 -1 -1</clus>
<clus scale="  114.002">  2  5  1 -1</clus>
<clus scale="   27.165">  1  5  2 -1</clus>
</clustering>
</event>
<event>
 9    2  0.9254368E-005  0.1139703E+03  0.7546771E-02  0.1257784E+00
         21   -1    0    0  501  502  0.00000000000E+00  0.00000000000E+00  0.33960960150E+03  0.33960960150E+03  0.00000000000E+00 0. -1.
          2   -1    0    0  502    0 -0.00000000000E+00 -0.00000000000E+00 -0.80927123095E+02  0.80927123095E+02  0.00000000000E+00 0. -1.
         24    2    1    2    0    0 -0.62284442489E+02 -0.25746682120E+02  0.14515085986E+02  0.10486994300E+03  0.79023881245E+02 0.  0.
         23    2    1    2    0    0  0.40050688891E+02  0.78816700555E+02  0.21832971516E+03  0.25259260128E+03  0.91208704273E+02 0.  0.
        -11    1    3    3    0    0 -0.92804790982E+01  0.19586280933E+02 -0.17757569035E+02  0.28019296050E+02  0.00000000000E+00 0.  1.
         12    1    3    3    0    0 -0.53003963391E+02 -0.45332963053E+02  0.32272655021E+02  0.76850646949E+02  0.00000000000E+00 0. -1.
        -13    1    4    4    0    0  0.53052880858E+02  0.35735040416E+02  0.18732432823E+03  0.19794444985E+03  0.00000000000E+00 0. -1.
         13    1    4    4    0    0 -0.13002191967E+02  0.43081660139E+02  0.31005386929E+02  0.54648151432E+02  0.00000000000E+00 0.  1.
          1    1    1    2  501    0  0.22233753598E+02 -0.53070018435E+02  0.25837677259E+02  0.63074180310E+02  0.00000000000E+00 0. -1.
<scales pt_clust_5="13000.00000" pt_clust_6="13000.00000" pt_clust_7="13000.00000" pt_clust_8="13000.00000" pt_clust_9="57.53929"></scales>
<clustering>
<clus scale="   57.539">  1  9  2 -1</clus>
<clus scale="   79.024">  5  6 -1 -1</clus>
<clus scale="   91.209">  7  8 -1 -1</clus>
<clus scale="  104.475">  2  5  1 -1</clus>
<clus scale="   57.539">  1  5  2 -1</clus>
</clustering>
</event>
<event>
 9    2  0.9254368E-005  0.1654482E+03  0.7546771E-02  0.1184681E+00
         21   -1    0    0  501  502  0.00000000000E+00  0.00000000000E+00  0.10583089308E+03  0.10583089308E+03  0.00000000000E+00 0.  1.
          2   -1    0    0  502    0 -0.00000000000E+00 -0.00000000000E+00 -0.46044937518E+03  0.46044937518E+03  0.00000000000E+00 0. -1.
         24    2    1    2    0    0 -0.13012315067E+03 -0.26175211766E+01 -0.27634880988E+03  0.31547011276E+03  0.78827923744E+02 0.  0.
         23    2    1    2    0    0  0.15617157119E+03 -0.15607788635E+02 -0.10412353624E+03  0.20983327891E+03  0.92493953450E+02 0.  0.
        -13    1    3    3    0    0 -0.25795708593E+02  0.32609659474E+02 -0.65105368613E+02  0.77249708705E+02  0.00000000000E+00 0.  1.
         14    1    3    3    0    0 -0.10432744208E+03 -0.35227180651E+02 -0.21124344127E+03  0.23822040405E+03  0.00000000000E+00 0. -1.
        -13    1    4    4    0    0  0.55798161380E+02  0.37481127850E+02 -0.26324353243E+02  0.72188928043E+02  0.00000000000E+00 0.  1.
         13    1    4    4    0    0  0.10037340981E+03 -0.53088916486E+02 -0.77799183000E+02  0.13764435087E+03  0.00000000000E+00 0. -1.
          1    1    1    2  501    0 -0.26048420526E+02  0.18225309812E+02  0.25853864025E+02  0.40976876585E+02  0.00000000000E+00 0. -1.
<scales pt_clust_5="13000.00000" pt_clust_6="13000.00000" pt_clust_7="13000.00000" pt_clust_8="13000.00000" pt_clust_9="31.79123"></scales>
<clustering>
<clus scale="   31.791">  1  9  2 -1</clus>
<clus scale="   78.828">  5  6 -1 -1</clus>
<clus scale="   92.494">  7  8 -1 -1</clus>
<clus scale="  158.214">  2  5  1 -1</clus>
<clus scale="   31.791">  1  5  2 -1</clus>
</clustering>
</event>
<event>
 9    2  0.9254368E-005  0.1076335E+03  0.7546771E-02  0.1268991E+00
          2   -1    0    0  502    0 -0.00000000000E+00  0.00000000000E+00  0.29884049193E+03  0.29884049193E+03  0.00000000000E+00 0. -1.
         21   -1    0    0  501  502  0.00000000000E+00 -0.00000000000E+00 -0.67968590056E+02  0.67968590056E+02  0.00000000000E+00 0.  1.
         24    2    1    2    0    0 -0.23871200541E+02  0.61302334069E+02  0.19804781441E+03  0.22361544371E+03  0.80331310811E+02 0.  0.
         23    2    1    2    0    0  0.23520652427E+01 -0.34692835365E+02  0.11295991605E+01  0.96549461851E+02  0.90063297480E+02 0.  0.
        -11    1    3    3    0    0  0.23226925203E+02  0.47985181034E+02  0.12251148364E+03  0.13360812579E+03  0.00000000000E+00 0.  1.
         12    1    3    3    0    0 -0.47098125744E+02  0.13317153034E+02  0.75536330770E+02  0.90007317923E+02  0.00000000000E+00 0. -1.
        -11    1    4    4    0    0 -0.25340940154E+02  0.21168537320E+02  0.75480520385E+01  0.33870980348E+02  0.00000000000E+00 0.  1.
         11    1    4    4    0    0  0.27693005397E+02 -0.55861372685E+02 -0.64184528780E+01  0.62678481503E+02  0.00000000000E+00 0. -1.
          1    1    1    2  501    0  0.21519135298E+02 -0.26609498704E+02  0.31694488300E+02  0.46644176420E+02  0.00000000000E+00 0. -1.
<scales pt_clust_5="13000.00000" pt_clust_6="13000.00000" pt_clust_7="13000.00000" pt_clust_8="13000.00000" pt_clust_9="34.22192"></scales>
<clustering>
<clus scale="   34.222">  2  9  1 -1</clus>
<clus scale="   80.331">  5  6 -1 -1</clus>
<clus scale="   90.063">  7  8 -1 -1</clus>
<clus scale="   99.633">  1  5  2 -1</clus>
<clus scale="   34.222">  2  5  1 -1</clus>
</clustering>
</event>
<event>
 9    2  0.9254368E-005  0.1057871E+03  0.7546771E-02  0.1271954E+00
         21   -1    0    0  501  502  0.00000000000E+00  0.00000000000E+00  0.96028799816E+02  0.96028799816E+02  0.00000000000E+00 0. -1.
          2   -1    0    0  502    0 -0.00000000000E+00 -0.00000000000E+00 -0.21030097952E+03  0.21030097952E+03  0.00000000000E+00 0. -1.
         24    2    1    2    0    0  0.52273418057E+01  0.64851242235E+02 -0.81235323749E+02  0.13261503161E+03  0.82186130596E+02 0.  0.
         23    2    1    2    0    0  0.15006478039E+02 -0.31508215077E+02  0.28578681415E+02  0.10079260177E+03  0.90135706240E+02 0.  0.
        -11    1    3    3    0    0 -0.11226859608E+02  0.24191352085E+02 -0.84521286476E+02  0.88629068368E+02  0.00000000000E+00 0.  1.
         12    1    3    3    0    0  0.16454201413E+02  0.40659890151E+02  0.32859627264E+01  0.43985963241E+02  0.00000000000E+00 0. -1.
        -13    1    4    4    0    0  0.48124310018E+02 -0.31958497623E+02  0.11369915829E+01  0.57780511722E+02  0.00000000000E+00 0. -1.
         13    1    4    4    0    0 -0.33117831979E+02  0.45028254624E+00  0.27441689832E+02  0.43012090047E+02  0.00000000000E+00 0.  1.
          1    1    1    2  501    0 -0.20233819844E+02 -0.33343027158E+02 -0.61615537368E+02  0.72922145955E+02  0.00000000000E+00 0. -1.
<scales pt_clust_5="13000.00000" pt_clust_6="13000.00000" pt_clust_7="13000.00000" pt_clust_8="13000.00000" pt_clust_9="39.00213"></scales>
<clustering>
<clus scale="   39.002">  1  9  2 -1</clus>
<clus scale="   82.186">  5  6 -1 -1</clus>
<clus scale="   90.136">  7  8 -1 -1</clus>
<clus scale="   99.101">  2  5  1 -1</clus>
<clus scale="   39.002">  1  5  2 -1</clus>
</clustering>
</event>
<event>
 9    2  0.9254368E-005  0.1122897E+03  0.7546771E-02  0.1261245E+00
         21   -1    0    0  501  502  0.00000000000E+00  0.00000000000E+00  0.17350564267E+03  0.17350564267E+03  0.00000000000E+00 0.  1.
         -3   -1    0    0    0  501 -0.00000000000E+00 -0.00000000000E+00 -0.21570939890E+03  0.21570939890E+03  0.00000000000E+00 0.  1.
         23    2    1    2    0    0  0.55136232027E+02  0.37636005601E+02 -0.16581495387E+03  0.20117747244E+03  0.92310906659E+02 0.  0.
         24    2    1    2    0    0 -0.55552998953E+02 -0.74769518471E+01  0.51981011486E+02  0.11031610629E+03  0.79533497660E+02 0.  0.
        -13    1    4    4    0    0 -0.23387297265E+02  0.16793752390E+02 -0.14759287803E+02  0.32354788968E+02  0.00000000000E+00 0.  1.
         14    1    4    4    0    0 -0.32165701688E+02 -0.24270704237E+02  0.66740299289E+02  0.77961317321E+02  0.00000000000E+00 0. -1.
        -11    1    3    3    0    0  0.26409737093E+02 -0.26977975655E+01  0.15975425125E+01  0.26595196316E+02  0.00000000000E+00 0. -1.
         11    1    3    3    0    0  0.28726494934E+02  0.40333803167E+02 -0.16741249639E+03  0.17458227612E+03  0.00000000000E+00 0.  1.
         -4    1    1    2    0  502  0.41676692637E+00 -0.30159053754E+02  0.71630186157E+02  0.77721462846E+02  0.00000000000E+00 0.  1.
<scales pt_clust_5="13000.00000" pt_clust_6="13000.00000" pt_clust_7="13000.00000" pt_clust_8="13000.00000" pt_clust_9="30.16193"></scales>
<clustering>
<clus scale="   30.162">  1  9  2 -1</clus>
<clus scale="   79.533">  5  6 -1 -1</clus>
<clus scale="   92.311">  7  8 -1 -1</clus>
<clus scale="  102.045">  1  5  2 -1</clus>
<clus scale="   30.162">  1  5  2 -1</clus>
</clustering>
</event>
<event>
 9    2  0.9254368E-005  0.9129976E+02  0.7546771E-02  0.1306350E+00
         -1   -1    0    0    0  501 -0.00000000000E+00  0.00000000000E+00  0.47517454297E+03  0.47517454297E+03  0.00000000000E+00 0.  1.
         21   -1    0    0  501  502  0.00000000000E+00 -0.00000000000E+00 -0.24287338545E+02  0.24287338545E+02  0.00000000000E+00 0. -1.
         23    2    1    2    0    0 -0.10574302516E+02 -0.60776181670E+01  0.27116312781E+03  0.28633942428E+03  0.91170558304E+02 0.  0.
         24    2    1    2    0    0 -0.67753716063E+01 -0.16625486205E+02  0.10878248226E+03  0.13664270861E+03  0.80717339620E+02 0.  0.
        -13    1    4    4    0    0 -0.31451017523E+02 -0.17602425407E+02  0.10579727745E+03  0.11176795515E+03  0.00000000000E+00 0.  1.
         14    1    4    4    0    0  0.24675645916E+02  0.97693920152E+00  0.29852048169E+01  0.24874753454E+02  0.00000000000E+00 0. -1.
        -13    1    3    3    0    0 -0.29500220043E+02  0.33915573103E+02  0.17156487226E+03  0.17735567223E+03  0.00000000000E+00 0. -1.
         13    1    3    3    0    0  0.18925917527E+02 -0.39993191270E+02  0.99598255549E+02  0.10898375205E+03  0.00000000000E+00 0.  1.
         -2    1    1    2    0  502  0.17349674122E+02  0.22703104372E+02  0.70941594356E+02  0.76479748627E+02  0.00000000000E+00 0.  1.
<scales pt_clust_5="13000.00000" pt_clust_6="13000.00000" pt_clust_7="13000.00000" pt_clust_8="13000.00000" pt_clust_9="28.57347"></scales>
<clustering>
<clus scale="   28.573">  2  9  1 -1</clus>
<clus scale="   80.717">  5  6 -1 -1</clus>
<clus scale="   80.863">  2  5  1 -1</clus>
<clus scale="   91.171">  7  8 -1 -1</clus>
<clus scale="   28.573">  2  5  1 -1</clus>
</clustering>
</event>
<event>
 9    2  0.9254368E-005  0.9113619E+02  0.7546771E-02  0.1306097E+00
         21   -1    0    0  501  502  0.00000000000E+00  0.00000000000E+00  0.77035002453E+02  0.77035002453E+02  0.00000000000E+00 0. -1.
         -1   -1    0    0    0  501 -0.00000000000E+00 -0.00000000000E+00 -0.18211430146E+03  0.18211430146E+03  0.00000000000E+00 0.  1.
         24    2    1    2    0    0  0.11282865263E+02 -0.20203791391E+01 -0.10610587559E+03  0.13326700864E+03  0.79813869574E+02 0.  0.
         23    2    1    2    0    0 -0.32980599502E+02  0.16730718853E+02 -0.10233017746E+02  0.97352236919E+02  0.89471260660E+02 0.  0.
        -13    1    3    3    0    0  0.32901090357E+02  0.15991886908E+01 -0.10636246098E+03  0.11134636167E+03  0.00000000000E+00 0.  1.
         14    1    3    3    0    0 -0.21618225094E+02 -0.36195678298E+01  0.25658539031E+00  0.21920646970E+02  0.00000000000E+00 0. -1.
        -11    1    4    4    0    0  0.21279695298E+02 -0.13716596569E+02  0.15869090709E+02  0.29879733823E+02  0.00000000000E+00 0.  1.
         11    1    4    4    0    0 -0.54260294800E+02  0.30447315422E+02 -0.26102108455E+02  0.67472503096E+02  0.00000000000E+00 0. -1.
         -2    1    1    2    0  502  0.21697734239E+02 -0.14710339714E+02  0.11259594325E+02  0.28530058359E+02  0.00000000000E+00 0.  1.
<scales pt_clust_5="13000.00000" pt_clust_6="13000.00000" pt_clust_7="13000.00000" pt_clust_8="13000.00000" pt_clust_9="26.21423"></scales>
<clustering>
<clus scale="   26.214">  1  9  2 -1</clus>
<clus scale="   79.814">  5  6 -1 -1</clus>
<clus scale="   81.676">  2  5  1 -1</clus>
<clus scale="   89.471">  7  8 -1 -1</clus>
<clus scale="   26.214">  1  5  2 -1</clus>
</clustering>
</event>
<event>
 9    2  0.9254368E-005  0.8824334E+02  0.7546771E-02  0.1311031E+00
         -1   -1    0    0    0  501 -0.00000000000E+00  0.00000000000E+00  0.51692208845E+02  0.51692208845E+02  0.00000000000E+00 0.  1.
         21   -1    0    0  501  502  0.00000000000E+00 -0.00000000000E+00 -0.33250916034E+03  0.33250916034E+03  0.00000000000E+00 0. -1.
         24    2    1    2    0    0  0.16477470139E+02  0.11441114763E+02 -0.14711489629E+02  0.83730808262E+02  0.79950073145E+02 0.  0.
         23    2    1    2    0    0 -0.25711904514E+02  0.15419293600E+02 -0.25349820774E+03  0.26939486025E+03  0.86101061276E+02 0.  0.
        -11    1    3    3    0    0 -0.85475221609E+01 -0.24511321149E+02  0.15761736278E+02  0.30369348529E+02  0.00000000000E+00 0.  1.
         12    1    3    3    0    0  0.25024992300E+02  0.35952435912E+02 -0.30473225907E+02  0.53361459733E+02  0.00000000000E+00 0. -1.
        -11    1    4    4    0    0 -0.53584474501E+02 -0.78574529021E+01 -0.13502477147E+03  0.14548101039E+03  0.00000000000E+00 0.  1.
         11    1    4    4    0    0  0.27872569988E+02  0.23276746502E+02 -0.11847343626E+03  0.12391384985E+03  0.00000000000E+00 0. -1.
         -2    1    1    2    0  502  0.92344343743E+01 -0.26860408363E+02 -0.12607254125E+02  0.31075700671E+02  0.00000000000E+00 0.  1.
<scales pt_clust_5="13000.00000" pt_clust_6="13000.00000" pt_clust_7="13000.00000" pt_clust_8="13000.00000" pt_clust_9="28.40347"></scales>
<clustering>
<clus scale="   28.403">  2  9  1 -1</clus>
<clus scale="   79.950">  5  6 -1 -1</clus>
<clus scale="   82.253">  1  5  2 -1</clus>
<clus scale="   86.101">  7  8 -1 -1</clus>
<clus scale="   28.403">  2  5  1 -1</clus>
</clustering>
</event>
<event>
 9    2  0.9254368E-005  0.9027702E+02  0.7546771E-02  0.1304496E+00
         21   -1    0    0  501  502  0.00000000000E+00  0.00000000000E+00  0.71074832820E+02  0.71074832820E+02  0.00000000000E+00 0. -1.
          2   -1    0    0  502    0 -0.00000000000E+00 -0.00000000000E+00 -0.44132007942E+03  0.44132007942E+03  0.00000000000E+00 0. -1.
         23    2    1    2    0    0  0.17711873953E+02  0.25025925108E+02 -0.36973198265E+03  0.38048996976E+03  0.84444482874E+02 0.  0.
         24    2    1    2    0    0 -0.46285318569E+02 -0.15343508855E+02 -0.19780981160E+02  0.96107793874E+02  0.80421805803E+02 0.  0.
        -11    1    4    4    0    0 -0.15925873971E+02 -0.32984280164E+02  0.21057861317E+02  0.42249612104E+02  0.00000000000E+00 0.  1.
         12    1    4    4    0    0 -0.30359444598E+02  0.17640771309E+02 -0.40838842477E+02  0.53858181770E+02  0.00000000000E+00 0. -1.
        -11    1    3    3    0    0 -0.83784178475E+01 -0.24303964967E+02 -0.53309619708E+02  0.59184424912E+02  0.00000000000E+00 0.  1.
         11    1    3    3    0    0  0.26090291800E+02  0.49329890075E+02 -0.31642236294E+03  0.32130554485E+03  0.00000000000E+00 0. -1.
          1    1    1    2  501    0  0.28573444616E+02 -0.96824162531E+01  0.19267717211E+02  0.35797148605E+02  0.00000000000E+00 0. -1.
<scales pt_clust_5="13000.00000" pt_clust_6="13000.00000" pt_clust_7="13000.00000" pt_clust_8="13000.00000" pt_clust_9="30.16937"></scales>
<clustering>
<clus scale="   30.169">  1  9  2 -1</clus>
<clus scale="   80.422">  5  6 -1 -1</clus>
<clus scale="   84.444">  7  8 -1 -1</clus>
<clus scale="   86.526">  1  5  2 -1</clus>
<clus scale="   30.169">  1  5  2 -1</clus>
</clustering>
</event>
<event>
 9    2  0.9254368E-005  0.2122715E+03  0.7546771E-02  0.1140708E+00
         21   -1    0    0  501  502  0.00000000000E+00  0.00000000000E+00  0.76080901847E+03  0.76080901847E+03  0.00000000000E+00 0.  1.
         -3   -1    0    0    0  501 -0.00000000000E+00 -0.00000000000E+00 -0.69862370408E+02  0.69862370408E+02  0.00000000000E+00 0.  1.
         23    2    1    2    0    0 -0.14897344319E+03 -0.10802920536E+03  0.27816022181E+03  0.34599678767E+03  0.92072102693E+02 0.  0.
         24    2    1    2    0    0  0.14106152535E+03  0.14395928566E+03  0.34756678853E+03  0.40979356049E+03  0.80656431047E+02 0.  0.
        -13    1    4    4    0    0  0.14589283273E+03  0.12514766636E+03  0.28100657683E+03  0.34045756455E+03  0.00000000000E+00 0.  1.
         14    1    4    4    0    0 -0.48313073788E+01  0.18811619292E+02  0.66560211699E+02  0.69335995939E+02  0.00000000000E+00 0. -1.
        -11    1    3    3    0    0 -0.99279200737E+02 -0.10136530801E+03  0.25259479572E+03  0.28971609584E+03  0.00000000000E+00 0.  1.
         11    1    3    3    0    0 -0.49694242458E+02 -0.66638973516E+01  0.25565426088E+02  0.56280691826E+02  0.00000000000E+00 0. -1.
         -4    1    1    2    0  502  0.79119178459E+01 -0.35930080292E+02  0.65219637727E+02  0.74881040718E+02  0.00000000000E+00 0.  1.
<scales pt_clust_5="13000.00000" pt_clust_6="13000.00000" pt_clust_7="13000.00000" pt_clust_8="13000.00000" pt_clust_9="36.79088"></scales>
<clustering>
<clus scale="   36.791">  1  9  2 -1</clus>
<clus scale="   80.656">  5  6 -1 -1</clus>
<clus scale="   92.072">  7  8 -1 -1</clus>
<clus scale="  207.575">  1  5  2 -1</clus>
<clus scale="   36.791">  1  5  2 -1</clus>
</clustering>
</event>
<event>
 9    2  0.9254368E-005  0.1072761E+03  0.7546771E-02  0.1270149E+00
         -3   -1    0    0    0  501 -0.00000000000E+00  0.00000000000E+00  0.31249458220E+02  0.31249458220E+02  0.00000000000E+00 0.  1.
         21   -1    0    0  501  502  0.00000000000E+00 -0.00000000000E+00 -0.76199523301E+03  0.76199523301E+03  0.00000000000E+00 0. -1.
         23    2    1    2    0    0 -0.64342785895E+02 -0.37774450227E+02 -0.21140552145E+03  0.24191072702E+03  0.90893355976E+02 0.  0.
         24    2    1    2    0    0  0.19665199998E+02  0.59841334230E+01 -0.47102802912E+03  0.47825331059E+03  0.80226522630E+02 0.  0.
        -13    1    4    4    0    0  0.49379204334E+02  0.13652545256E+02 -0.25926951066E+03  0.26428275951E+03  0.00000000000E+00 0.  1.
         14    1    4    4    0    0 -0.29714004336E+02 -0.76684118328E+01 -0.21175851845E+03  0.21397055109E+03  0.00000000000E+00 0. -1.
        -13    1    3    3    0    0 -0.45762351028E+02 -0.61718206148E+02 -0.98017707491E+02  0.12454236518E+03  0.00000000000E+00 0.  1.
         13    1    3    3    0    0 -0.18580434867E+02  0.23943755921E+02 -0.11338781396E+03  0.11736836184E+03  0.00000000000E+00 0. -1.
         -4    1    1    2    0  502  0.44677585897E+02  0.31790316804E+02 -0.48312224223E+02  0.73080653620E+02  0.00000000000E+00 0.  1.
<scales pt_clust_5="13000.00000" pt_clust_6="13000.00000" pt_clust_7="13000.00000" pt_clust_8="13000.00000" pt_clust_9="54.83351"></scales>
<clustering>
<clus scale="   54.834">  2  9  1 -1</clus>
<clus scale="   80.227">  5  6 -1 -1</clus>
<clus scale="   90.893">  7  8 -1 -1</clus>
<clus scale="   98.402">  2  5  1 -1</clus>
<clus scale="   54.834">  2  5  1 -1</clus>
</clustering>
</event>
<event>
 9    2  0.9254368E-005  0.1800343E+03  0.7546771E-02  0.1200170E+00
         21   -1    0    0  501  502  0.00000000000E+00  0.00000000000E+00  0.52309704010E+03  0.52309704010E+03  0.00000000000E+00 0. -1.
          2   -1    0    0  502    0 -0.00000000000E+00 -0.00000000000E+00 -0.21355694308E+03  0.21355694308E+03  0.00000000000E+00 0. -1.
         24    2    1    2    0    0 -0.38859511887E+02 -0.21250600859E+02 -0.12085707341E+03  0.14910591793E+03  0.75262825279E+02 0.  0.
         23    2    1    2    0    0 -0.37363633954E+02  0.15616577434E+03  0.74216255880E+02  0.19911928686E+03  0.91414700942E+02 0.  0.
        -11    1    3    3    0    0 -0.22301576516E+02 -0.34458672267E+02 -0.19287840685E+02  0.45351749776E+02  0.00000000000E+00 0.  1.
         12    1    3    3    0    0 -0.16557935371E+02  0.13208071408E+02 -0.10156923272E+03  0.10375416816E+03  0.00000000000E+00 0. -1.
        -13    1    4    4    0    0 -0.65770069932E+02  0.95829348230E+02  0.33402868481E+02  0.12093269907E+03  0.00000000000E+00 0. -1.
         13    1    4    4    0    0  0.28406435978E+02  0.60336426106E+02  0.40813387400E+02  0.78186587796E+02  0.00000000000E+00 0.  1.
          1    1    1    2  501    0  0.76223145841E+02 -0.13491517348E+03  0.35618091454E+03  0.38842877839E+03  0.00000000000E+00 0. -1.
<scales pt_clust_5="13000.00000" pt_clust_6="13000.00000" pt_clust_7="13000.00000" pt_clust_8="13000.00000" pt_clust_9="155.09900"></scales>
<clustering>
<clus scale="   75.263">  5  6 -1 -1</clus>
<clus scale="   87.328">  2  5  1 -1</clus>
<clus scale="   91.415">  7  8 -1 -1</clus>
<clus scale="  155.099">  1  9  2 -1</clus>
<clus scale="  155.099">  1  5  2 -1</clus>
</clustering>
</event>
<event>
 9    2  0.9254368E-005  0.1590606E+03  0.7546771E-02  0.1190902E+00
         -1   -1    0    0    0  501 -0.00000000000E+00  0.00000000000E+00  0.36638173223E+03  0.36638173223E+03  0.00000000000E+00 0.  1.
         21   -1    0    0  501  502  0.00000000000E+00 -0.00000000000E+00 -0.19637314517E+03  0.19637314517E+03  0.00000000000E+00 0.  1.
         24    2    1    2    0    0 -0.13353100745E+03  0.21081010498E+02  0.22189744881E+03  0.27217362134E+03  0.81025078905E+02 0.  0.
         23    2    1    2    0    0  0.93664803629E+02 -0.12167894611E+03 -0.40838079297E+02  0.18180911510E+03  0.88362572673E+02 0.  0.
        -11    1    3    3    0    0 -0.14054354994E+03  0.28527864890E+02  0.21856895869E+03  0.26141675196E+03  0.00000000000E+00 0.  1.
         12    1    3    3    0    0  0.70125424818E+01 -0.74468543914E+01  0.33284901184E+01  0.10756869380E+02  0.00000000000E+00 0. -1.
        -13    1    4    4    0    0  0.10450905293E+03 -0.10147068638E+03 -0.54016486327E+02  0.15535837002E+03  0.00000000000E+00 0.  1.
         13    1    4    4    0    0 -0.10844249297E+02 -0.20208259723E+02  0.13178407030E+02  0.26450745088E+02  0.00000000000E+00 0. -1.
         -2    1    1    2    0  502  0.39866203826E+02  0.10059793561E+03 -0.11050782446E+02  0.10877214096E+03  0.00000000000E+00 0.  1.
<scales pt_clust_5="13000.00000" pt_clust_6="13000.00000" pt_clust_7="13000.00000" pt_clust_8="13000.00000" pt_clust_9="108.20933"></scales>
<clustering>
<clus scale="   81.025">  5  6 -1 -1</clus>
<clus scale="   88.363">  7  8 -1 -1</clus>
<clus scale="  108.209">  2  9  1 -1</clus>
<clus scale="  155.104">  1  5  2 -1</clus>
<clus scale="  108.209">  2  5  1 -1</clus>
</clustering>
</event>
<event>
 9    2  0.9254368E-005  0.1103320E+03  0.7546771E-02  0.1262857E+00
          2   -1    0    0  502    0 -0.00000000000E+00  0.00000000000E+00  0.12832672216E+03  0.12832672216E+03  0.00000000000E+00 0. -1.
         21   -1    0    0  501  502  0.00000000000E+00 -0.00000000000E+00 -0.13647692465E+03  0.13647692465E+03  0.00000000000E+00 0.  1.
         23    2    1    2    0    0 -0.33265992808E+02  0.43407037255E+02 -0.15752860502E+02  0.10555174735E+03  0.88894440740E+02 0.  0.
         24    2    1    2    0    0  0.98640120297E+01 -0.79717133717E+02 -0.47724627607E+01  0.11431617398E+03  0.81199083075E+02 0.  0.
        -13    1    4    4    0    0 -0.16794177480E+02 -0.78873745822E+02  0.13801579578E+02  0.81814398342E+02  0.00000000000E+00 0.  1.
         14    1    4    4    0    0  0.26658189510E+02 -0.84338789506E+00 -0.18574042339E+02  0.32501775642E+02  0.00000000000E+00 0. -1.
        -11    1    3    3    0    0 -0.32911482555E+01  0.66468044448E+02 -0.98427652118E+01  0.67273416864E+02  0.00000000000E+00 0.  1.
         11    1    3    3    0    0 -0.29974844553E+02 -0.23061007192E+02 -0.59100952905E+01  0.38278330489E+02  0.00000000000E+00 0. -1.
          1    1    1    2  501    0  0.23401980779E+02  0.36310096462E+02  0.12375120782E+02  0.44935725473E+02  0.00000000000E+00 0. -1.
<scales pt_clust_5="13000.00000" pt_clust_6="13000.00000" pt_clust_7="13000.00000" pt_clust_8="13000.00000" pt_clust_9="43.19812"></scales>
<clustering>
<clus scale="   43.198">  2  9  1 -1</clus>
<clus scale="   81.199">  5  6 -1 -1</clus>
<clus scale="   88.894">  7  8 -1 -1</clus>
<clus scale="  104.232">  2  5  1 -1</clus>
<clus scale="   43.198">  2  5  1 -1</clus>
</clustering>
</event>
<event>
 9    2  0.9254368E-005  0.1568551E+03  0.7546771E-02  0.1193944E+00
          2   -1    0    0  502    0 -0.00000000000E+00  0.00000000000E+00  0.22467684451E+03  0.22467684451E+03  0.00000000000E+00 0. -1.
         21   -1    0    0  501  502  0.00000000000E+00 -0.00000000000E+00 -0.26864012953E+03  0.26864012953E+03  0.00000000000E+00 0. -1.
         24    2    1    2    0    0 -0.11545261472E+03  0.73233367099E+02  0.11044665458E+03  0.19340654832E+03  0.80716771023E+02 0.  0.
         23    2    1    2    0    0  0.99762483790E+02 -0.52455763014E+02 -0.14138529270E+01  0.14471476992E+03  0.90753542119E+02 0.  0.
        -13    1    3    3    0    0 -0.77077976953E+01  0.46635957570E+02  0.25963927647E+02  0.53930030805E+02  0.00000000000E+00 0.  1.
         14    1    3    3    0    0 -0.10774481702E+03  0.26597409529E+02  0.84482726930E+02  0.13947651752E+03  0.00000000000E+00 0. -1.
        -13    1    4    4    0    0  0.10346338693E+03 -0.21712137909E+02 -0.21397593963E+02  0.10786077320E+03  0.00000000000E+00 0. -1.
         13    1    4    4    0    0 -0.37009031371E+01 -0.30743625105E+02  0.19983741036E+02  0.36853996723E+02  0.00000000000E+00 0.  1.
          1    1    1    2  501    0  0.15690130927E+02 -0.20777604085E+02 -0.15299608667E+03  0.15519565579E+03  0.00000000000E+00 0. -1.
<scales pt_clust_5="13000.00000" pt_clust_6="13000.00000" pt_clust_7="13000.00000" pt_clust_8="13000.00000" pt_clust_9="26.03630"></scales>
<clustering>
<clus scale="   26.036">  2  9  1 -1</clus>
<clus scale="   80.717">  5  6 -1 -1</clus>
<clus scale="   90.754">  7  8 -1 -1</clus>
<clus scale="  151.270">  1  5  2 -1</clus>
<clus scale="   26.036">  2  5  1 -1</clus>
</clustering>
</event>
<event>
 9    2  0.9254368E-005  0.1510113E+03  0.7546771E-02  0.1224834E+00
          2   -1    0    0  502    0 -0.00000000000E+00  0.00000000000E+00  0.62920244448E+03  0.62920244448E+03  0.00000000000E+00 0. -1.
         21   -1    0    0  501  502  0.00000000000E+00 -0.00000000000E+00 -0.13552293304E+03  0.13552293304E+03  0.00000000000E+00 0. -1.
         24    2    1    2    0    0 -0.26991339974E+02 -0.15073006420E+02  0.36910799569E+03  0.37935615077E+03  0.81942959959E+02 0.  0.
         23    2    1    2    0    0 -0.45853604366E+02  0.11399585132E+03  0.19256130472E+03  0.24496008686E+03  0.88475877674E+02 0.  0.
        -11    1    3    3    0    0  0.21956274754E+01 -0.40645124499E+02  0.10867117993E+03  0.11604426859E+03  0.00000000000E+00 0.  1.
         12    1    3    3    0    0 -0.29186967449E+02  0.25572118080E+02  0.26043681576E+03  0.26331188218E+03  0.00000000000E+00 0. -1.
        -11    1    4    4    0    0 -0.69799525312E+02  0.81533416610E+02  0.16209942831E+03  0.19441166738E+03  0.00000000000E+00 0. -1.
         11    1    4    4    0    0  0.23945920946E+02  0.32462434712E+02  0.30461876408E+02  0.50548419478E+02  0.00000000000E+00 0.  1.
          1    1    1    2  501    0  0.72844944340E+02 -0.98922844903E+02 -0.67989788962E+02  0.14040913988E+03  0.00000000000E+00 0. -1.
<scales pt_clust_5="13000.00000" pt_clust_6="13000.00000" pt_clust_7="13000.00000" pt_clust_8="13000.00000" pt_clust_9="122.37828"></scales>
<clustering>
<clus scale="   81.943">  5  6 -1 -1</clus>
<clus scale="   87.581">  1  5  2 -1</clus>
<clus scale="   88.476">  7  8 -1 -1</clus>
<clus scale="  122.378">  2  9  1 -1</clus>
<clus scale="  122.378">  2  5  1 -1</clus>
</clustering>
</event>
<event>
 9    2  0.9254368E-005  0.1159860E+03  0.7546771E-02  0.1254286E+00
         -1   -1    0    0    0  501 -0.00000000000E+00  0.00000000000E+00  0.17152663283E+03  0.17152663283E+03  0.00000000000E+00 0.  1.
         21   -1    0    0  501  502  0.00000000000E+00 -0.00000000000E+00 -0.21938678191E+03  0.21938678191E+03  0.00000000000E+00 0.  1.
         23    2    1    2    0    0  0.31757482082E+02 -0.34074748377E+02 -0.25322650619E+02  0.10661472253E+03  0.92497763647E+02 0.  0.
         24    2    1    2    0    0 -0.12873681595E+03  0.64440655140E+01 -0.76572307473E+02  0.16989499290E+03  0.79914307712E+02 0.  0.
        -11    1    4    4    0    0 -0.80663510368E+02  0.13876592000E+02 -0.32614463663E+01  0.81913361198E+02  0.00000000000E+00 0.  1.
         12    1    4    4    0    0 -0.48073305585E+02 -0.74325264857E+01 -0.73310861107E+02  0.87981631697E+02  0.00000000000E+00 0. -1.
        -13    1    3    3    0    0  0.24318097327E+02  0.21131417319E+02 -0.37659811971E+02  0.49559742667E+02  0.00000000000E+00 0. -1.
         13    1    3    3    0    0  0.74393847552E+01 -0.55206165696E+02  0.12337161352E+02  0.57054979858E+02  0.00000000000E+00 0.  1.
         -2    1    1    2    0  502  0.96979333871E+02  0.27630682863E+02  0.54034809010E+02  0.11440369932E+03  0.00000000000E+00 0.  1.
<scales pt_clust_5="13000.00000" pt_clust_6="13000.00000" pt_clust_7="13000.00000" pt_clust_8="13000.00000" pt_clust_9="100.83876"></scales>
<clustering>
<clus scale="   79.914">  5  6 -1 -1</clus>
<clus scale="   92.498">  7  8 -1 -1</clus>
<clus scale="  100.839">  2  9  1 -1</clus>
<clus scale="  106.222">  2  5  1 -1</clus>
<clus scale="  100.839">  2  5  1 -1</clus>
</clustering>
</event>
<event>
 9    2  0.9254368E-005  0.1368245E+03  0.7546771E-02  0.1219818E+00
         21   -1    0    0  501  502  0.00000000000E+00  0.00000000000E+00  0.23183912691E+03  0.23183912691E+03  0.00000000000E+00 0. -1.
          2   -1    0    0  502    0 -0.00000000000E+00 -0.00000000000E+00 -0.67875775238E+03  0.67875775238E+03  0.00000000000E+00 0. -1.
         24    2    1    2    0    0  0.10206397726E+03  0.48439146371E+02 -0.50691704679E+03  0.52570242036E+03  0.81453889296E+02 0.  0.
         23    2    1    2    0    0 -0.78608093965E+02 -0.10800006125E+02 -0.13724796297E+03  0.18272369087E+03  0.90857422912E+02 0.  0.
        -13    1    3    3    0    0 -0.10220398763E+02  0.19685777811E+02 -0.10970052669E+03  0.11192047157E+03  0.00000000000E+00 0.  1.
         14    1    3    3    0    0  0.11228437602E+03  0.28753368560E+02 -0.39721652010E+03  0.41378194879E+03  0.00000000000E+00 0. -1.
        -11    1    4    4    0    0  0.20715787838E+02  0.89001054296E-02 -0.23262090589E+02  0.31149138086E+02  0.00000000000E+00 0. -1.
         11    1    4    4    0    0 -0.99323881803E+02 -0.10808906231E+02 -0.11398587238E+03  0.15157455279E+03  0.00000000000E+00 0.  1.
          1    1    1    2  501    0 -0.23455883291E+02 -0.37639140246E+02  0.19724638429E+03  0.20217076805E+03  0.00000000000E+00 0. -1.
<scales pt_clust_5="13000.00000" pt_clust_6="13000.00000" pt_clust_7="13000.00000" pt_clust_8="13000.00000" pt_clust_9="44.34956"></scales>
<clustering>
<clus scale="   44.350">  1  9  2 -1</clus>
<clus scale="   81.454">  5  6 -1 -1</clus>
<clus scale="   90.857">  7  8 -1 -1</clus>
<clus scale="  130.769">  2  5  1 -1</clus>
<clus scale="   44.350">  1  5  2 -1</clus>
</clustering>
</event>
<event>
 9    2  0.9254368E-005  0.1117540E+03  0.7546771E-02  0.1263325E+00
         -1   -1    0    0    0  501 -0.00000000000E+00  0.00000000000E+00  0.10377089867E+03  0.10377089867E+03  0.00000000000E+00 0.  1.
         21   -1    0    0  501  502  0.00000000000E+00 -0.00000000000E+00 -0.28408237560E+03  0.28408237560E+03  0.00000000000E+00 0. -1.
         23    2    1    2    0    0  0.41028272218E+02  0.74190765045E+01  0.20722532325E+02  0.10758238313E+03  0.96985483428E+02 0.  0.
         24    2    1    2    0    0 -0.99151986372E+02  0.57180129213E+01 -0.10123950440E+03  0.16403882816E+03  0.82434748865E+02 0.  0.
        -13    1    4    4    0    0 -0.13302751599E+02  0.23508957074E+02  0.37341920293E+01  0.27268634967E+02  0.00000000000E+00 0.  1.
         14    1    4    4    0    0 -0.85849234773E+02 -0.17790944153E+02 -0.10497369643E+03  0.13677019319E+03  0.00000000000E+00 0. -1.
        -11    1    3    3    0    0  0.62817677889E+02 -0.81202769830E+01 -0.12867637306E+02  0.64634167771E+02  0.00000000000E+00 0.  1.
         11    1    3    3    0    0 -0.21789405671E+02  0.15539353487E+02  0.33590169631E+02  0.42948215355E+02  0.00000000000E+00 0. -1.
         -2    1    1    2    0  502  0.58123714154E+02 -0.13137089426E+02 -0.99794504856E+02  0.11623206298E+03  0.00000000000E+00 0.  1.
<scales pt_clust_5="13000.00000" pt_clust_6="13000.00000" pt_clust_7="13000.00000" pt_clust_8="13000.00000" pt_clust_9="59.58984"></scales>
<clustering>
<clus scale="   59.590">  2  9  1 -1</clus>
<clus scale="   82.435">  5  6 -1 -1</clus>
<clus scale="   96.985">  7  8 -1 -1</clus>
<clus scale="   99.389">  2  5  1 -1</clus>
<clus scale="   59.590">  2  5  1 -1</clus>
</clustering>
</event>
<event>
 9    2  0.9254368E-005  0.1268185E+03  0.7546771E-02  0.1236283E+00
         21   -1    0    0  501  502  0.00000000000E+00  0.00000000000E+00  0.15779998349E+03  0.15779998349E+03  0.00000000000E+00 0. -1.
         -1   -1    0    0    0  501 -0.00000000000E+00 -0.00000000000E+00 -0.12133079483E+03  0.12133079483E+03  0.00000000000E+00 0.  1.
         24    2    1    2    0    0  0.91025392783E+02  0.14958898859E+02 -0.16473122953E+02  0.12342695001E+03  0.80333414116E+02 0.  0.
         23    2    1    2    0    0 -0.74534568601E+02  0.14922221089E+01  0.32131702224E+02  0.12446814156E+03  0.94351700211E+02 0.  0.
        -11    1    3    3    0    0  0.59984405481E+02  0.35016751354E+02 -0.39479821254E+02  0.79893416891E+02  0.00000000000E+00 0.  1.
         12    1    3    3    0    0  0.31040987301E+02 -0.20057852495E+02  0.23006698301E+02  0.43533533122E+02  0.00000000000E+00 0. -1.
        -13    1    4    4    0    0 -0.41204784370E+02 -0.22769162143E+02 -0.25554205894E+02  0.53565720742E+02  0.00000000000E+00 0.  1.
         13    1    4    4    0    0 -0.33329784230E+02  0.24261384252E+02  0.57685908118E+02  0.70902420820E+02  0.00000000000E+00 0. -1.
         -2    1    1    2    0  502 -0.16490824182E+02 -0.16451120968E+02  0.20810609390E+02  0.31235686746E+02  0.00000000000E+00 0.  1.
<scales pt_clust_5="13000.00000" pt_clust_6="13000.00000" pt_clust_7="13000.00000" pt_clust_8="13000.00000" pt_clust_9="23.29349"></scales>
<clustering>
<clus scale="   23.293">  1  9  2 -1</clus>
<clus scale="   80.333">  5  6 -1 -1</clus>
<clus scale="   94.352">  7  8 -1 -1</clus>
<clus scale="  116.765">  2  5  1 -1</clus>
<clus scale="   23.293">  1  5  2 -1</clus>
</clustering>
</event>
<event>
 9    2  0.9254368E-005  0.1733216E+03  0.7546771E-02  0.1174981E+00
         21   -1    0    0  501  502  0.00000000000E+00  0.00000000000E+00  0.77409294148E+02  0.77409294148E+02  0.00000000000E+00 0. -1.
          2   -1    0    0  502    0 -0.00000000000E+00 -0.00000000000E+00 -0.11808640256E+04  0.11808640256E+04  0.00000000000E+00 0. -1.
         24    2    1    2    0    0  0.56855133627E+02  0.16240429770E+03 -0.48180553913E+03  0.51782498940E+03  0.79990499309E+02 0.  0.
         23    2    1    2    0    0  0.99027559010E+02 -0.12041501044E+03 -0.12170821237E+03  0.21508798016E+03  0.84520518630E+02 0.  0.
        -13    1    3    3    0    0 -0.55072548881E+01  0.37339324884E+02 -0.42567039585E+02  0.56890314626E+02  0.00000000000E+00 0.  1.
         14    1    3    3    0    0  0.62362388515E+02  0.12506497281E+03 -0.43923849954E+03  0.46093467477E+03  0.00000000000E+00 0. -1.
        -11    1    4    4    0    0  0.14719895459E+02 -0.66134310062E+02 -0.16463556449E+02  0.69724249589E+02  0.00000000000E+00 0.  1.
         11    1    4    4    0    0  0.84307663552E+02 -0.54280700380E+02 -0.10524465592E+03  0.14536373057E+03  0.00000000000E+00 0. -1.
          1    1    1    2  501    0 -0.15588269264E+03 -0.41989287253E+02 -0.49994097996E+03  0.52536035019E+03  0.00000000000E+00 0. -1.
<scales pt_clust_5="13000.00000" pt_clust_6="13000.00000" pt_clust_7="13000.00000" pt_clust_8="13000.00000" pt_clust_9="161.43897"></scales>
<clustering>
<clus scale="   79.990">  5  6 -1 -1</clus>
<clus scale="   84.521">  7  8 -1 -1</clus>
<clus scale="  161.439">  1  9  2 -1</clus>
<clus scale="  171.158">  2  5  1 -1</clus>
<clus scale="  161.439">  1  5  2 -1</clus>
</clustering>
</event>
<event>
 9    2  0.9254368E-005  0.4170319E+03  0.7546771E-02  0.1038196E+00
         21   -1    0    0  501  502  0.00000000000E+00  0.00000000000E+00  0.34886116893E+03  0.34886116893E+03  0.00000000000E+00 0.  1.
         -1   -1    0    0    0  501 -0.00000000000E+00 -0.00000000000E+00 -0.80892358963E+03  0.80892358963E+03  0.00000000000E+00 0.  1.
         23    2    1    2    0    0  0.15653469331E+02 -0.40243703349E+03 -0.48266116803E+03  0.63509916210E+03  0.90490582613E+02 0.  0.
         24    2    1    2    0    0 -0.70561493112E+02  0.41452391618E+03 -0.49688524148E+02  0.43110812419E+03  0.81094166947E+02 0.  0.
        -11    1    4    4    0    0 -0.74080561889E+02  0.21089809285E+03 -0.41050865147E+02  0.22726880284E+03  0.00000000000E+00 0.  1.
         12    1    4    4    0    0  0.35190687779E+01  0.20362582333E+03 -0.86376590014E+01  0.20383932135E+03  0.00000000000E+00 0. -1.
        -13    1    3    3    0    0 -0.17211103898E+02 -0.20931342348E+03 -0.30707677324E+03  0.37202752050E+03  0.00000000000E+00 0.  1.
         13    1    3    3    0    0  0.32864573229E+02 -0.19312361001E+03 -0.17558439479E+03  0.26307164159E+03  0.00000000000E+00 0. -1.
         -2    1    1    2    0  502  0.54908023781E+02 -0.12086882691E+02  0.72287271480E+02  0.91577472266E+02  0.00000000000E+00 0.  1.
<scales pt_clust_5="13000.00000" pt_clust_6="13000.00000" pt_clust_7="13000.00000" pt_clust_8="13000.00000" pt_clust_9="56.22263"></scales>
<clustering>
<clus scale="   56.223">  1  9  2 -1</clus>
<clus scale="   81.094">  5  6 -1 -1</clus>
<clus scale="   90.491">  7  8 -1 -1</clus>
<clus scale="  415.094">  1  5  2 -1</clus>
<clus scale="   56.223">  1  5  2 -1</clus>
</clustering>
</event>
<event>
 9    2  0.1655938E-004  0.9416366E+02  0.7546771E-02  0.1298061E+00
         21   -1    0    0  501  502  0.00000000000E+00  0.00000000000E+00  0.25895438730E+03  0.25895438730E+03  0.00000000000E+00 0.  1.
         -1   -1    0    0    0  501 -0.00000000000E+00 -0.00000000000E+00 -0.27523071840E+03  0.27523071840E+03  0.00000000000E+00 0.  1.
         24    2    1    2    0    0 -0.11994561275E+02 -0.27158498617E+02 -0.25035917200E+03  0.26456168558E+03  0.80197985817E+02 0.  0.
         23    2    1    2    0    0  0.24022603352E+02  0.51723441764E+02  0.19637588266E+03  0.22304096712E+03  0.89058328219E+02 0.  0.
        -13    1    3    3    0    0 -0.41539175425E+02 -0.24418123946E+02 -0.20327787338E+03  0.20891060690E+03  0.00000000000E+00 0.  1.
         14    1    3    3    0    0  0.29544614151E+02 -0.27403746713E+01 -0.47081298620E+02  0.55651078682E+02  0.00000000000E+00 0. -1.
        -11    1    4    4    0    0  0.85071330096E+01  0.76068040187E+02  0.13430059174E+03  0.15458126339E+03  0.00000000000E+00 0.  1.
         11    1    4    4    0    0  0.15515470342E+02 -0.24344598423E+02  0.62075290917E+02  0.68459703729E+02  0.00000000000E+00 0. -1.
         -2    1    1    2    0  502 -0.12028042077E+02 -0.24564943147E+02  0.37706958239E+02  0.46582453002E+02  0.00000000000E+00 0.  1.
<scales pt_clust_5="13000.00000" pt_clust_6="13000.00000" pt_clust_7="13000.00000" pt_clust_8="13000.00000" pt_clust_9="27.35160"></scales>
<clustering>
<clus scale="   27.352">  1  9  2 -1</clus>
<clus scale="   80.198">  5  6 -1 -1</clus>
<clus scale="   85.832">  2  5  1 -1</clus>
<clus scale="   89.058">  7  8 -1 -1</clus>
<clus scale="   27.352">  1  5  2 -1</clus>
</clustering>
</event>
<event>
 9    2  0.9254368E-005  0.1157545E+03  0.7546771E-02  0.1253246E+00
         21   -1    0    0  501  502  0.00000000000E+00  0.00000000000E+00  0.21863017304E+03  0.21863017304E+03  0.00000000000E+00 0. -1.
          2   -1    0    0  502    0 -0.00000000000E+00 -0.00000000000E+00 -0.45893351704E+03  0.45893351704E+03  0.00000000000E+00 0. -1.
         23    2    1    2    0    0  0.70791345487E+02 -0.12678068793E+02  0.64069490811E+02  0.13133480874E+03  0.89284849274E+02 0.  0.
         24    2    1    2    0    0 -0.50487138747E+02  0.73956386539E+02  0.87659392708E+02  0.14891721469E+03  0.80459116408E+02 0.  0.
        -13    1    4    4    0    0  0.96965597586E+01  0.49785926945E+02  0.59573744612E+02  0.78241247690E+02  0.00000000000E+00 0.  1.
         14    1    4    4    0    0 -0.60183698506E+02  0.24170459593E+02  0.28085648096E+02  0.70675967003E+02  0.00000000000E+00 0. -1.
        -11    1    3    3    0    0  0.35678579218E+02 -0.92793550316E+01  0.83345712669E+02  0.91134928897E+02  0.00000000000E+00 0. -1.
         11    1    3    3    0    0  0.35112766269E+02 -0.33987137613E+01 -0.19276221858E+02  0.40199879843E+02  0.00000000000E+00 0.  1.
          1    1    1    2  501    0 -0.20304206740E+02 -0.61278317746E+02 -0.39203222752E+03  0.39731166665E+03  0.00000000000E+00 0. -1.
<scales pt_clust_5="13000.00000" pt_clust_6="13000.00000" pt_clust_7="13000.00000" pt_clust_8="13000.00000" pt_clust_9="64.55461"></scales>
<clustering>
<clus scale="   64.555">  1  9  2 -1</clus>
<clus scale="   80.459">  5  6 -1 -1</clus>
<clus scale="   89.285">  7  8 -1 -1</clus>
<clus scale="  109.092">  1  5  2 -1</clus>
<clus scale="   64.555">  1  5  2 -1</clus>
</clustering>
</event>
<event>
 9    2  0.9254368E-005  0.1741181E+03  0.7546771E-02  0.1175035E+00
         21   -1    0    0  501  502  0.00000000000E+00  0.00000000000E+00  0.51218836141E+03  0.51218836141E+03  0.00000000000E+00 0. -1.
          4   -1    0    0  502    0 -0.00000000000E+00 -0.00000000000E+00 -0.11728891508E+03  0.11728891508E+03  0.00000000000E+00 0. -1.
         24    2    1    2    0    0  0.62134261311E+02  0.18152380884E+03  0.72398237482E+02  0.21992705592E+03  0.79466002359E+02 0.  0.
         23    2    1    2    0    0  0.43951507744E+01 -0.10747964894E+03  0.12396158253E+03  0.18745410735E+03  0.90561449478E+02 0.  0.
        -11    1    3    3    0    0 -0.12182438141E+02  0.16027539831E+02 -0.77795433813E+01  0.21582750690E+02  0.00000000000E+00 0.  1.
         12    1    3    3    0    0  0.74316699453E+02  0.16549626901E+03  0.80177780863E+02  0.19834430523E+03  0.00000000000E+00 0. -1.
        -13    1    4    4    0    0 -0.34334651057E+02 -0.44639117510E+02  0.90074474850E+02  0.10623055161E+03  0.00000000000E+00 0.  1.
         13    1    4    4    0    0  0.38729801831E+02 -0.62840531432E+02  0.33887107684E+02  0.81223555744E+02  0.00000000000E+00 0. -1.
          3    1    1    2  501    0 -0.66529412086E+02 -0.74044159894E+02  0.19853962632E+03  0.22209611322E+03  0.00000000000E+00 0. -1.
<scales pt_clust_5="13000.00000" pt_clust_6="13000.00000" pt_clust_7="13000.00000" pt_clust_8="13000.00000" pt_clust_9="99.54245"></scales>
<clustering>
<clus scale="   79.466">  5  6 -1 -1</clus>
<clus scale="   90.561">  7  8 -1 -1</clus>
<clus scale="   99.542">  1  9  2 -1</clus>
<clus scale="  168.614">  2  5  1 -1</clus>
<clus scale="   99.542">  1  5  2 -1</clus>
</clustering>
</event>
<event>
 9    2  0.9254368E-005  0.1193522E+03  0.7546771E-02  0.1259953E+00
          2   -1    0    0  502    0 -0.00000000000E+00  0.00000000000E+00  0.33156951169E+03  0.33156951169E+03  0.00000000000E+00 0. -1.
         21   -1    0    0  501  502  0.00000000000E+00 -0.00000000000E+00 -0.24343614585E+03  0.24343614585E+03  0.00000000000E+00 0. -1.
         24    2    1    2    0    0  0.95641413125E+00 -0.29249761757E+02 -0.23905056960E+02  0.90383544951E+02  0.82105238315E+02 0.  0.
         23    2    1    2    0    0 -0.71754954768E+02 -0.30835666115E+02 -0.15876782180E+03  0.19833778869E+03  0.89616099798E+02 0.  0.
        -13    1    3    3    0    0  0.30315807624E+02  0.71240344142E+01 -0.30002921942E+02  0.43243211991E+02  0.00000000000E+00 0.  1.
         14    1    3    3    0    0 -0.29359393493E+02 -0.36373796172E+02  0.60978649817E+01  0.47140332960E+02  0.00000000000E+00 0. -1.
        -11    1    4    4    0    0 -0.82820308617E+02 -0.11048344435E+02 -0.15394698864E+03  0.17515976920E+03  0.00000000000E+00 0. -1.
         11    1    4    4    0    0  0.11065353849E+02 -0.19787321680E+02 -0.48208331620E+01  0.23178019489E+02  0.00000000000E+00 0.  1.
          1    1    1    2  501    0  0.70798540637E+02  0.60085427873E+02  0.27080624460E+03  0.28628432391E+03  0.00000000000E+00 0. -1.
<scales pt_clust_5="13000.00000" pt_clust_6="13000.00000" pt_clust_7="13000.00000" pt_clust_8="13000.00000" pt_clust_9="78.82838"></scales>
<clustering>
<clus scale="   82.105">  5  6 -1 -1</clus>
<clus scale="   87.165">  1  5  2 -1</clus>
<clus scale="   78.828">  2  9  1 -1</clus>
<clus scale="   89.616">  7  8 -1 -1</clus>
<clus scale="   78.828">  2  5  1 -1</clus>
</clustering>
</event>
<event>
 9    2  0.9254368E-005  0.1794378E+03  0.7546771E-02  0.1169408E+00
         21   -1    0    0  501  502  0.00000000000E+00  0.00000000000E+00  0.39278700585E+03  0.39278700585E+03  0.00000000000E+00 0. -1.
          2   -1    0    0  502    0 -0.00000000000E+00 -0.00000000000E+00 -0.15714158144E+03  0.15714158144E+03  0.00000000000E+00 0. -1.
         23    2    1    2    0    0  0.14765372446E+03  0.51084676721E+01  0.12044148723E+03  0.21096562424E+03  0.90402566185E+02 0.  0.
         24    2    1    2    0    0 -0.16170754308E+03  0.51439615448E+02  0.17387917391E+03  0.25627089011E+03  0.81519558835E+02 0.  0.
        -11    1    4    4    0    0 -0.24424807054E+02 -0.21728207833E+02  0.30721862720E+02  0.44861108594E+02  0.00000000000E+00 0.  1.
         12    1    4    4    0    0 -0.13728273602E+03  0.73167823281E+02  0.14315731119E+03  0.21140978152E+03  0.00000000000E+00 0. -1.
        -13    1    3    3    0    0  0.12743129913E+03  0.12754973499E+02  0.50340794328E+02  0.13760676190E+03  0.00000000000E+00 0. -1.
         13    1    3    3    0    0  0.20222425333E+02 -0.76465058269E+01  0.70100692903E+02  0.73358862336E+02  0.00000000000E+00 0.  1.
          1    1    1    2  501    0  0.14053818616E+02 -0.56548083120E+02 -0.58675236736E+02  0.82692072947E+02  0.00000000000E+00 0. -1.
<scales pt_clust_5="13000.00000" pt_clust_6="13000.00000" pt_clust_7="13000.00000" pt_clust_8="13000.00000" pt_clust_9="58.26834"></scales>
<clustering>
<clus scale="   58.268">  1  9  2 -1</clus>
<clus scale="   81.520">  5  6 -1 -1</clus>
<clus scale="   90.403">  7  8 -1 -1</clus>
<clus scale="  175.131">  1  5  2 -1</clus>
<clus scale="   58.268">  1  5  2 -1</clus>
</clustering>
</event>
<event>
 9    2  0.9254368E-005  0.1135500E+03  0.7546771E-02  0.1257530E+00
         21   -1    0    0  501  502  0.00000000000E+00  0.00000000000E+00  0.13839108901E+03  0.13839108901E+03  0.00000000000E+00 0.  1.
          2   -1    0    0  502    0 -0.00000000000E+00 -0.00000000000E+00 -0.25623529214E+03  0.25623529214E+03  0.00000000000E+00 0. -1.
         24    2    1    2    0    0 -0.15064686740E+02  0.49764362014E+02 -0.31751600695E+02  0.10213440628E+03  0.81974607566E+02 0.  0.
         23    2    1    2    0    0  0.17951236889E+01 -0.11194753351E+03  0.41161605130E+02  0.15023705768E+03  0.91331391284E+02 0.  0.
        -11    1    3    3    0    0  0.14578401217E+02  0.26789442727E+02  0.21274230911E+02  0.37185977525E+02  0.00000000000E+00 0.  1.
         12    1    3    3    0    0 -0.29643087957E+02  0.22974919287E+02 -0.53025831606E+02  0.64948428752E+02  0.00000000000E+00 0. -1.
        -13    1    4    4    0    0 -0.16660278048E+02 -0.12220936054E+03  0.34018474654E+02  0.12794510262E+03  0.00000000000E+00 0.  1.
         13    1    4    4    0    0  0.18455401737E+02  0.10261827024E+02  0.71431304755E+01  0.22291955054E+02  0.00000000000E+00 0. -1.
          1    1    1    2  501    0  0.13269563051E+02  0.62183171501E+02 -0.12725420756E+03  0.14225491719E+03  0.00000000000E+00 0. -1.
<scales pt_clust_5="13000.00000" pt_clust_6="13000.00000" pt_clust_7="13000.00000" pt_clust_8="13000.00000" pt_clust_9="63.58327"></scales>
<clustering>
<clus scale="   63.583">  1  9  2 -1</clus>
<clus scale="   81.975">  5  6 -1 -1</clus>
<clus scale="   91.331">  7  8 -1 -1</clus>
<clus scale="  106.170">  2  5  1 -1</clus>
<clus scale="   63.583">  1  5  2 -1</clus>
</clustering>
</event>
<event>
 9    2  0.9254368E-005  0.9777825E+02  0.7546771E-02  0.1292806E+00
         21   -1    0    0  501  502  0.00000000000E+00  0.00000000000E+00  0.54528399226E+02  0.54528399226E+02  0.00000000000E+00 0.  1.
         -3   -1    0    0    0  501 -0.00000000000E+00 -0.00000000000E+00 -0.77378555716E+03  0.77378555716E+03  0.00000000000E+00 0.  1.
         24    2    1    2    0    0 -0.34272691863E+02 -0.50250938870E+01 -0.49937362501E+03  0.50681728702E+03  0.79308739075E+02 0.  0.
         23    2    1    2    0    0  0.40623261309E+01 -0.60982329231E+02 -0.22245926608E+03  0.24885865931E+03  0.93312165728E+02 0.  0.
        -13    1    3    3    0    0 -0.60174979342E+02 -0.59835727420E+00 -0.35787695948E+03  0.36290123215E+03  0.00000000000E+00 0.  1.
         14    1    3    3    0    0  0.25902287480E+02 -0.44267366128E+01 -0.14149666553E+03  0.14391605487E+03  0.00000000000E+00 0. -1.
        -13    1    4    4    0    0 -0.19022537396E+02 -0.30161899773E+02 -0.20225169757E+03  0.20537124019E+03  0.00000000000E+00 0.  1.
         13    1    4    4    0    0  0.23084863527E+02 -0.30820429458E+02 -0.20207568511E+02  0.43487419114E+02  0.00000000000E+00 0. -1.
         -4    1    1    2    0  502  0.30210365732E+02  0.66007423118E+02  0.25757331566E+01  0.72638010061E+02  0.00000000000E+00 0.  1.
<scales pt_clust_5="13000.00000" pt_clust_6="13000.00000" pt_clust_7="13000.00000" pt_clust_8="13000.00000" pt_clust_9="72.59233"></scales>
<clustering>
<clus scale="   72.592">  1  9  2 -1</clus>
<clus scale="   79.309">  5  6 -1 -1</clus>
<clus scale="   84.518">  2  5  1 -1</clus>
<clus scale="   93.312">  7  8 -1 -1</clus>
<clus scale="   72.592">  1  5  2 -1</clus>
</clustering>
</event>
<event>
 9    2  0.9254368E-005  0.9565679E+02  0.7546771E-02  0.1296876E+00
          2   -1    0    0  502    0 -0.00000000000E+00  0.00000000000E+00  0.59753247502E+03  0.59753247502E+03  0.00000000000E+00 0. -1.
         21   -1    0    0  501  502  0.00000000000E+00 -0.00000000000E+00 -0.38535853619E+02  0.38535853619E+02  0.00000000000E+00 0. -1.
         24    2    1    2    0    0  0.37937163489E+02  0.72065360362E+01  0.29727187558E+03  0.30980945862E+03  0.78231516020E+02 0.  0.
         23    2    1    2    0    0  0.32541365012E+01  0.64711528755E+02  0.14163436397E+03  0.18034577586E+03  0.90918284483E+02 0.  0.
        -11    1    3    3    0    0 -0.20181361847E+02  0.15705564989E+02  0.57191001517E+02  0.62647927277E+02  0.00000000000E+00 0.  1.
         12    1    3    3    0    0  0.58118525336E+02 -0.84990289524E+01  0.24008087407E+03  0.24716153134E+03  0.00000000000E+00 0. -1.
        -11    1    4    4    0    0 -0.23776483161E+02 -0.14521228787E+02  0.38108796583E+02  0.47206647985E+02  0.00000000000E+00 0.  1.
         11    1    4    4    0    0  0.27030619662E+02  0.79232757542E+02  0.10352556739E+03  0.13313912787E+03  0.00000000000E+00 0. -1.
          1    1    1    2  501    0 -0.41191299990E+02 -0.71918064791E+02  0.12009038185E+03  0.14591309417E+03  0.00000000000E+00 0. -1.
<scales pt_clust_5="13000.00000" pt_clust_6="13000.00000" pt_clust_7="13000.00000" pt_clust_8="13000.00000" pt_clust_9="82.87902"></scales>
<clustering>
<clus scale="   78.232">  5  6 -1 -1</clus>
<clus scale="   82.879">  2  9  1 -1</clus>
<clus scale="   83.691">  1  5  2 -1</clus>
<clus scale="   90.918">  7  8 -1 -1</clus>
<clus scale="   82.879">  2  5  1 -1</clus>
</clustering>
</event>
<event>
 9    2  0.9254368E-005  0.2103086E+03  0.7546771E-02  0.1142146E+00
         -1   -1    0    0    0  501 -0.00000000000E+00  0.00000000000E+00  0.51989715002E+03  0.51989715002E+03  0.00000000000E+00 0.  1.
         21   -1    0    0  501  502  0.00000000000E+00 -0.00000000000E+00 -0.10971237940E+03  0.10971237940E+03  0.00000000000E+00 0.  1.
         24    2    1    2    0    0 -0.15947983389E+03 -0.10979332650E+03  0.24337320408E+03  0.32132732774E+03  0.80822912153E+02 0.  0.
         23    2    1    2    0    0  0.12161501295E+03  0.14300319852E+03  0.12794681191E+03  0.24466530598E+03  0.90832808571E+02 0.  0.
        -11    1    3    3    0    0 -0.15051766937E+03 -0.10430944978E+03  0.24924733836E+03  0.30928993806E+03  0.00000000000E+00 0.  1.
         12    1    3    3    0    0 -0.89621645218E+01 -0.54838767161E+01 -0.58741342823E+01  0.12037389680E+02  0.00000000000E+00 0. -1.
        -11    1    4    4    0    0  0.13646791877E+03  0.12703547260E+03  0.11043333469E+03  0.21669569808E+03  0.00000000000E+00 0.  1.
         11    1    4    4    0    0 -0.14852905822E+02  0.15967725914E+02  0.17513477212E+02  0.27969607904E+02  0.00000000000E+00 0. -1.
         -2    1    1    2    0  502  0.37864820942E+02 -0.33209872019E+02  0.38864754633E+02  0.63616895689E+02  0.00000000000E+00 0.  1.
<scales pt_clust_5="13000.00000" pt_clust_6="13000.00000" pt_clust_7="13000.00000" pt_clust_8="13000.00000" pt_clust_9="50.36507"></scales>
<clustering>
<clus scale="   50.365">  2  9  1 -1</clus>
<clus scale="   80.823">  5  6 -1 -1</clus>
<clus scale="   90.833">  7  8 -1 -1</clus>
<clus scale="  206.183">  1  5  2 -1</clus>
<clus scale="   50.365">  2  5  1 -1</clus>
</clustering>
</event>
<event>
 9    2  0.9254368E-005  0.1043722E+03  0.7546771E-02  0.1277487E+00
          2   -1    0    0  502    0 -0.00000000000E+00  0.00000000000E+00  0.77745872495E+03  0.77745872495E+03  0.00000000000E+00 0. -1.
         21   -1    0    0  501  502  0.00000000000E+00 -0.00000000000E+00 -0.94705068071E+02  0.94705068071E+02  0.00000000000E+00 0.  1.
         23    2    1    2    0    0  0.46756941449E+02  0.13984063510E+02  0.19332746505E+03  0.22000232366E+03  0.92971759509E+02 0.  0.
         24    2    1    2    0    0 -0.72603554792E+01 -0.81667829463E+02 -0.36783716112E+02  0.12014836831E+03  0.79751122285E+02 0.  0.
        -13    1    4    4    0    0 -0.37146569065E+02 -0.63137503929E+02 -0.42244025048E+02  0.84562223528E+02  0.00000000000E+00 0.  1.
         14    1    4    4    0    0  0.29886213585E+02 -0.18530325533E+02  0.54603089353E+01  0.35586144783E+02  0.00000000000E+00 0. -1.
        -13    1    3    3    0    0  0.14815976999E+02  0.50855503928E+02  0.73263747500E+02  0.90406704132E+02  0.00000000000E+00 0.  1.
         13    1    3    3    0    0  0.31940964450E+02 -0.36871440417E+02  0.12006371755E+03  0.12959561953E+03  0.00000000000E+00 0. -1.
          1    1    1    2  501    0 -0.39496585970E+02  0.67683765952E+02  0.52620990794E+03  0.53201310105E+03  0.00000000000E+00 0. -1.
<scales pt_clust_5="13000.00000" pt_clust_6="13000.00000" pt_clust_7="13000.00000" pt_clust_8="13000.00000" pt_clust_9="78.36503"></scales>
<clustering>
<clus scale="   78.365">  2  9  1 -1</clus>
<clus scale="   79.751">  5  6 -1 -1</clus>
<clus scale="   92.790">  2  5  1 -1</clus>
<clus scale="   92.972">  7  8 -1 -1</clus>
<clus scale="   78.365">  2  5  1 -1</clus>
</clustering>
</event>
<event>
 9    2  0.9254368E-005  0.1028019E+03  0.7546771E-02  0.1279100E+00
         21   -1    0    0  501  502  0.00000000000E+00  0.00000000000E+00  0.27854340895E+02  0.27854340895E+02  0.00000000000E+00 0.  1.
          2   -1    0    0  502    0 -0.00000000000E+00 -0.00000000000E+00 -0.10623349751E+04  0.10623349751E+04  0.00000000000E+00 0. -1.
         23    2    1    2    0    0 -0.17095576698E+02 -0.36591231963E+02 -0.36858978334E+03  0.38042803907E+03  0.85064020178E+02 0.  0.
         24    2    1    2    0    0 -0.28831349386E+01 -0.59587654817E+02 -0.11937302884E+03  0.15448543829E+03  0.77825635592E+02 0.  0.
        -13    1    4    4    0    0 -0.39143848226E+02 -0.41443981744E+02 -0.77381626923E+02  0.96113269958E+02  0.00000000000E+00 0.  1.
         14    1    4    4    0    0  0.36260713288E+02 -0.18143673072E+02 -0.41991401912E+02  0.58372168327E+02  0.00000000000E+00 0. -1.
        -11    1    3    3    0    0 -0.20277774013E+02 -0.59428957162E+02 -0.32604306240E+03  0.33203473855E+03  0.00000000000E+00 0. -1.
         11    1    3    3    0    0  0.31821973143E+01  0.22837725199E+02 -0.42546720946E+02  0.48393300520E+02  0.00000000000E+00 0.  1.
          1    1    1    2  501    0  0.19978711637E+02  0.96178886780E+02 -0.54651782203E+03  0.55527583864E+03  0.00000000000E+00 0. -1.
<scales pt_clust_5="13000.00000" pt_clust_6="13000.00000" pt_clust_7="13000.00000" pt_clust_8="13000.00000" pt_clust_9="67.16694"></scales>
<clustering>
<clus scale="   77.826">  5  6 -1 -1</clus>
<clus scale="   85.064">  7  8 -1 -1</clus>
<clus scale="   94.165">  2  7  1 -1</clus>
<clus scale="   67.167">  1  9  2 -1</clus>
<clus scale="   67.167">  1  5  2 -1</clus>
</clustering>
</event>
<event>
 9    2  0.9254368E-005  0.1340724E+03  0.7546771E-02  0.1223009E+00
         21   -1    0    0  501  502  0.00000000000E+00  0.00000000000E+00  0.14954871527E+03  0.14954871527E+03  0.00000000000E+00 0.  1.
          2   -1    0    0  502    0 -0.00000000000E+00 -0.00000000000E+00 -0.41698819621E+03  0.41698819621E+03  0.00000000000E+00 0. -1.
         24    2    1    2    0    0 -0.84038685847E+02  0.43375753336E+02 -0.22694764510E+03  0.25994604584E+03  0.84396424299E+02 0.  0.
         23    2    1    2    0    0  0.12437554127E+03 -0.48223361959E+02  0.79607868661E+02  0.17980561320E+03  0.90542133170E+02 0.  0.
        -13    1    3    3    0    0 -0.64903361891E+02  0.68461770186E+02 -0.15611732020E+03  0.18240635413E+03  0.00000000000E+00 0.  1.
         14    1    3    3    0    0 -0.19135323956E+02 -0.25086016850E+02 -0.70830324901E+02  0.77539691706E+02  0.00000000000E+00 0. -1.
        -11    1    4    4    0    0  0.94750351941E+02 -0.75313142756E+02  0.57977861854E+02  0.13420555551E+03  0.00000000000E+00 0.  1.
         11    1    4    4    0    0  0.29625189333E+02  0.27089780797E+02  0.21630006807E+02  0.45600057687E+02  0.00000000000E+00 0. -1.
          1    1    1    2  501    0 -0.40336855427E+02  0.48476086229E+01 -0.12009970451E+03  0.12678525245E+03  0.00000000000E+00 0. -1.
<scales pt_clust_5="13000.00000" pt_clust_6="13000.00000" pt_clust_7="13000.00000" pt_clust_8="13000.00000" pt_clust_9="40.62712"></scales>
<clustering>
<clus scale="   40.627">  1  9  2 -1</clus>
<clus scale="   84.396">  5  6 -1 -1</clus>
<clus scale="   90.542">  7  8 -1 -1</clus>
<clus scale="  130.001">  2  5  1 -1</clus>
<clus scale="   40.627">  1  5  2 -1</clus>
</clustering>
</event>
<event>
 9    2  0.9254368E-005  0.3352713E+03  0.7546771E-02  0.1075968E+00
         -1   -1    0    0    0  501 -0.00000000000E+00  0.00000000000E+00  0.44847231504E+03  0.44847231504E+03  0.00000000000E+00 0.  1.
         21   -1    0    0  501  502  0.00000000000E+00 -0.00000000000E+00 -0.54596567952E+03  0.54596567952E+03  0.00000000000E+00 0.  1.
         23    2    1    2    0    0  0.24218568945E+03 -0.93661392709E+02 -0.26943564392E+02  0.27715094640E+03  0.93060876674E+02 0.  0.
         24    2    1    2    0    0 -0.14486506396E+03 -0.28197942765E+03 -0.29435971823E+02  0.32707213694E+03  0.74909424984E+02 0.  0.
        -11    1    4    4    0    0 -0.98173492248E+02 -0.15121918087E+03 -0.49054447813E+02  0.18684649874E+03  0.00000000000E+00 0.  1.
         12    1    4    4    0    0 -0.46691571714E+02 -0.13076024678E+03  0.19618475990E+02  0.14022563820E+03  0.00000000000E+00 0. -1.
        -13    1    3    3    0    0  0.12966434846E+03 -0.80559530180E+02 -0.51749437242E+02  0.16118525187E+03  0.00000000000E+00 0.  1.
         13    1    3    3    0    0  0.11252134099E+03 -0.13101862530E+02  0.24805872850E+02  0.11596569453E+03  0.00000000000E+00 0. -1.
         -2    1    1    2    0  502 -0.97320625493E+02  0.37564082036E+03 -0.41113828263E+02  0.39021491122E+03  0.00000000000E+00 0.  1.
<scales pt_clust_5="13000.00000" pt_clust_6="13000.00000" pt_clust_7="13000.00000" pt_clust_8="13000.00000" pt_clust_9="326.79583"></scales>
<clustering>
<clus scale="   74.909">  5  6 -1 -1</clus>
<clus scale="   93.061">  7  8 -1 -1</clus>
<clus scale="  275.838">  1  7  2 -1</clus>
<clus scale="  326.796">  2  9  1 -1</clus>
<clus scale="  326.796">  2  5  1 -1</clus>
</clustering>
</event>
<event>
 9    2  0.9254368E-005  0.1122119E+03  0.7546771E-02  0.1260892E+00
          2   -1    0    0  502    0 -0.00000000000E+00  0.00000000000E+00  0.76766992955E+03  0.76766992955E+03  0.00000000000E+00 0. -1.
         21   -1    0    0  501  502  0.00000000000E+00 -0.00000000000E+00 -0.14854920509E+03  0.14854920509E+03  0.00000000000E+00 0. -1.
         24    2    1    2    0    0  0.45297764117E+02  0.45858223340E+02  0.49847104373E+03  0.50898065194E+03  0.80206349725E+02 0.  0.
         23    2    1    2    0    0 -0.60259012612E+02 -0.30078314000E+02  0.25072631665E+03  0.27535680957E+03  0.91770546169E+02 0.  0.
        -13    1    3    3    0    0 -0.92970846156E+01  0.34964214750E+02  0.94450807100E+02  0.10114290414E+03  0.00000000000E+00 0.  1.
         14    1    3    3    0    0  0.54594848733E+02  0.10894008589E+02  0.40402023662E+03  0.40783774780E+03  0.00000000000E+00 0. -1.
        -13    1    4    4    0    0 -0.57228799973E+02 -0.78759763125E+01  0.24568945410E+03  0.25238952911E+03  0.00000000000E+00 0. -1.
         13    1    4    4    0    0 -0.30302126391E+01 -0.22202337688E+02  0.50368625478E+01  0.22967280461E+02  0.00000000000E+00 0.  1.
          1    1    1    2  501    0  0.14961248494E+02 -0.15779909339E+02 -0.13007663592E+03  0.13188167313E+03  0.00000000000E+00 0. -1.
<scales pt_clust_5="13000.00000" pt_clust_6="13000.00000" pt_clust_7="13000.00000" pt_clust_8="13000.00000" pt_clust_9="21.74499"></scales>
<clustering>
<clus scale="   21.745">  2  9  1 -1</clus>
<clus scale="   80.206">  5  6 -1 -1</clus>
<clus scale="   91.771">  7  8 -1 -1</clus>
<clus scale="  102.970">  1  5  2 -1</clus>
<clus scale="   21.745">  2  5  1 -1</clus>
</clustering>
</event>
<event>
 9    2  0.9254368E-005  0.2821730E+03  0.7546771E-02  0.1094508E+00
         21   -1    0    0  501  502  0.00000000000E+00  0.00000000000E+00  0.15698299644E+03  0.15698299644E+03  0.00000000000E+00 0. -1.
         -3   -1    0    0    0  501 -0.00000000000E+00 -0.00000000000E+00 -0.43724929346E+03  0.43724929346E+03  0.00000000000E+00 0.  1.
         24    2    1    2    0    0 -0.51439965042E+00 -0.13367986914E+03 -0.20270177041E+02  0.15774535145E+03  0.81253577189E+02 0.  0.
         23    2    1    2    0    0 -0.66075769752E+02 -0.52568665458E+02 -0.22886036148E+02  0.12770876701E+03  0.93039166933E+02 0.  0.
        -11    1    3    3    0    0  0.23252168739E+02 -0.36901852439E+02 -0.36381125782E+02  0.56797855397E+02  0.00000000000E+00 0.  1.
         12    1    3    3    0    0 -0.23766568390E+02 -0.96778016703E+02  0.16110948741E+02  0.10094749605E+03  0.00000000000E+00 0. -1.
        -13    1    4    4    0    0 -0.27633960579E+02  0.22383711596E+02  0.10528252364E+02  0.37087874298E+02  0.00000000000E+00 0.  1.
         13    1    4    4    0    0 -0.38441809173E+02 -0.74952377055E+02 -0.33414288512E+02  0.90620892709E+02  0.00000000000E+00 0. -1.
         -4    1    1    2    0  502  0.66590169403E+02  0.18624853460E+03 -0.23711008384E+03  0.30877817144E+03  0.00000000000E+00 0.  1.
<scales pt_clust_5="13000.00000" pt_clust_6="13000.00000" pt_clust_7="13000.00000" pt_clust_8="13000.00000" pt_clust_9="197.79486"></scales>
<clustering>
<clus scale="   81.254">  5  6 -1 -1</clus>
<clus scale="   93.039">  7  8 -1 -1</clus>
<clus scale="  118.344">  5  7 -1 -1</clus>
<clus scale="  197.795">  1  9  2 -1</clus>
<clus scale="  197.795">  1  5  2 -1</clus>
</clustering>
</event>
<event>
 9    2  0.9254368E-005  0.1948949E+03  0.7546771E-02  0.1177810E+00
          2   -1    0    0  502    0 -0.00000000000E+00  0.00000000000E+00  0.25769453464E+03  0.25769453464E+03  0.00000000000E+00 0. -1.
         21   -1    0    0  501  502  0.00000000000E+00 -0.00000000000E+00 -0.35112355916E+03  0.35112355916E+03  0.00000000000E+00 0. -1.
         24    2    1    2    0    0  0.78186433356E+02  0.15413560295E+02 -0.10201795571E+03  0.15217863026E+03  0.79999850117E+02 0.  0.
         23    2    1    2    0    0 -0.23189973683E+03 -0.44927626859E+02  0.10313805347E+03  0.27377777725E+03  0.92308361714E+02 0.  0.
        -11    1    3    3    0    0  0.40474861792E+02 -0.28322095905E+02 -0.23484656704E+02  0.54698122948E+02  0.00000000000E+00 0.  1.
         12    1    3    3    0    0  0.37711571564E+02  0.43735656200E+02 -0.78533299009E+02  0.97480507314E+02  0.00000000000E+00 0. -1.
        -11    1    4    4    0    0 -0.22069502506E+03 -0.65252095346E+02  0.90022200071E+02  0.24711966037E+03  0.00000000000E+00 0. -1.
         11    1    4    4    0    0 -0.11204711768E+02  0.20324468487E+02  0.13115853398E+02  0.26658116877E+02  0.00000000000E+00 0.  1.
          1    1    1    2  501    0  0.15371330348E+03  0.29514066564E+02 -0.94549122277E+02  0.18286168629E+03  0.00000000000E+00 0. -1.
<scales pt_clust_5="13000.00000" pt_clust_6="13000.00000" pt_clust_7="13000.00000" pt_clust_8="13000.00000" pt_clust_9="171.64844"></scales>
<clustering>
<clus scale="   80.000">  5  6 -1 -1</clus>
<clus scale="   92.308">  7  8 -1 -1</clus>
<clus scale="  112.919">  1  5  2 -1</clus>
<clus scale="  171.648">  2  9  1 -1</clus>
<clus scale="  171.648">  2  5  1 -1</clus>
</clustering>
</event>
<event>
 9    2  0.9254368E-005  0.1630782E+03  0.7546771E-02  0.1186783E+00
          2   -1    0    0  502    0 -0.00000000000E+00  0.00000000000E+00  0.97186628180E+02  0.97186628180E+02  0.00000000000E+00 0. -1.
         21   -1    0    0  501  502  0.00000000000E+00 -0.00000000000E+00 -0.47009044191E+03  0.47009044191E+03  0.00000000000E+00 0. -1.
         24    2    1    2    0    0  0.83912004660E+02 -0.99816293143E+02 -0.72954338954E+02  0.16988896150E+03  0.80841862702E+02 0.  0.
         23    2    1    2    0    0 -0.14350615818E+03  0.57364026854E+02 -0.16404182998E+03  0.24303608897E+03  0.90951468070E+02 0.  0.
        -11    1    3    3    0    0  0.57672099099E+02 -0.48408830829E+02 -0.82158246851E+02  0.11144264643E+03  0.00000000000E+00 0.  1.
         12    1    3    3    0    0  0.26239905562E+02 -0.51407462314E+02  0.92039078970E+01  0.58446315077E+02  0.00000000000E+00 0. -1.
        -13    1    4    4    0    0 -0.98982008021E+02 -0.33132221588E+01 -0.12090586264E+03  0.15629025233E+03  0.00000000000E+00 0. -1.
         13    1    4    4    0    0 -0.44524150162E+02  0.60677249012E+02 -0.43135967340E+02  0.86745836636E+02  0.00000000000E+00 0.  1.
          1    1    1    2  501    0  0.59594153522E+02  0.42452266290E+02 -0.13590764480E+03  0.15435201962E+03  0.00000000000E+00 0. -1.
<scales pt_clust_5="13000.00000" pt_clust_6="13000.00000" pt_clust_7="13000.00000" pt_clust_8="13000.00000" pt_clust_9="73.16870"></scales>
<clustering>
<clus scale="   73.169">  2  9  1 -1</clus>
<clus scale="   80.842">  5  6 -1 -1</clus>
<clus scale="   90.951">  7  8 -1 -1</clus>
<clus scale="  157.663">  1  5  2 -1</clus>
<clus scale="   73.169">  2  5  1 -1</clus>
</clustering>
</event>
<event>
 9    2  0.9254368E-005  0.2221211E+03  0.7546771E-02  0.1157168E+00
         21   -1    0    0  501  502  0.00000000000E+00  0.00000000000E+00  0.20220016037E+03  0.20220016037E+03  0.00000000000E+00 0. -1.
          2   -1    0    0  502    0 -0.00000000000E+00 -0.00000000000E+00 -0.60300981664E+03  0.60300981664E+03  0.00000000000E+00 0. -1.
         23    2    1    2    0    0 -0.22758952590E+02  0.79486345823E+02 -0.14870551521E+03  0.19270708022E+03  0.90480049839E+02 0.  0.
         24    2    1    2    0    0 -0.18987526052E+03 -0.65845842604E+02 -0.32295151505E+03  0.38796175956E+03  0.76343672017E+02 0.  0.
        -13    1    4    4    0    0 -0.11241351193E+03 -0.53909351968E+02 -0.13208550144E+03  0.18163038177E+03  0.00000000000E+00 0.  1.
         14    1    4    4    0    0 -0.77461748591E+02 -0.11936490636E+02 -0.19086601362E+03  0.20633137778E+03  0.00000000000E+00 0. -1.
        -13    1    3    3    0    0 -0.13280840617E+02  0.52720844431E+02 -0.15444828607E+03  0.16373802624E+03  0.00000000000E+00 0.  1.
         13    1    3    3    0    0 -0.94781119735E+01  0.26765501392E+02  0.57427708687E+01  0.28969053982E+02  0.00000000000E+00 0. -1.
          1    1    1    2  501    0  0.21263421311E+03 -0.13640503219E+02  0.70847373989E+02  0.22454113724E+03  0.00000000000E+00 0. -1.
<scales pt_clust_5="13000.00000" pt_clust_6="13000.00000" pt_clust_7="13000.00000" pt_clust_8="13000.00000" pt_clust_9="208.58912"></scales>
<clustering>
<clus scale="   76.344">  5  6 -1 -1</clus>
<clus scale="   90.480">  7  8 -1 -1</clus>
<clus scale="  122.567">  2  7  1 -1</clus>
<clus scale="  208.589">  1  9  2 -1</clus>
<clus scale="  208.589">  1  5  2 -1</clus>
</clustering>
</event>
<event>
 9    2  0.9254368E-005  0.1428518E+03  0.7546771E-02  0.1212257E+00
         21   -1    0    0  501  502  0.00000000000E+00  0.00000000000E+00  0.28170148254E+02  0.28170148254E+02  0.00000000000E+00 0. -1.
          2   -1    0    0  502    0 -0.00000000000E+00 -0.00000000000E+00 -0.13050887936E+04  0.13050887936E+04  0.00000000000E+00 0. -1.
         23    2    1    2    0    0  0.94100415824E+02 -0.85631820988E+00 -0.56318178575E+03  0.57862119318E+03  0.93665040720E+02 0.  0.
         24    2    1    2    0    0 -0.14162131102E+03  0.39686633643E+01 -0.33173812107E+03  0.36968196108E+03  0.80884024063E+02 0.  0.
        -11    1    4    4    0    0 -0.98208894009E+02 -0.31767684758E+02 -0.25000564904E+03  0.27047550205E+03  0.00000000000E+00 0.  1.
         12    1    4    4    0    0 -0.43412417016E+02  0.35736348122E+02 -0.81732472026E+02  0.99206459023E+02  0.00000000000E+00 0. -1.
        -13    1    3    3    0    0  0.78144168600E+02  0.40321570418E+02 -0.34637679763E+03  0.35736427643E+03  0.00000000000E+00 0.  1.
         13    1    3    3    0    0  0.15956247224E+02 -0.41177888628E+02 -0.21680498812E+03  0.22125691675E+03  0.00000000000E+00 0. -1.
          1    1    1    2  501    0  0.47520895201E+02 -0.31123451544E+01 -0.38199873856E+03  0.38495578764E+03  0.00000000000E+00 0. -1.
<scales pt_clust_5="13000.00000" pt_clust_6="13000.00000" pt_clust_7="13000.00000" pt_clust_8="13000.00000" pt_clust_9="47.62273"></scales>
<clustering>
<clus scale="   47.623">  1  9  2 -1</clus>
<clus scale="   80.884">  5  6 -1 -1</clus>
<clus scale="   93.665">  7  8 -1 -1</clus>
<clus scale="  134.817">  1  5  2 -1</clus>
<clus scale="   47.623">  1  5  2 -1</clus>
</clustering>
</event>
<event>
 9    2  0.9254368E-005  0.2015076E+03  0.7546771E-02  0.1166366E+00
         -3   -1    0    0    0  501 -0.00000000000E+00  0.00000000000E+00  0.12464453851E+03  0.12464453851E+03  0.00000000000E+00 0.  1.
         21   -1    0    0  501  502  0.00000000000E+00 -0.00000000000E+00 -0.67199646658E+03  0.67199646658E+03  0.00000000000E+00 0.  1.
         23    2    1    2    0    0 -0.34843936446E+02 -0.89850329157E+02 -0.91164910884E+02  0.16092033981E+03  0.91088601004E+02 0.  0.
         24    2    1    2    0    0  0.13169833768E+03 -0.84602394963E+02 -0.49885544249E+02  0.18306691802E+03  0.80764543994E+02 0.  0.
        -11    1    4    4    0    0  0.14042874455E+03 -0.75706539766E+02 -0.56134969882E+02  0.16912376327E+03  0.00000000000E+00 0.  1.
         12    1    4    4    0    0 -0.87304068642E+01 -0.88958551964E+01  0.62494256329E+01  0.13943154752E+02  0.00000000000E+00 0. -1.
        -13    1    3    3    0    0 -0.38035650400E+02 -0.40967593004E+02  0.16988799019E+01  0.55927994518E+02  0.00000000000E+00 0.  1.
         13    1    3    3    0    0  0.31917139538E+01 -0.48882736153E+02 -0.92863790786E+02  0.10499234530E+03  0.00000000000E+00 0. -1.
         -4    1    1    2    0  502 -0.96854401236E+02  0.17445272412E+03 -0.40630147294E+03  0.45265374725E+03  0.00000000000E+00 0.  1.
<scales pt_clust_5="13000.00000" pt_clust_6="13000.00000" pt_clust_7="13000.00000" pt_clust_8="13000.00000" pt_clust_9="184.61420"></scales>
<clustering>
<clus scale="   80.765">  5  6 -1 -1</clus>
<clus scale="   91.089">  7  8 -1 -1</clus>
<clus scale="  132.606">  1  7  2 -1</clus>
<clus scale="  184.614">  2  9  1 -1</clus>
<clus scale="  184.614">  2  5  1 -1</clus>
</clustering>
</event>
<event>
 9    2  0.9254368E-005  0.9770988E+02  0.7546771E-02  0.1288592E+00
          2   -1    0    0  502    0 -0.00000000000E+00  0.00000000000E+00  0.18079701354E+03  0.18079701354E+03  0.00000000000E+00 0. -1.
         21   -1    0    0  501  502  0.00000000000E+00 -0.00000000000E+00 -0.10668802240E+03  0.10668802240E+03  0.00000000000E+00 0. -1.
         24    2    1    2    0    0  0.38926320854E+02  0.36122833509E+01  0.71653296260E+02  0.11708406399E+03  0.83941504206E+02 0.  0.
         23    2    1    2    0    0 -0.30212932150E+02  0.29771324372E+02  0.49904885817E+02  0.11173399549E+03  0.90525328479E+02 0.  0.
        -13    1    3    3    0    0  0.40192455548E+02 -0.32145560403E+02  0.22213986290E+02  0.56055612775E+02  0.00000000000E+00 0.  1.
         14    1    3    3    0    0 -0.12661346944E+01  0.35757843754E+02  0.49439309970E+02  0.61028451212E+02  0.00000000000E+00 0. -1.
        -13    1    4    4    0    0 -0.27259088902E+02 -0.29302706623E+02  0.13290088147E+02  0.42170285583E+02  0.00000000000E+00 0.  1.
         13    1    4    4    0    0 -0.29538432479E+01  0.59074030995E+02  0.36614797670E+02  0.69563709909E+02  0.00000000000E+00 0. -1.
          1    1    1    2  501    0 -0.87133887038E+01 -0.33383607723E+02 -0.47449190937E+02  0.58666976468E+02  0.00000000000E+00 0. -1.
<scales pt_clust_5="13000.00000" pt_clust_6="13000.00000" pt_clust_7="13000.00000" pt_clust_8="13000.00000" pt_clust_9="34.50201"></scales>
<clustering>
<clus scale="   34.502">  2  9  1 -1</clus>
<clus scale="   83.942">  5  6 -1 -1</clus>
<clus scale="   90.525">  7  8 -1 -1</clus>
<clus scale="   91.644">  1  5  2 -1</clus>
<clus scale="   34.502">  2  5  1 -1</clus>
</clustering>
</event>
<event>
 9    2  0.9254368E-005  0.9579450E+02  0.7546771E-02  0.1295463E+00
         21   -1    0    0  501  502  0.00000000000E+00  0.00000000000E+00  0.10930094475E+03  0.10930094475E+03  0.00000000000E+00 0.  1.
          2   -1    0    0  502    0 -0.00000000000E+00 -0.00000000000E+00 -0.52870367857E+03  0.52870367857E+03  0.00000000000E+00 0. -1.
         24    2    1    2    0    0 -0.86590252960E+01  0.25565708432E+02 -0.31846184041E+03  0.32954134117E+03  0.80317915657E+02 0.  0.
         23    2    1    2    0    0  0.87860432157E+02 -0.39896405050E+02  0.46359570588E+02  0.14060721759E+03  0.91159207862E+02 0.  0.
        -11    1    3    3    0    0  0.24132994317E+02  0.39733881789E+02 -0.13928517864E+03  0.14683849551E+03  0.00000000000E+00 0.  1.
         12    1    3    3    0    0 -0.32792019613E+02 -0.14168173357E+02 -0.17917666177E+03  0.18270284566E+03  0.00000000000E+00 0. -1.
        -13    1    4    4    0    0  0.12354143380E+02 -0.33317737257E+02 -0.19204388746E+02  0.40391893020E+02  0.00000000000E+00 0. -1.
         13    1    4    4    0    0  0.75506288777E+02 -0.65786677927E+01  0.65563959334E+02  0.10021532457E+03  0.00000000000E+00 0.  1.
          1    1    1    2  501    0 -0.79201406861E+02  0.14330696618E+02 -0.14730046400E+03  0.16785606456E+03  0.00000000000E+00 0. -1.
<scales pt_clust_5="13000.00000" pt_clust_6="13000.00000" pt_clust_7="13000.00000" pt_clust_8="13000.00000" pt_clust_9="80.48750"></scales>
<clustering>
<clus scale="   80.318">  5  6 -1 -1</clus>
<clus scale="   80.488">  1  9  2 -1</clus>
<clus scale="   85.543">  2  5  1 -1</clus>
<clus scale="   91.159">  7  8 -1 -1</clus>
<clus scale="   80.488">  1  5  2 -1</clus>
</clustering>
</event>
<event>
 9    2  0.9254368E-005  0.9720680E+02  0.7546771E-02  0.1289052E+00
         21   -1    0    0  501  502  0.00000000000E+00  0.00000000000E+00  0.58259103022E+02  0.58259103022E+02  0.00000000000E+00 0. -1.
          2   -1    0    0  502    0 -0.00000000000E+00 -0.00000000000E+00 -0.49893350533E+03  0.49893350533E+03  0.00000000000E+00 0. -1.
         24    2    1    2    0    0 -0.29509047711E+02 -0.12874659814E+02 -0.13996263316E+03  0.17291172222E+03  0.96293220097E+02 0.  0.
         23    2    1    2    0    0 -0.54432327099E+02  0.13353465478E+02 -0.46913993137E+02  0.11696142413E+03  0.91311876055E+02 0.  0.
        -13    1    3    3    0    0  0.20173158661E+02 -0.39431677403E+02 -0.50313760617E+02  0.67031992516E+02  0.00000000000E+00 0.  1.
         14    1    3    3    0    0 -0.49682206372E+02  0.26557017590E+02 -0.89648872546E+02  0.10587972970E+03  0.00000000000E+00 0. -1.
        -13    1    4    4    0    0  0.10860231209E+02 -0.27573183525E+02 -0.83356040486E+01  0.30784856122E+02  0.00000000000E+00 0.  1.
         13    1    4    4    0    0 -0.65292558308E+02  0.40926649002E+02 -0.38578389089E+02  0.86176568008E+02  0.00000000000E+00 0. -1.
          1    1    1    2  501    0  0.83941374810E+02 -0.47880566417E+00 -0.25379777601E+03  0.26731946201E+03  0.00000000000E+00 0. -1.
<scales pt_clust_5="13000.00000" pt_clust_6="13000.00000" pt_clust_7="13000.00000" pt_clust_8="13000.00000" pt_clust_9="83.94278"></scales>
<clustering>
<clus scale="   83.943">  1  9  2 -1</clus>
<clus scale="   91.312">  7  8 -1 -1</clus>
<clus scale="   92.275">  1  7  2 -1</clus>
<clus scale="   96.293">  5  6 -1 -1</clus>
<clus scale="   83.943">  1  5  2 -1</clus>
</clustering>
</event>
<event>
 9    2  0.9254368E-005  0.1264830E+03  0.7546771E-02  0.1234351E+00
         21   -1    0    0  501  502  0.00000000000E+00  0.00000000000E+00  0.42207896602E+02  0.42207896602E+02  0.00000000000E+00 0. -1.
          2   -1    0    0  502    0 -0.00000000000E+00 -0.00000000000E+00 -0.55028074565E+03  0.55028074565E+03  0.00000000000E+00 0. -1.
         23    2    1    2    0    0 -0.72681137757E+02  0.42087281063E+02 -0.31666516705E+03  0.33927524647E+03  0.88187174989E+02 0.  0.
         24    2    1    2    0    0  0.10190875415E+03 -0.33569647713E+02 -0.15254691290E+03  0.20384779022E+03  0.82286362912E+02 0.  0.
        -13    1    4    4    0    0  0.36788679942E+02 -0.11799831662E+02 -0.23567709181E+01  0.38706554590E+02  0.00000000000E+00 0.  1.
         14    1    4    4    0    0  0.65120074208E+02 -0.21769816051E+02 -0.15019014198E+03  0.16514123563E+03  0.00000000000E+00 0. -1.
        -11    1    3    3    0    0 -0.57696701341E+01  0.51105608430E+02 -0.17397812132E+03  0.18142066862E+03  0.00000000000E+00 0.  1.
         11    1    3    3    0    0 -0.66911467623E+02 -0.90183273663E+01 -0.14268704573E+03  0.15785457785E+03  0.00000000000E+00 0. -1.
          1    1    1    2  501    0 -0.29227616392E+02 -0.85176333499E+01 -0.38860769097E+02  0.49365605564E+02  0.00000000000E+00 0. -1.
<scales pt_clust_5="13000.00000" pt_clust_6="13000.00000" pt_clust_7="13000.00000" pt_clust_8="13000.00000" pt_clust_9="30.44345"></scales>
<clustering>
<clus scale="   30.443">  1  9  2 -1</clus>
<clus scale="   82.286">  5  6 -1 -1</clus>
<clus scale="   88.187">  7  8 -1 -1</clus>
<clus scale="  122.442">  1  5  2 -1</clus>
<clus scale="   30.443">  1  5  2 -1</clus>
</clustering>
</event>
<event>
 9    2  0.9254368E-005  0.2448655E+03  0.7546771E-02  0.1117114E+00
         21   -1    0    0  501  502  0.00000000000E+00  0.00000000000E+00  0.90483102141E+02  0.90483102141E+02  0.00000000000E+00 0. -1.
          2   -1    0    0  502    0 -0.00000000000E+00 -0.00000000000E+00 -0.11419924205E+04  0.11419924205E+04  0.00000000000E+00 0. -1.
         23    2    1    2    0    0 -0.19080692408E+03 -0.12283674681E+03 -0.53587858069E+03  0.58927154804E+03  0.92622650847E+02 0.  0.
         24    2    1    2    0    0  0.22874455014E+03  0.49711063218E+02 -0.50131318029E+03  0.55958805795E+03  0.83836930017E+02 0.  0.
        -11    1    4    4    0    0  0.16017066576E+03  0.41213683395E+01 -0.26886999821E+03  0.31298994198E+03  0.00000000000E+00 0.  1.
         12    1    4    4    0    0  0.68573884384E+02  0.45589694878E+02 -0.23244318209E+03  0.24659811597E+03  0.00000000000E+00 0. -1.
        -11    1    3    3    0    0 -0.10847487769E+03 -0.38465703743E+02 -0.35654867953E+03  0.37466434355E+03  0.00000000000E+00 0.  1.
         11    1    3    3    0    0 -0.82332046392E+02 -0.84371043064E+02 -0.17932990116E+03  0.21460720450E+03  0.00000000000E+00 0. -1.
          1    1    1    2  501    0 -0.37937626063E+02  0.73125683588E+02 -0.14317557400E+02  0.83615916675E+02  0.00000000000E+00 0. -1.
<scales pt_clust_5="13000.00000" pt_clust_6="13000.00000" pt_clust_7="13000.00000" pt_clust_8="13000.00000" pt_clust_9="82.38100"></scales>
<clustering>
<clus scale="   82.381">  1  9  2 -1</clus>
<clus scale="   83.837">  5  6 -1 -1</clus>
<clus scale="   92.623">  7  8 -1 -1</clus>
<clus scale="  241.679">  1  5  2 -1</clus>
<clus scale="   82.381">  1  5  2 -1</clus>
</clustering>
</event>
<event>
 9    2  0.9600227E-005  0.1941885E+03  0.7546771E-02  0.1176657E+00
         21   -1    0    0  501  502  0.00000000000E+00  0.00000000000E+00  0.49757981142E+03  0.49757981142E+03  0.00000000000E+00 0.  1.
         -1   -1    0    0    0  501 -0.00000000000E+00 -0.00000000000E+00 -0.15335429091E+03  0.15335429091E+03  0.00000000000E+00 0.  1.
         23    2    1    2    0    0 -0.23144930214E+01 -0.73716928012E+02  0.36665860553E+02  0.12277018144E+03  0.91041692462E+02 0.  0.
         24    2    1    2    0    0 -0.56728231291E+02  0.18803519286E+03  0.33516708570E+03  0.39657030810E+03  0.79722694051E+02 0.  0.
        -11    1    4    4    0    0  0.45403635499E+00  0.52669659929E+02  0.37657376467E+02  0.64748569315E+02  0.00000000000E+00 0.  1.
         12    1    4    4    0    0 -0.57182267646E+02  0.13536553293E+03  0.29750970923E+03  0.33182173878E+03  0.00000000000E+00 0. -1.
        -13    1    3    3    0    0 -0.35414458489E+02 -0.67044106166E+02  0.44758830305E+02  0.88047992209E+02  0.00000000000E+00 0.  1.
         13    1    3    3    0    0  0.33099965468E+02 -0.66728218460E+01 -0.80929697521E+01  0.34722189228E+02  0.00000000000E+00 0. -1.
         -2    1    1    2    0  502  0.59042724312E+02 -0.11431826485E+03 -0.27607425736E+02  0.13159361280E+03  0.00000000000E+00 0.  1.
<scales pt_clust_5="13000.00000" pt_clust_6="13000.00000" pt_clust_7="13000.00000" pt_clust_8="13000.00000" pt_clust_9="177.06917"></scales>
<clustering>
<clus scale="   79.723">  5  6 -1 -1</clus>
<clus scale="   91.042">  7  8 -1 -1</clus>
<clus scale="  117.167">  2  7  1 -1</clus>
<clus scale="  177.069">  1  9  2 -1</clus>
<clus scale="  177.069">  1  5  2 -1</clus>
</clustering>
</event>
<event>
 9    2  0.9254368E-005  0.1720836E+03  0.7546771E-02  0.1176900E+00
         21   -1    0    0  501  502  0.00000000000E+00  0.00000000000E+00  0.14578443543E+03  0.14578443543E+03  0.00000000000E+00 0. -1.
          2   -1    0    0  502    0 -0.00000000000E+00 -0.00000000000E+00 -0.43294559739E+03  0.43294559739E+03  0.00000000000E+00 0. -1.
         24    2    1    2    0    0 -0.12198832149E+02  0.16300739772E+03 -0.32079775003E+03  0.36899202564E+03  0.80769396084E+02 0.  0.
         23    2    1    2    0    0  0.32580250928E+02 -0.90658586011E+02  0.19732187622E+02  0.13329793170E+03  0.89991818510E+02 0.  0.
        -13    1    3    3    0    0 -0.43546508823E+01  0.43212915363E+02 -0.17408878704E+03  0.17942470513E+03  0.00000000000E+00 0.  1.
         14    1    3    3    0    0 -0.78441812667E+01  0.11979448236E+03 -0.14670896299E+03  0.18956732051E+03  0.00000000000E+00 0. -1.
        -13    1    4    4    0    0  0.27922234061E+02  0.10714663065E+02 -0.50420179104E-01  0.29907485715E+02  0.00000000000E+00 0.  1.
         13    1    4    4    0    0  0.46580168668E+01 -0.10137324908E+03  0.19782607801E+02  0.10339044598E+03  0.00000000000E+00 0. -1.
          1    1    1    2  501    0 -0.20381418779E+02 -0.72348811708E+02  0.13904400447E+02  0.76440075476E+02  0.00000000000E+00 0. -1.
<scales pt_clust_5="13000.00000" pt_clust_6="13000.00000" pt_clust_7="13000.00000" pt_clust_8="13000.00000" pt_clust_9="75.16484"></scales>
<clustering>
<clus scale="   75.165">  1  9  2 -1</clus>
<clus scale="   80.769">  5  6 -1 -1</clus>
<clus scale="   89.992">  7  8 -1 -1</clus>
<clus scale="  167.445">  2  5  1 -1</clus>
<clus scale="   75.165">  1  5  2 -1</clus>
</clustering>
</event>
<event>
 9    2  0.9254368E-005  0.9195192E+02  0.7546771E-02  0.1301815E+00
          2   -1    0    0  502    0 -0.00000000000E+00  0.00000000000E+00  0.85186841595E+03  0.85186841595E+03  0.00000000000E+00 0. -1.
         21   -1    0    0  501  502  0.00000000000E+00 -0.00000000000E+00 -0.17603306748E+02  0.17603306748E+02  0.00000000000E+00 0. -1.
         24    2    1    2    0    0 -0.17866474317E+02 -0.30914800121E+02  0.58237965627E+03  0.58907669276E+03  0.81057696359E+02 0.  0.
         23    2    1    2    0    0 -0.11399073859E+02  0.13491691972E+02  0.17968585086E+03  0.20056508852E+03  0.87334901948E+02 0.  0.
        -13    1    3    3    0    0 -0.20743663415E+02  0.74849558908E+01  0.43008994113E+02  0.48333194713E+02  0.00000000000E+00 0.  1.
         14    1    3    3    0    0  0.28771890979E+01 -0.38399756012E+02  0.53937066216E+03  0.54074349805E+03  0.00000000000E+00 0. -1.
        -13    1    4    4    0    0  0.30105954245E+02 -0.25100728611E+01  0.23807186562E+02  0.38463633198E+02  0.00000000000E+00 0.  1.
         13    1    4    4    0    0 -0.41505028104E+02  0.16001764833E+02  0.15587866430E+03  0.16210145532E+03  0.00000000000E+00 0. -1.
          1    1    1    2  501    0  0.29265548176E+02  0.17423108149E+02  0.72199602070E+02  0.79829941418E+02  0.00000000000E+00 0. -1.
<scales pt_clust_5="13000.00000" pt_clust_6="13000.00000" pt_clust_7="13000.00000" pt_clust_8="13000.00000" pt_clust_9="34.05932"></scales>
<clustering>
<clus scale="   34.059">  2  9  1 -1</clus>
<clus scale="   81.058">  5  6 -1 -1</clus>
<clus scale="   86.012">  1  5  2 -1</clus>
<clus scale="   87.335">  7  8 -1 -1</clus>
<clus scale="   34.059">  2  5  1 -1</clus>
</clustering>
</event>
<event>
 9    2  0.9254368E-005  0.1550269E+03  0.7546771E-02  0.1195765E+00
         21   -1    0    0  501  502  0.00000000000E+00  0.00000000000E+00  0.86235228416E+02  0.86235228416E+02  0.00000000000E+00 0.  1.
          2   -1    0    0  502    0 -0.00000000000E+00 -0.00000000000E+00 -0.71363024141E+03  0.71363024141E+03  0.00000000000E+00 0. -1.
         24    2    1    2    0    0 -0.13422648893E+02  0.10567770817E+03 -0.28472594869E+03  0.31414271848E+03  0.79175982533E+02 0.  0.
         23    2    1    2    0    0  0.18181633328E+02 -0.21025525617E+03 -0.17372458279E+03  0.28697328766E+03  0.87381878161E+02 0.  0.
        -13    1    3    3    0    0  0.31848628915E+02  0.26891310765E+02 -0.82120236104E+02  0.92093490194E+02  0.00000000000E+00 0.  1.
         14    1    3    3    0    0 -0.45271277808E+02  0.78786397402E+02 -0.20260571259E+03  0.22204922829E+03  0.00000000000E+00 0. -1.
        -11    1    4    4    0    0  0.38091441459E+02 -0.20299754425E+03 -0.15065560967E+03  0.25564833973E+03  0.00000000000E+00 0.  1.
         11    1    4    4    0    0 -0.19909808131E+02 -0.72577119189E+01 -0.23068973117E+02  0.31324947929E+02  0.00000000000E+00 0. -1.
          1    1    1    2  501    0 -0.47589844350E+01  0.10457754800E+03 -0.16894448151E+03  0.19874946368E+03  0.00000000000E+00 0. -1.
<scales pt_clust_5="13000.00000" pt_clust_6="13000.00000" pt_clust_7="13000.00000" pt_clust_8="13000.00000" pt_clust_9="104.68583"></scales>
<clustering>
<clus scale="   79.176">  5  6 -1 -1</clus>
<clus scale="   87.382">  7  8 -1 -1</clus>
<clus scale="  104.686">  1  9  2 -1</clus>
<clus scale="  150.554">  2  5  1 -1</clus>
<clus scale="  104.686">  1  5  2 -1</clus>
</clustering>
</event>
<event>
 9    2  0.9254368E-005  0.1071028E+03  0.7546771E-02  0.1279393E+00
         -1   -1    0    0    0  501 -0.00000000000E+00  0.00000000000E+00  0.82706234908E+02  0.82706234908E+02  0.00000000000E+00 0.  1.
         21   -1    0    0  501  502  0.00000000000E+00 -0.00000000000E+00 -0.26537830421E+03  0.26537830421E+03  0.00000000000E+00 0.  1.
         24    2    1    2    0    0 -0.47270931286E+02  0.35182547621E+02 -0.13743893083E+02  0.86347613030E+02  0.61600836660E+02 0.  0.
         23    2    1    2    0    0  0.11827959800E+02 -0.49117550808E+02 -0.19093234939E+03  0.21775315433E+03  0.91699725981E+02 0.  0.
        -11    1    3    3    0    0 -0.52866468519E+02  0.24265495871E+02  0.10562808007E+02  0.59120645265E+02  0.00000000000E+00 0.  1.
         12    1    3    3    0    0  0.55955372327E+01  0.10917051749E+02 -0.24306701090E+02  0.27226967766E+02  0.00000000000E+00 0. -1.
        -11    1    4    4    0    0 -0.21093440758E+02 -0.64287429898E+02 -0.13661327574E+03  0.15244997210E+03  0.00000000000E+00 0. -1.
         11    1    4    4    0    0  0.32921400558E+02  0.15169879090E+02 -0.54319073653E+02  0.65303182226E+02  0.00000000000E+00 0.  1.
         -2    1    1    2    0  502  0.35442971486E+02  0.13935003187E+02  0.22004173170E+02  0.43983771763E+02  0.00000000000E+00 0.  1.
<scales pt_clust_5="13000.00000" pt_clust_6="13000.00000" pt_clust_7="13000.00000" pt_clust_8="13000.00000" pt_clust_9="38.08399"></scales>
<clustering>
<clus scale="   38.084">  2  9  1 -1</clus>
<clus scale="   61.601">  5  6 -1 -1</clus>
<clus scale="   82.806">  1  5  2 -1</clus>
<clus scale="   91.700">  7  8 -1 -1</clus>
<clus scale="   38.084">  2  5  1 -1</clus>
</clustering>
</event>
<event>
 9    2  0.9254368E-005  0.2120056E+03  0.7546771E-02  0.1140780E+00
          2   -1    0    0  502    0 -0.00000000000E+00  0.00000000000E+00  0.42534015902E+03  0.42534015902E+03  0.00000000000E+00 0. -1.
         21   -1    0    0  501  502  0.00000000000E+00 -0.00000000000E+00 -0.18703811759E+03  0.18703811759E+03  0.00000000000E+00 0. -1.
         24    2    1    2    0    0 -0.17072635255E+03 -0.69547734382E+02  0.15518704049E+03  0.25369511153E+03  0.79333582228E+02 0.  0.
         23    2    1    2    0    0  0.16641804279E+03  0.14443276406E+03 -0.11374257799E+02  0.23804092860E+03  0.89321451209E+02 0.  0.
        -11    1    3    3    0    0 -0.23888987286E+02 -0.43445670699E+02  0.54892357476E+02  0.73968783451E+02  0.00000000000E+00 0.  1.
         12    1    3    3    0    0 -0.14683736526E+03 -0.26102063683E+02  0.10029468301E+03  0.17972632808E+03  0.00000000000E+00 0. -1.
        -13    1    4    4    0    0  0.28189465400E+02 -0.41677748714E+01  0.16898544174E+02  0.33129701208E+02  0.00000000000E+00 0.  1.
         13    1    4    4    0    0  0.13822857739E+03  0.14860053893E+03 -0.28272801973E+02  0.20491122739E+03  0.00000000000E+00 0. -1.
          1    1    1    2  501    0  0.43083097620E+01 -0.74885029681E+02  0.94489258741E+02  0.12064223647E+03  0.00000000000E+00 0. -1.
<scales pt_clust_5="13000.00000" pt_clust_6="13000.00000" pt_clust_7="13000.00000" pt_clust_8="13000.00000" pt_clust_9="75.00890"></scales>
<clustering>
<clus scale="   75.009">  2  9  1 -1</clus>
<clus scale="   79.334">  5  6 -1 -1</clus>
<clus scale="   89.321">  7  8 -1 -1</clus>
<clus scale="  207.995">  1  5  2 -1</clus>
<clus scale="   75.009">  2  5  1 -1</clus>
</clustering>
</event>
<event>
 9    2  0.9254368E-005  0.1332548E+03  0.7546771E-02  0.1233364E+00
         21   -1    0    0  501  502  0.00000000000E+00  0.00000000000E+00  0.73776699015E+03  0.73776699015E+03  0.00000000000E+00 0. -1.
          2   -1    0    0  502    0 -0.00000000000E+00 -0.00000000000E+00 -0.44475589343E+02  0.44475589343E+02  0.00000000000E+00 0. -1.
         24    2    1    2    0    0 -0.56849661151E+02 -0.39002652582E+02  0.18536818769E+03  0.21395840981E+03  0.81631766116E+02 0.  0.
         23    2    1    2    0    0  0.51070771046E+02 -0.67733139206E+02  0.15159900214E+03  0.19627225032E+03  0.91348437286E+02 0.  0.
        -11    1    3    3    0    0 -0.32964801699E+02  0.11204600492E+02  0.21512693414E+02  0.40926974004E+02  0.00000000000E+00 0.  1.
         12    1    3    3    0    0 -0.23884859452E+02 -0.50207253074E+02  0.16385549427E+03  0.17303143580E+03  0.00000000000E+00 0. -1.
        -11    1    4    4    0    0  0.32058972416E+02  0.83933858632E+01  0.91858944633E+02  0.97653941793E+02  0.00000000000E+00 0.  1.
         11    1    4    4    0    0  0.19011798629E+02 -0.76126525069E+02  0.59740057511E+02  0.98618308532E+02  0.00000000000E+00 0. -1.
          1    1    1    2  501    0  0.57788901052E+01  0.10673579179E+03  0.35632421098E+03  0.37201191936E+03  0.00000000000E+00 0. -1.
<scales pt_clust_5="13000.00000" pt_clust_6="13000.00000" pt_clust_7="13000.00000" pt_clust_8="13000.00000" pt_clust_9="97.01707"></scales>
<clustering>
<clus scale="   81.632">  5  6 -1 -1</clus>
<clus scale="   91.348">  7  8 -1 -1</clus>
<clus scale="  106.850">  2  5  1 -1</clus>
<clus scale="   97.017">  1  9  2 -1</clus>
<clus scale="   97.017">  1  5  2 -1</clus>
</clustering>
</event>
<event>
 9    2  0.9254368E-005  0.9356677E+02  0.7546771E-02  0.1300373E+00
          2   -1    0    0  502    0 -0.00000000000E+00  0.00000000000E+00  0.15155843813E+04  0.15155843813E+04  0.00000000000E+00 0. -1.
         21   -1    0    0  501  502  0.00000000000E+00 -0.00000000000E+00 -0.14270030856E+02  0.14270030856E+02  0.00000000000E+00 0. -1.
         24    2    1    2    0    0  0.30881290654E+01  0.46022169746E+02  0.70514048541E+03  0.71128031446E+03  0.81049398111E+02 0.  0.
         23    2    1    2    0    0  0.24247091280E+02  0.36243002255E+02  0.36146838409E+03  0.37530935968E+03  0.91083731379E+02 0.  0.
        -13    1    3    3    0    0 -0.34692120018E+02  0.30361007699E+02  0.24305452732E+03  0.24738802968E+03  0.00000000000E+00 0.  1.
         14    1    3    3    0    0  0.37780249083E+02  0.15661162046E+02  0.46208595809E+03  0.46389228478E+03  0.00000000000E+00 0. -1.
        -11    1    4    4    0    0  0.16258054125E+02 -0.30073507715E+02  0.12314051319E+03  0.12779798973E+03  0.00000000000E+00 0.  1.
         11    1    4    4    0    0  0.79890371544E+01  0.66316509969E+02  0.23832787090E+03  0.24751136995E+03  0.00000000000E+00 0. -1.
          1    1    1    2  501    0 -0.27335220345E+02 -0.82265172000E+02  0.43470548097E+03  0.44326473803E+03  0.00000000000E+00 0. -1.
<scales pt_clust_5="13000.00000" pt_clust_6="13000.00000" pt_clust_7="13000.00000" pt_clust_8="13000.00000" pt_clust_9="86.68779"></scales>
<clustering>
<clus scale="   81.049">  5  6 -1 -1</clus>
<clus scale="   86.688">  2  9  1 -1</clus>
<clus scale="   83.830">  1  5  2 -1</clus>
<clus scale="   91.084">  7  8 -1 -1</clus>
<clus scale="   86.688">  2  5  1 -1</clus>
</clustering>
</event>
<event>
 9    2  0.9254368E-005  0.3133383E+03  0.7546771E-02  0.1079175E+00
         21   -1    0    0  501  502  0.00000000000E+00  0.00000000000E+00  0.19824740066E+03  0.19824740066E+03  0.00000000000E+00 0.  1.
          2   -1    0    0  502    0 -0.00000000000E+00 -0.00000000000E+00 -0.96314727803E+03  0.96314727803E+03  0.00000000000E+00 0. -1.
         24    2    1    2    0    0  0.29587320251E+03 -0.10252657680E+01 -0.14574813803E+03  0.33944354386E+03  0.80233388272E+02 0.  0.
         23    2    1    2    0    0 -0.30000502986E+03 -0.58343340215E+02 -0.15690555287E+03  0.35588972226E+03  0.92904136636E+02 0.  0.
        -13    1    3    3    0    0  0.44564485836E+02  0.28926777940E+02 -0.31484471607E+02  0.61757783575E+02  0.00000000000E+00 0.  1.
         14    1    3    3    0    0  0.25130871668E+03 -0.29952043708E+02 -0.11426366642E+03  0.27768576028E+03  0.00000000000E+00 0. -1.
        -11    1    4    4    0    0 -0.23696507731E+03 -0.83713108274E+02 -0.12812549788E+03  0.28209302645E+03  0.00000000000E+00 0.  1.
         11    1    4    4    0    0 -0.63039952548E+02  0.25369768059E+02 -0.28780054984E+02  0.73796695817E+02  0.00000000000E+00 0. -1.
          1    1    1    2  501    0  0.41318273455E+01  0.59368605983E+02 -0.46224618647E+03  0.46606141257E+03  0.00000000000E+00 0. -1.
<scales pt_clust_5="13000.00000" pt_clust_6="13000.00000" pt_clust_7="13000.00000" pt_clust_8="13000.00000" pt_clust_9="59.51224"></scales>
<clustering>
<clus scale="   59.512">  1  9  2 -1</clus>
<clus scale="   80.233">  5  6 -1 -1</clus>
<clus scale="   92.904">  7  8 -1 -1</clus>
<clus scale="  309.818">  2  5  1 -1</clus>
<clus scale="   59.512">  1  5  2 -1</clus>
</clustering>
</event>
<event>
 9    2  0.9254368E-005  0.1039330E+03  0.7546771E-02  0.1277540E+00
         21   -1    0    0  501  502  0.00000000000E+00  0.00000000000E+00  0.14823486942E+03  0.14823486942E+03  0.00000000000E+00 0. -1.
         -3   -1    0    0    0  501 -0.00000000000E+00 -0.00000000000E+00 -0.12859719603E+03  0.12859719603E+03  0.00000000000E+00 0.  1.
         23    2    1    2    0    0 -0.54622125193E+02 -0.47608991651E+02  0.33566021465E+01  0.11750849474E+03  0.92448834024E+02 0.  0.
         24    2    1    2    0    0  0.93604921290E+01  0.16127201673E+02  0.47751275776E+02  0.95840562736E+02  0.80978538394E+02 0.  0.
        -11    1    4    4    0    0 -0.24072613076E+02 -0.11248500477E+02 -0.56309548964E+01  0.27161132457E+02  0.00000000000E+00 0.  1.
         12    1    4    4    0    0  0.33433105205E+02  0.27375702150E+02  0.53382230673E+02  0.68679430279E+02  0.00000000000E+00 0. -1.
        -13    1    3    3    0    0  0.93122859325E+01  0.21424748402E+02  0.13061642468E+00  0.23361412072E+02  0.00000000000E+00 0.  1.
         13    1    3    3    0    0 -0.63934411125E+02 -0.69033740053E+02  0.32259857218E+01  0.94147082671E+02  0.00000000000E+00 0. -1.
         -4    1    1    2    0  502  0.45261633064E+02  0.31481789978E+02 -0.31470204537E+02  0.63483007974E+02  0.00000000000E+00 0.  1.
<scales pt_clust_5="13000.00000" pt_clust_6="13000.00000" pt_clust_7="13000.00000" pt_clust_8="13000.00000" pt_clust_9="55.13367"></scales>
<clustering>
<clus scale="   55.134">  1  9  2 -1</clus>
<clus scale="   80.979">  5  6 -1 -1</clus>
<clus scale="   92.449">  7  8 -1 -1</clus>
<clus scale="   93.877">  1  5  2 -1</clus>
<clus scale="   55.134">  1  5  2 -1</clus>
</clustering>
</event>
<event>
 9    2  0.9254368E-005  0.9806139E+02  0.7546771E-02  0.1291204E+00
         21   -1    0    0  501  502  0.00000000000E+00  0.00000000000E+00  0.11045533692E+03  0.11045533692E+03  0.00000000000E+00 0. -1.
          2   -1    0    0  502    0 -0.00000000000E+00 -0.00000000000E+00 -0.70645763689E+03  0.70645763689E+03  0.00000000000E+00 0. -1.
         24    2    1    2    0    0  0.37971269561E+02 -0.56321295651E+01 -0.52655114501E+03  0.53371322085E+03  0.78231423379E+02 0.  0.
         23    2    1    2    0    0 -0.21458250113E+02  0.34725701421E+02 -0.15894912298E+03  0.18765394189E+03  0.91010149832E+02 0.  0.
        -11    1    3    3    0    0  0.51155067961E+01  0.30472612186E+02 -0.10826142482E+03  0.11258456647E+03  0.00000000000E+00 0.  1.
         12    1    3    3    0    0  0.32855762765E+02 -0.36104741751E+02 -0.41828972018E+03  0.42112865437E+03  0.00000000000E+00 0. -1.
        -11    1    4    4    0    0 -0.13420193842E+02  0.62408197050E+02 -0.13790835028E+03  0.15196577818E+03  0.00000000000E+00 0. -1.
         11    1    4    4    0    0 -0.80380562712E+01 -0.27682495629E+02 -0.21040772707E+02  0.35688163710E+02  0.00000000000E+00 0.  1.
          1    1    1    2  501    0 -0.16513019448E+02 -0.29093571856E+02  0.89497968021E+02  0.95545811078E+02  0.00000000000E+00 0. -1.
<scales pt_clust_5="13000.00000" pt_clust_6="13000.00000" pt_clust_7="13000.00000" pt_clust_8="13000.00000" pt_clust_9="33.45319"></scales>
<clustering>
<clus scale="   33.453">  1  9  2 -1</clus>
<clus scale="   78.231">  5  6 -1 -1</clus>
<clus scale="   86.333">  2  5  1 -1</clus>
<clus scale="   91.010">  7  8 -1 -1</clus>
<clus scale="   33.453">  1  5  2 -1</clus>
</clustering>
</event>
<event>
 9    2  0.9254368E-005  0.1380287E+03  0.7546771E-02  0.1219233E+00
          2   -1    0    0  502    0 -0.00000000000E+00  0.00000000000E+00  0.14238150562E+04  0.14238150562E+04  0.00000000000E+00 0. -1.
         21   -1    0    0  501  502  0.00000000000E+00 -0.00000000000E+00 -0.24960973577E+02  0.24960973577E+02  0.00000000000E+00 0.  1.
         24    2    1    2    0    0  0.92069937869E+02  0.40704885813E+02  0.10413704790E+04  0.10491832672E+04  0.78735584869E+02 0.  0.
         23    2    1    2    0    0 -0.87761056668E+02 -0.65982102754E+02  0.33822215966E+03  0.36752241220E+03  0.92859319604E+02 0.  0.
        -11    1    3    3    0    0  0.18573804176E+02 -0.16275100961E+02  0.91593653368E+02  0.94864442496E+02  0.00000000000E+00 0.  1.
         12    1    3    3    0    0  0.73496133693E+02  0.56979986773E+02  0.94977682565E+03  0.95431882466E+03  0.00000000000E+00 0. -1.
        -11    1    4    4    0    0 -0.87642405095E+02 -0.34242947744E+02  0.15313371587E+03  0.17973231645E+03  0.00000000000E+00 0.  1.
         11    1    4    4    0    0 -0.11865157331E+00 -0.31739155010E+02  0.18508844379E+03  0.18779009575E+03  0.00000000000E+00 0. -1.
          1    1    1    2  501    0 -0.43088812011E+01  0.25277216942E+02  0.19261443975E+02  0.32070350443E+02  0.00000000000E+00 0. -1.
<scales pt_clust_5="13000.00000" pt_clust_6="13000.00000" pt_clust_7="13000.00000" pt_clust_8="13000.00000" pt_clust_9="25.64184"></scales>
<clustering>
<clus scale="   25.642">  2  9  1 -1</clus>
<clus scale="   78.736">  5  6 -1 -1</clus>
<clus scale="   92.859">  7  8 -1 -1</clus>
<clus scale="  128.951">  1  5  2 -1</clus>
<clus scale="   25.642">  2  5  1 -1</clus>
</clustering>
</event>
<event>
 9    2  0.9254368E-005  0.1250163E+03  0.7546771E-02  0.1247871E+00
         21   -1    0    0  501  502  0.00000000000E+00  0.00000000000E+00  0.10713442519E+03  0.10713442519E+03  0.00000000000E+00 0. -1.
         -1   -1    0    0    0  501 -0.00000000000E+00 -0.00000000000E+00 -0.56207193867E+03  0.56207193867E+03  0.00000000000E+00 0.  1.
         24    2    1    2    0    0  0.81913049112E+02  0.15796259274E+02 -0.48389932172E+03  0.49370828488E+03  0.51283989529E+02 0.  0.
         23    2    1    2    0    0 -0.44993630351E+02 -0.15624581082E+02  0.64647838192E+02  0.12415057963E+03  0.94686161257E+02 0.  0.
        -11    1    3    3    0    0  0.65994583559E+02  0.33511915000E+02 -0.37507004295E+03  0.38230337512E+03  0.00000000000E+00 0.  1.
         12    1    3    3    0    0  0.15918465553E+02 -0.17715655726E+02 -0.10882927876E+03  0.11140490976E+03  0.00000000000E+00 0. -1.
        -13    1    4    4    0    0  0.17814350152E+02  0.23255008820E+02  0.32017458339E+02  0.43396591399E+02  0.00000000000E+00 0.  1.
         13    1    4    4    0    0 -0.62807980503E+02 -0.38879589903E+02  0.32630379853E+02  0.80753988232E+02  0.00000000000E+00 0. -1.
         -2    1    1    2    0  502 -0.36919418761E+02 -0.17167819138E+00 -0.35686029956E+02  0.51347499346E+02  0.00000000000E+00 0.  1.
<scales pt_clust_5="13000.00000" pt_clust_6="13000.00000" pt_clust_7="13000.00000" pt_clust_8="13000.00000" pt_clust_9="36.91984"></scales>
<clustering>
<clus scale="   36.920">  1  9  2 -1</clus>
<clus scale="   51.284">  5  6 -1 -1</clus>
<clus scale="   94.686">  7  8 -1 -1</clus>
<clus scale="   96.404">  2  5  1 -1</clus>
<clus scale="   36.920">  1  5  2 -1</clus>
</clustering>
</event>
<event>
 9    2  0.9254368E-005  0.2525292E+03  0.7546771E-02  0.1112324E+00
          2   -1    0    0  502    0 -0.00000000000E+00  0.00000000000E+00  0.59050592754E+03  0.59050592754E+03  0.00000000000E+00 0. -1.
         21   -1    0    0  501  502  0.00000000000E+00 -0.00000000000E+00 -0.55075356280E+03  0.55075356280E+03  0.00000000000E+00 0. -1.
         24    2    1    2    0    0  0.68033198491E+02  0.22310291724E+03  0.51049085822E+03  0.56696804375E+03  0.80302045601E+02 0.  0.
         23    2    1    2    0    0 -0.74470669709E+02 -0.25394323049E+03 -0.34333888158E+03  0.44305415361E+03  0.91555177171E+02 0.  0.
        -13    1    3    3    0    0 -0.39655988322E+01  0.37554719996E+02  0.34938254270E+02  0.51446715925E+02  0.00000000000E+00 0.  1.
         14    1    3    3    0    0  0.71998797323E+02  0.18554819724E+03  0.47555260395E+03  0.51552132782E+03  0.00000000000E+00 0. -1.
        -13    1    4    4    0    0 -0.46208146370E+00 -0.69295223557E+02 -0.39140978852E+02  0.79586793833E+02  0.00000000000E+00 0.  1.
         13    1    4    4    0    0 -0.74008588245E+02 -0.18464800694E+03 -0.30419790273E+03  0.36346735978E+03  0.00000000000E+00 0. -1.
          1    1    1    2  501    0  0.64374712175E+01  0.30840313255E+02 -0.12739961190E+03  0.13123729298E+03  0.00000000000E+00 0. -1.
<scales pt_clust_5="13000.00000" pt_clust_6="13000.00000" pt_clust_7="13000.00000" pt_clust_8="13000.00000" pt_clust_9="31.50501"></scales>
<clustering>
<clus scale="   31.505">  2  9  1 -1</clus>
<clus scale="   80.302">  5  6 -1 -1</clus>
<clus scale="   91.555">  7  8 -1 -1</clus>
<clus scale="  248.671">  1  5  2 -1</clus>
<clus scale="   31.505">  2  5  1 -1</clus>
</clustering>
</event>
<event>
 9    2  0.9254368E-005  0.2162158E+03  0.7546771E-02  0.1167329E+00
          2   -1    0    0  502    0 -0.00000000000E+00  0.00000000000E+00  0.13853579109E+04  0.13853579109E+04  0.00000000000E+00 0. -1.
         21   -1    0    0  501  502  0.00000000000E+00 -0.00000000000E+00 -0.67234144306E+02  0.67234144306E+02  0.00000000000E+00 0. -1.
         24    2    1    2    0    0 -0.88107075626E+01 -0.66019115633E+02  0.10073033324E+03  0.14549974222E+03  0.81162939537E+02 0.  0.
         23    2    1    2    0    0  0.19027182480E+03  0.11699800494E+03  0.94756149851E+03  0.97794757690E+03  0.92826554640E+02 0.  0.
        -13    1    3    3    0    0 -0.33749417508E+01 -0.67635477750E+02  0.29203034409E+02  0.73747985064E+02  0.00000000000E+00 0.  1.
         14    1    3    3    0    0 -0.54357658118E+01  0.16163621176E+01  0.71527298836E+02  0.71751757158E+02  0.00000000000E+00 0. -1.
        -11    1    4    4    0    0  0.19623324553E+02  0.57807490972E+02  0.22182177116E+03  0.23006885717E+03  0.00000000000E+00 0.  1.
         11    1    4    4    0    0  0.17064850025E+03  0.59190513964E+02  0.72573972735E+03  0.74787871974E+03  0.00000000000E+00 0. -1.
          1    1    1    2  501    0 -0.18146111724E+03 -0.50978889304E+02  0.26983193481E+03  0.32914473605E+03  0.00000000000E+00 0. -1.
<scales pt_clust_5="13000.00000" pt_clust_6="13000.00000" pt_clust_7="13000.00000" pt_clust_8="13000.00000" pt_clust_9="195.27541"></scales>
<clustering>
<clus scale="   81.163">  5  6 -1 -1</clus>
<clus scale="   92.827">  7  8 -1 -1</clus>
<clus scale="  104.993">  1  5  2 -1</clus>
<clus scale="  195.275">  2  9  1 -1</clus>
<clus scale="  195.275">  2  5  1 -1</clus>
</clustering>
</event>
<event>
 9    2  0.9254368E-005  0.1270829E+03  0.7546771E-02  0.1234578E+00
         21   -1    0    0  501  502  0.00000000000E+00  0.00000000000E+00  0.31238041654E+03  0.31238041654E+03  0.00000000000E+00 0. -1.
          2   -1    0    0  502    0 -0.00000000000E+00 -0.00000000000E+00 -0.98495391655E+02  0.98495391655E+02  0.00000000000E+00 0. -1.
         23    2    1    2    0    0 -0.79760881674E+02  0.14423751174E+02  0.10333523066E+03  0.15965706541E+03  0.90787475977E+02 0.  0.
         24    2    1    2    0    0  0.10087358585E+03  0.20822607423E+02  0.14660933978E+03  0.19655300491E+03  0.80806707189E+02 0.  0.
        -11    1    4    4    0    0  0.61858735373E+02 -0.25799352136E+02  0.55477577853E+02  0.87005007655E+02  0.00000000000E+00 0.  1.
         12    1    4    4    0    0  0.39014850475E+02  0.46621959558E+02  0.91131761932E+02  0.10954799726E+03  0.00000000000E+00 0. -1.
        -13    1    3    3    0    0 -0.29862097293E+02  0.31073209631E+02 -0.67482817133E+00  0.43101561509E+02  0.00000000000E+00 0.  1.
         13    1    3    3    0    0 -0.49898784381E+02 -0.16649458457E+02  0.10401005884E+03  0.11655550390E+03  0.00000000000E+00 0. -1.
          1    1    1    2  501    0 -0.21112704175E+02 -0.35246358596E+02 -0.36059545560E+02  0.54665737879E+02  0.00000000000E+00 0. -1.
<scales pt_clust_5="13000.00000" pt_clust_6="13000.00000" pt_clust_7="13000.00000" pt_clust_8="13000.00000" pt_clust_9="41.08593"></scales>
<clustering>
<clus scale="   41.086">  1  9  2 -1</clus>
<clus scale="   80.807">  5  6 -1 -1</clus>
<clus scale="   90.787">  7  8 -1 -1</clus>
<clus scale="  120.156">  1  5  2 -1</clus>
<clus scale="   41.086">  1  5  2 -1</clus>
</clustering>
</event>
<event>
 9    2  0.9254368E-005  0.1755591E+03  0.7546771E-02  0.1191071E+00
         -1   -1    0    0    0  501 -0.00000000000E+00  0.00000000000E+00  0.16276831782E+04  0.16276831782E+04  0.00000000000E+00 0.  1.
         21   -1    0    0  501  502  0.00000000000E+00 -0.00000000000E+00 -0.72676021313E+02  0.72676021313E+02  0.00000000000E+00 0.  1.
         23    2    1    2    0    0 -0.26650473390E+02 -0.66341221471E+02  0.85780137268E+02  0.14341079920E+03  0.89983442798E+02 0.  0.
         24    2    1    2    0    0 -0.15278513706E+03  0.10879357665E+02  0.16372792535E+03  0.23800903789E+03  0.79873713116E+02 0.  0.
        -11    1    4    4    0    0 -0.11857217524E+03  0.37754062370E+02  0.14377050414E+03  0.19014386087E+03  0.00000000000E+00 0.  1.
         12    1    4    4    0    0 -0.34212961818E+02 -0.26874704706E+02  0.19957421216E+02  0.47865177018E+02  0.00000000000E+00 0. -1.
        -13    1    3    3    0    0 -0.29972876536E+02 -0.87978826641E+02  0.67125637058E+02  0.11464945885E+03  0.00000000000E+00 0. -1.
         13    1    3    3    0    0  0.33224031463E+01  0.21637605170E+02  0.18654500210E+02  0.28761340342E+02  0.00000000000E+00 0.  1.
         -2    1    1    2    0  502  0.17943561045E+03  0.55461863807E+02  0.13054990943E+04  0.13189393625E+04  0.00000000000E+00 0.  1.
<scales pt_clust_5="13000.00000" pt_clust_6="13000.00000" pt_clust_7="13000.00000" pt_clust_8="13000.00000" pt_clust_9="156.33691"></scales>
<clustering>
<clus scale="   79.874">  5  6 -1 -1</clus>
<clus scale="   89.983">  7  8 -1 -1</clus>
<clus scale="  114.928">  1  7  2 -1</clus>
<clus scale="  156.337">  2  9  1 -1</clus>
<clus scale="  156.337">  2  5  1 -1</clus>
</clustering>
</event>
<event>
 9    2  0.9254368E-005  0.2779990E+03  0.7546771E-02  0.1097237E+00
         21   -1    0    0  501  502  0.00000000000E+00  0.00000000000E+00  0.52861013251E+02  0.52861013251E+02  0.00000000000E+00 0. -1.
          2   -1    0    0  502    0 -0.00000000000E+00 -0.00000000000E+00 -0.19793825831E+04  0.19793825831E+04  0.00000000000E+00 0. -1.
         23    2    1    2    0    0  0.53078352879E+02 -0.27301779870E+03 -0.11350690741E+04  0.11722733548E+04  0.92124836620E+02 0.  0.
         24    2    1    2    0    0 -0.32881429584E+01  0.24571525532E+03 -0.73744271247E+03  0.78160219595E+03  0.81813446098E+02 0.  0.
        -11    1    4    4    0    0 -0.31305612393E+02  0.69143123870E+02 -0.28990850017E+03  0.29967941441E+03  0.00000000000E+00 0.  1.
         12    1    4    4    0    0  0.28017469434E+02  0.17657213145E+03 -0.44753421230E+03  0.48192278155E+03  0.00000000000E+00 0. -1.
        -11    1    3    3    0    0 -0.18067866340E+02 -0.49378176869E+02 -0.13134942944E+03  0.14148259525E+03  0.00000000000E+00 0.  1.
         11    1    3    3    0    0  0.71146219219E+02 -0.22363962183E+03 -0.10037196446E+04  0.10307907596E+04  0.00000000000E+00 0. -1.
          1    1    1    2  501    0 -0.49790209920E+02  0.27302543376E+02 -0.54009783335E+02  0.78368045622E+02  0.00000000000E+00 0. -1.
<scales pt_clust_5="13000.00000" pt_clust_6="13000.00000" pt_clust_7="13000.00000" pt_clust_8="13000.00000" pt_clust_9="56.78463"></scales>
<clustering>
<clus scale="   56.785">  1  9  2 -1</clus>
<clus scale="   81.813">  5  6 -1 -1</clus>
<clus scale="   92.125">  7  8 -1 -1</clus>
<clus scale="  274.754">  1  5  2 -1</clus>
<clus scale="   56.785">  1  5  2 -1</clus>
</clustering>
</event>
<event>
 9    2  0.9254368E-005  0.1151421E+03  0.7546771E-02  0.1253351E+00
          2   -1    0    0  502    0 -0.00000000000E+00  0.00000000000E+00  0.24922482665E+03  0.24922482665E+03  0.00000000000E+00 0. -1.
         21   -1    0    0  501  502  0.00000000000E+00 -0.00000000000E+00 -0.11592018427E+03  0.11592018427E+03  0.00000000000E+00 0.  1.
         24    2    1    2    0    0 -0.28631700162E+02  0.70812584981E+02  0.13175836544E+03  0.17215169727E+03  0.80260473238E+02 0.  0.
         23    2    1    2    0    0  0.67925348583E+01 -0.77501969462E+02  0.59568865212E+02  0.13063693662E+03  0.86399454322E+02 0.  0.
        -13    1    3    3    0    0 -0.21025634048E+02  0.50223833509E+02  0.19602831365E+02  0.57868659367E+02  0.00000000000E+00 0.  1.
         14    1    3    3    0    0 -0.76060661138E+01  0.20588751473E+02  0.11215553408E+03  0.11428303791E+03  0.00000000000E+00 0. -1.
        -13    1    4    4    0    0 -0.15380542187E+02 -0.82595591167E+02  0.22219356785E+02  0.86903927265E+02  0.00000000000E+00 0.  1.
         13    1    4    4    0    0  0.22173077045E+02  0.50936217049E+01  0.37349508427E+02  0.43733009358E+02  0.00000000000E+00 0. -1.
          1    1    1    2  501    0  0.21839165304E+02  0.66893844805E+01 -0.58022588275E+02  0.62356377028E+02  0.00000000000E+00 0. -1.
<scales pt_clust_5="13000.00000" pt_clust_6="13000.00000" pt_clust_7="13000.00000" pt_clust_8="13000.00000" pt_clust_9="22.84069"></scales>
<clustering>
<clus scale="   22.841">  2  9  1 -1</clus>
<clus scale="   80.260">  5  6 -1 -1</clus>
<clus scale="   86.399">  7  8 -1 -1</clus>
<clus scale="  110.610">  1  5  2 -1</clus>
<clus scale="   22.841">  2  5  1 -1</clus>
</clustering>
</event>
<event>
 9    2  0.9254368E-005  0.1163818E+03  0.7546771E-02  0.1253129E+00
         21   -1    0    0  501  502  0.00000000000E+00  0.00000000000E+00  0.12443042536E+03  0.12443042536E+03  0.00000000000E+00 0.  1.
          2   -1    0    0  502    0 -0.00000000000E+00 -0.00000000000E+00 -0.25043997246E+03  0.25043997246E+03  0.00000000000E+00 0. -1.
         24    2    1    2    0    0  0.52582920720E+02 -0.41628098491E+02 -0.57645945454E+01  0.10515560791E+03  0.80787432120E+02 0.  0.
         23    2    1    2    0    0 -0.87604668479E+02 -0.31013094393E+01  0.10024081269E+02  0.12759771168E+03  0.92176449065E+02 0.  0.
        -13    1    3    3    0    0  0.45551835379E+02 -0.42323126057E+02  0.29760981414E+02  0.68934263762E+02  0.00000000000E+00 0.  1.
         14    1    3    3    0    0  0.70310853413E+01  0.69502756633E+00 -0.35525575960E+02  0.36221344145E+02  0.00000000000E+00 0. -1.
        -11    1    4    4    0    0 -0.45283489049E+02 -0.47292236730E+02  0.11046319682E+02  0.66401590447E+02  0.00000000000E+00 0. -1.
         11    1    4    4    0    0 -0.42321179430E+02  0.44190927291E+02 -0.10222384132E+01  0.61196121237E+02  0.00000000000E+00 0.  1.
          1    1    1    2  501    0  0.35021747759E+02  0.44729407930E+02 -0.13026903382E+03  0.14211707822E+03  0.00000000000E+00 0. -1.
<scales pt_clust_5="13000.00000" pt_clust_6="13000.00000" pt_clust_7="13000.00000" pt_clust_8="13000.00000" pt_clust_9="56.80885"></scales>
<clustering>
<clus scale="   56.809">  1  9  2 -1</clus>
<clus scale="   80.787">  5  6 -1 -1</clus>
<clus scale="   92.176">  7  8 -1 -1</clus>
<clus scale="  107.586">  2  5  1 -1</clus>
<clus scale="   56.809">  1  5  2 -1</clus>
</clustering>
</event>
<event>
 9    2  0.9254368E-005  0.1019475E+03  0.7546771E-02  0.1281030E+00
          2   -1    0    0  502    0 -0.00000000000E+00  0.00000000000E+00  0.80036712765E+03  0.80036712765E+03  0.00000000000E+00 0. -1.
         21   -1    0    0  501  502  0.00000000000E+00 -0.00000000000E+00 -0.17141293777E+02  0.17141293777E+02  0.00000000000E+00 0. -1.
         23    2    1    2    0    0  0.51721380432E+02  0.25588360147E+01  0.45897964203E+03  0.47092296935E+03  0.91784979314E+02 0.  0.
         24    2    1    2    0    0 -0.29976634048E+02 -0.25474776810E+02  0.23624139276E+03  0.25308240934E+03  0.81811658254E+02 0.  0.
        -11    1    4    4    0    0 -0.31397359256E+02 -0.53014830431E+02  0.13979720636E+03  0.15277311713E+03  0.00000000000E+00 0.  1.
         12    1    4    4    0    0  0.14207252081E+01  0.27540053621E+02  0.96444186399E+02  0.10030929221E+03  0.00000000000E+00 0. -1.
        -11    1    3    3    0    0  0.72837345621E+02 -0.10001964522E+02  0.40494100722E+03  0.41156109818E+03  0.00000000000E+00 0. -1.
         11    1    3    3    0    0 -0.21115965189E+02  0.12560800537E+02  0.54038634808E+02  0.59361871163E+02  0.00000000000E+00 0.  1.
          1    1    1    2  501    0 -0.21744746385E+02  0.22915940795E+02  0.88004799091E+02  0.93503042736E+02  0.00000000000E+00 0. -1.
<scales pt_clust_5="13000.00000" pt_clust_6="13000.00000" pt_clust_7="13000.00000" pt_clust_8="13000.00000" pt_clust_9="31.59073"></scales>
<clustering>
<clus scale="   31.591">  2  9  1 -1</clus>
<clus scale="   81.812">  5  6 -1 -1</clus>
<clus scale="   91.785">  7  8 -1 -1</clus>
<clus scale="   93.070">  2  5  1 -1</clus>
<clus scale="   31.591">  2  5  1 -1</clus>
</clustering>
</event>
<event>
 9    2  0.9254368E-005  0.1534450E+03  0.7546771E-02  0.1198194E+00
         -3   -1    0    0    0  501 -0.00000000000E+00  0.00000000000E+00  0.13472494636E+03  0.13472494636E+03  0.00000000000E+00 0.  1.
         21   -1    0    0  501  502  0.00000000000E+00 -0.00000000000E+00 -0.67310425529E+03  0.67310425529E+03  0.00000000000E+00 0. -1.
         24    2    1    2    0    0 -0.10075994829E+03 -0.11806935352E+02 -0.20773079295E+03  0.24459400277E+03  0.79888503250E+02 0.  0.
         23    2    1    2    0    0  0.16738894034E+03 -0.76637245767E+01 -0.41340247970E+03  0.45522247885E+03  0.90819078477E+02 0.  0.
        -13    1    3    3    0    0 -0.91493106077E+02 -0.20729720551E+02 -0.10396440216E+03  0.14003323424E+03  0.00000000000E+00 0.  1.
         14    1    3    3    0    0 -0.92668422158E+01  0.89227851995E+01 -0.10376639078E+03  0.10456076853E+03  0.00000000000E+00 0. -1.
        -11    1    4    4    0    0  0.98995506671E+02  0.40360130211E+02 -0.23990037251E+03  0.26264279770E+03  0.00000000000E+00 0.  1.
         11    1    4    4    0    0  0.68393433665E+02 -0.48023854787E+02 -0.17350210719E+03  0.19257968116E+03  0.00000000000E+00 0. -1.
         -4    1    1    2    0  502 -0.66628992043E+02  0.19470659929E+02  0.82753963708E+02  0.10801272003E+03  0.00000000000E+00 0.  1.
<scales pt_clust_5="13000.00000" pt_clust_6="13000.00000" pt_clust_7="13000.00000" pt_clust_8="13000.00000" pt_clust_9="69.41566"></scales>
<clustering>
<clus scale="   69.416">  2  9  1 -1</clus>
<clus scale="   79.889">  5  6 -1 -1</clus>
<clus scale="   90.819">  7  8 -1 -1</clus>
<clus scale="  147.239">  1  5  2 -1</clus>
<clus scale="   69.416">  2  5  1 -1</clus>
</clustering>
</event>
<event>
 9    2  0.9254368E-005  0.1195952E+03  0.7546771E-02  0.1246072E+00
          2   -1    0    0  502    0 -0.00000000000E+00  0.00000000000E+00  0.18132229608E+03  0.18132229608E+03  0.00000000000E+00 0. -1.
         21   -1    0    0  501  502  0.00000000000E+00 -0.00000000000E+00 -0.13692507004E+03  0.13692507004E+03  0.00000000000E+00 0.  1.
         23    2    1    2    0    0  0.41047657799E+02 -0.78803902285E+02  0.10370098039E+03  0.16336875668E+03  0.89668791116E+02 0.  0.
         24    2    1    2    0    0 -0.37349977225E+02  0.46875475365E+02 -0.19392333078E+02  0.10363391376E+03  0.82289698680E+02 0.  0.
        -11    1    4    4    0    0 -0.31793549440E+02  0.58505410096E+02 -0.41200264027E+02  0.78301817044E+02  0.00000000000E+00 0.  1.
         12    1    4    4    0    0 -0.55564277850E+01 -0.11629934730E+02  0.21807930949E+02  0.25332096713E+02  0.00000000000E+00 0. -1.
        -11    1    3    3    0    0  0.34781444132E+02 -0.41559849099E+02  0.12828788297E+01  0.54209000093E+02  0.00000000000E+00 0.  1.
         11    1    3    3    0    0  0.62662136675E+01 -0.37244053186E+02  0.10241810156E+03  0.10915975659E+03  0.00000000000E+00 0. -1.
          1    1    1    2  501    0 -0.36976805740E+01  0.31928426919E+02 -0.39911421277E+02  0.51244695682E+02  0.00000000000E+00 0. -1.
<scales pt_clust_5="13000.00000" pt_clust_6="13000.00000" pt_clust_7="13000.00000" pt_clust_8="13000.00000" pt_clust_9="32.14183"></scales>
<clustering>
<clus scale="   32.142">  2  9  1 -1</clus>
<clus scale="   82.290">  5  6 -1 -1</clus>
<clus scale="   89.669">  7  8 -1 -1</clus>
<clus scale="  114.167">  2  5  1 -1</clus>
<clus scale="   32.142">  2  5  1 -1</clus>
</clustering>
</event>
<event>
 9    2  0.9254368E-005  0.1103878E+03  0.7546771E-02  0.1263445E+00
          2   -1    0    0  502    0 -0.00000000000E+00  0.00000000000E+00  0.11064505140E+04  0.11064505140E+04  0.00000000000E+00 0. -1.
         21   -1    0    0  501  502  0.00000000000E+00 -0.00000000000E+00 -0.31009156866E+02  0.31009156866E+02  0.00000000000E+00 0.  1.
         24    2    1    2    0    0 -0.59463549445E+02  0.10569707720E+01  0.78362948883E+03  0.78995308785E+03  0.80085418985E+02 0.  0.
         23    2    1    2    0    0  0.84300798102E+02 -0.19537282225E+01  0.29758103227E+03  0.32199234491E+03  0.89521828638E+02 0.  0.
        -13    1    3    3    0    0 -0.20242831340E+02  0.54939793689E+01  0.39037996402E+02  0.44316150477E+02  0.00000000000E+00 0.  1.
         14    1    3    3    0    0 -0.39220718105E+02 -0.44370085969E+01  0.74459149243E+03  0.74563693737E+03  0.00000000000E+00 0. -1.
        -13    1    4    4    0    0  0.49816060198E+02  0.57865440368E+01  0.27613410578E+03  0.28065132873E+03  0.00000000000E+00 0. -1.
         13    1    4    4    0    0  0.34484737904E+02 -0.77402722593E+01  0.21446926489E+02  0.41341016180E+02  0.00000000000E+00 0.  1.
          1    1    1    2  501    0 -0.24837248658E+02  0.89675745051E+00 -0.57691639391E+01  0.25514238130E+02  0.00000000000E+00 0. -1.
<scales pt_clust_5="13000.00000" pt_clust_6="13000.00000" pt_clust_7="13000.00000" pt_clust_8="13000.00000" pt_clust_9="24.85343"></scales>
<clustering>
<clus scale="   24.853">  2  9  1 -1</clus>
<clus scale="   80.085">  5  6 -1 -1</clus>
<clus scale="   89.522">  7  8 -1 -1</clus>
<clus scale="  102.883">  1  5  2 -1</clus>
<clus scale="   24.853">  2  5  1 -1</clus>
</clustering>
</event>
<event>
 9    2  0.9254368E-005  0.1257898E+03  0.7546771E-02  0.1237099E+00
         -1   -1    0    0    0  501 -0.00000000000E+00  0.00000000000E+00  0.43210121979E+02  0.43210121979E+02  0.00000000000E+00 0.  1.
         21   -1    0    0  501  502  0.00000000000E+00 -0.00000000000E+00 -0.66647969579E+03  0.66647969579E+03  0.00000000000E+00 0. -1.
         24    2    1    2    0    0  0.89454454366E+02  0.39839048916E+02 -0.21308124437E+03  0.24784682375E+03  0.80219586876E+02 0.  0.
         23    2    1    2    0    0 -0.44064935620E+02 -0.56072677170E+02 -0.39434370103E+03  0.41110059215E+03  0.91710842578E+02 0.  0.
        -11    1    3    3    0    0  0.79707361540E+02  0.38579534533E+01 -0.95256613877E+02  0.12426572245E+03  0.00000000000E+00 0.  1.
         12    1    3    3    0    0  0.97470928267E+01  0.35981095463E+02 -0.11782463049E+03  0.12358110130E+03  0.00000000000E+00 0. -1.
        -11    1    4    4    0    0  0.10949918576E+02 -0.24649682898E+02 -0.26400265838E+02  0.37742305442E+02  0.00000000000E+00 0.  1.
         11    1    4    4    0    0 -0.55014854196E+02 -0.31422994272E+02 -0.36794343519E+03  0.37335828670E+03  0.00000000000E+00 0. -1.
         -2    1    1    2    0  502 -0.45389518746E+02  0.16233628254E+02 -0.15844628422E+02  0.50742401875E+02  0.00000000000E+00 0.  1.
<scales pt_clust_5="13000.00000" pt_clust_6="13000.00000" pt_clust_7="13000.00000" pt_clust_8="13000.00000" pt_clust_9="48.20520"></scales>
<clustering>
<clus scale="   48.205">  2  9  1 -1</clus>
<clus scale="   80.220">  5  6 -1 -1</clus>
<clus scale="   91.711">  7  8 -1 -1</clus>
<clus scale="  117.675">  1  5  2 -1</clus>
<clus scale="   48.205">  2  5  1 -1</clus>
</clustering>
</event>
<event>
 9    2  0.9254368E-005  0.1064128E+03  0.7546771E-02  0.1270541E+00
         21   -1    0    0  501  502  0.00000000000E+00  0.00000000000E+00  0.82341530943E+02  0.82341530943E+02  0.00000000000E+00 0.  1.
         -3   -1    0    0    0  501 -0.00000000000E+00 -0.00000000000E+00 -0.16787059473E+03  0.16787059473E+03  0.00000000000E+00 0.  1.
         23    2    1    2    0    0  0.67934766947E+02  0.70248712688E+00 -0.62019590547E+02  0.12830638717E+03  0.89445365051E+02 0.  0.
         24    2    1    2    0    0 -0.44499035265E+02 -0.99540084976E+01 -0.12705097419E+02  0.94491167486E+02  0.81779672339E+02 0.  0.
        -13    1    4    4    0    0 -0.77412064880E+01  0.29742897801E+02  0.14445135026E+02  0.33959213380E+02  0.00000000000E+00 0.  1.
         14    1    4    4    0    0 -0.36757828777E+02 -0.39696906299E+02 -0.27150232445E+02  0.60531954106E+02  0.00000000000E+00 0. -1.
        -13    1    3    3    0    0  0.52536270468E+02  0.32861890861E+02 -0.68168272584E+02  0.92124247474E+02  0.00000000000E+00 0.  1.
         13    1    3    3    0    0  0.15398496479E+02 -0.32159403734E+02  0.61486820364E+01  0.36182139698E+02  0.00000000000E+00 0. -1.
         -4    1    1    2    0  502 -0.23435731683E+02  0.92515213707E+01 -0.10804375823E+02  0.27414571018E+02  0.00000000000E+00 0.  1.
<scales pt_clust_5="13000.00000" pt_clust_6="13000.00000" pt_clust_7="13000.00000" pt_clust_8="13000.00000" pt_clust_9="25.19573"></scales>
<clustering>
<clus scale="   25.196">  1  9  2 -1</clus>
<clus scale="   81.780">  5  6 -1 -1</clus>
<clus scale="   89.445">  7  8 -1 -1</clus>
<clus scale="  100.056">  1  5  2 -1</clus>
<clus scale="   25.196">  1  5  2 -1</clus>
</clustering>
</event>
<event>
 9    2  0.9254368E-005  0.1537700E+03  0.7546771E-02  0.1197688E+00
         21   -1    0    0  501  502  0.00000000000E+00  0.00000000000E+00  0.51048138215E+03  0.51048138215E+03  0.00000000000E+00 0.  1.
          2   -1    0    0  502    0 -0.00000000000E+00 -0.00000000000E+00 -0.79120162117E+02  0.79120162117E+02  0.00000000000E+00 0. -1.
         23    2    1    2    0    0  0.19927028944E+02  0.13151016766E+03  0.70214234171E+02  0.17603687541E+03  0.91470936065E+02 0.  0.
         24    2    1    2    0    0  0.24461297801E+02 -0.10985444843E+03  0.18920938807E+03  0.23467411220E+03  0.81273559494E+02 0.  0.
        -13    1    4    4    0    0  0.10859595648E+02 -0.59032335577E+02  0.16719594011E+03  0.17764354717E+03  0.00000000000E+00 0.  1.
         14    1    4    4    0    0  0.13601702153E+02 -0.50822112858E+02  0.22013447958E+02  0.57030565031E+02  0.00000000000E+00 0. -1.
        -11    1    3    3    0    0 -0.20629309842E+02  0.45503291507E+01 -0.66918700738E+01  0.22159761845E+02  0.00000000000E+00 0. -1.
         11    1    3    3    0    0  0.40556338786E+02  0.12695983851E+03  0.76906104245E+02  0.15387711357E+03  0.00000000000E+00 0.  1.
          1    1    1    2  501    0 -0.44388326745E+02 -0.21655719221E+02  0.17193759779E+03  0.17889055666E+03  0.00000000000E+00 0. -1.
<scales pt_clust_5="13000.00000" pt_clust_6="13000.00000" pt_clust_7="13000.00000" pt_clust_8="13000.00000" pt_clust_9="49.38921"></scales>
<clustering>
<clus scale="   49.389">  1  9  2 -1</clus>
<clus scale="   81.274">  5  6 -1 -1</clus>
<clus scale="   91.471">  7  8 -1 -1</clus>
<clus scale="  147.931">  1  5  2 -1</clus>
<clus scale="   49.389">  1  5  2 -1</clus>
</clustering>
</event>
<event>
 9    2  0.9254368E-005  0.1501167E+03  0.7546771E-02  0.1201733E+00
         21   -1    0    0  501  502  0.00000000000E+00  0.00000000000E+00  0.11258666015E+03  0.11258666015E+03  0.00000000000E+00 0. -1.
          2   -1    0    0  502    0 -0.00000000000E+00 -0.00000000000E+00 -0.53816658815E+03  0.53816658815E+03  0.00000000000E+00 0. -1.
         24    2    1    2    0    0  0.67590495332E+02 -0.10966467174E+03 -0.37465873036E+03  0.40439919585E+03  0.81084709296E+02 0.  0.
         23    2    1    2    0    0 -0.98698082503E+02  0.52689869488E+02 -0.91601427575E+02  0.16974666913E+03  0.88913307841E+02 0.  0.
        -13    1    3    3    0    0  0.26802027662E+02  0.77597716631E+01 -0.70062079233E+02  0.75413909125E+02  0.00000000000E+00 0.  1.
         14    1    3    3    0    0  0.40788467670E+02 -0.11742444340E+03 -0.30459665113E+03  0.32898528673E+03  0.00000000000E+00 0. -1.
        -11    1    4    4    0    0 -0.17612632703E+02  0.43266958699E+02  0.44625033491E+00  0.46716524755E+02  0.00000000000E+00 0.  1.
         11    1    4    4    0    0 -0.81085449800E+02  0.94229107891E+01 -0.92047677910E+02  0.12303014438E+03  0.00000000000E+00 0. -1.
          1    1    1    2  501    0  0.31107587171E+02  0.56974802251E+02  0.40680229932E+02  0.76607383316E+02  0.00000000000E+00 0. -1.
<scales pt_clust_5="13000.00000" pt_clust_6="13000.00000" pt_clust_7="13000.00000" pt_clust_8="13000.00000" pt_clust_9="64.91387"></scales>
<clustering>
<clus scale="   64.914">  1  9  2 -1</clus>
<clus scale="   81.085">  5  6 -1 -1</clus>
<clus scale="   88.913">  7  8 -1 -1</clus>
<clus scale="  145.617">  2  5  1 -1</clus>
<clus scale="   64.914">  1  5  2 -1</clus>
</clustering>
</event>
<event>
 9    2  0.9254368E-005  0.9325943E+02  0.7546771E-02  0.1297236E+00
         21   -1    0    0  501  502  0.00000000000E+00  0.00000000000E+00  0.19674723625E+03  0.19674723625E+03  0.00000000000E+00 0.  1.
         -1   -1    0    0    0  501 -0.00000000000E+00 -0.00000000000E+00 -0.18458487733E+03  0.18458487733E+03  0.00000000000E+00 0.  1.
         23    2    1    2    0    0  0.56398891796E+01  0.29395532978E+02 -0.10615304658E+03  0.14297798061E+03  0.90985317117E+02 0.  0.
         24    2    1    2    0    0  0.59456199268E+01  0.64981672187E+02  0.26318230607E+02  0.10604857351E+03  0.79345337383E+02 0.  0.
        -13    1    4    4    0    0 -0.14375301707E+02  0.77473666527E+02  0.21974521823E+02  0.81802798936E+02  0.00000000000E+00 0.  1.
         14    1    4    4    0    0  0.20320921633E+02 -0.12491994341E+02  0.43437087835E+01  0.24245774573E+02  0.00000000000E+00 0. -1.
        -13    1    3    3    0    0 -0.41725016275E+02  0.23832509402E+02 -0.51209545765E+02  0.70223806967E+02  0.00000000000E+00 0.  1.
         13    1    3    3    0    0  0.47364905455E+02  0.55630235768E+01 -0.54943500816E+02  0.72754173639E+02  0.00000000000E+00 0. -1.
         -2    1    1    2    0  502 -0.11585509106E+02 -0.94377205165E+02  0.91997174891E+02  0.13230555946E+03  0.00000000000E+00 0.  1.
<scales pt_clust_5="13000.00000" pt_clust_6="13000.00000" pt_clust_7="13000.00000" pt_clust_8="13000.00000" pt_clust_9="95.08565"></scales>
<clustering>
<clus scale="   79.345">  5  6 -1 -1</clus>
<clus scale="   90.985">  7  8 -1 -1</clus>
<clus scale="   95.086">  1  9  2 -1</clus>
<clus scale="   95.086">  1  5  2 -1</clus>
<clus scale="   93.259">  1  5  2 -1</clus>
</clustering>
</event>
<event>
 9    2  0.9254368E-005  0.2433127E+03  0.7546771E-02  0.1118884E+00
         21   -1    0    0  501  502  0.00000000000E+00  0.00000000000E+00  0.11386907005E+03  0.11386907005E+03  0.00000000000E+00 0. -1.
          2   -1    0    0  502    0 -0.00000000000E+00 -0.00000000000E+00 -0.10496749119E+04  0.10496749119E+04  0.00000000000E+00 0. -1.
         24    2    1    2    0    0 -0.42619014051E+02  0.19639108102E+03 -0.31516900195E+03  0.38214797831E+03  0.79496795373E+02 0.  0.
         23    2    1    2    0    0  0.13212765742E+03 -0.24127789454E+03 -0.21393179970E+03  0.36254565686E+03  0.99998990678E+02 0.  0.
        -13    1    3    3    0    0 -0.56926260094E+02  0.13299003647E+03 -0.25703492740E+03  0.29494728816E+03  0.00000000000E+00 0.  1.
         14    1    3    3    0    0  0.14307246043E+02  0.63401044549E+02 -0.58134074548E+02  0.87200690151E+02  0.00000000000E+00 0. -1.
        -13    1    4    4    0    0  0.83304592858E+02 -0.22294267526E+03 -0.15585213952E+03  0.28448722474E+03  0.00000000000E+00 0. -1.
         13    1    4    4    0    0  0.48823064561E+02 -0.18335219277E+02 -0.58079660184E+02  0.78058432127E+02  0.00000000000E+00 0.  1.
          1    1    1    2  501    0 -0.89508643367E+02  0.44886813521E+02 -0.40670504021E+03  0.41885034678E+03  0.00000000000E+00 0. -1.
<scales pt_clust_5="13000.00000" pt_clust_6="13000.00000" pt_clust_7="13000.00000" pt_clust_8="13000.00000" pt_clust_9="100.13308"></scales>
<clustering>
<clus scale="   79.497">  5  6 -1 -1</clus>
<clus scale="   99.999">  7  8 -1 -1</clus>
<clus scale="  100.133">  1  9  2 -1</clus>
<clus scale="  235.629">  2  5  1 -1</clus>
<clus scale="  100.133">  1  5  2 -1</clus>
</clustering>
</event>
<event>
 9    2  0.9254368E-005  0.9608528E+02  0.7546771E-02  0.1291956E+00
          2   -1    0    0  502    0 -0.00000000000E+00  0.00000000000E+00  0.66766367523E+03  0.66766367523E+03  0.00000000000E+00 0. -1.
         21   -1    0    0  501  502  0.00000000000E+00 -0.00000000000E+00 -0.54776397567E+02  0.54776397567E+02  0.00000000000E+00 0. -1.
         24    2    1    2    0    0  0.23584929789E+02 -0.28083254993E+02  0.47380163141E+03  0.48204055730E+03  0.80809620886E+02 0.  0.
         23    2    1    2    0    0 -0.47451463284E+02  0.30991548556E+02  0.17122580195E+03  0.20026151355E+03  0.87030345899E+02 0.  0.
        -11    1    3    3    0    0  0.52589157785E+02 -0.88145008530E+01  0.25864609149E+03  0.26408543236E+03  0.00000000000E+00 0.  1.
         12    1    3    3    0    0 -0.29004227995E+02 -0.19268754140E+02  0.21515553992E+03  0.21795512494E+03  0.00000000000E+00 0. -1.
        -13    1    4    4    0    0  0.75891902260E+01 -0.22462532908E+02  0.65270938617E+02  0.69443909891E+02  0.00000000000E+00 0. -1.
         13    1    4    4    0    0 -0.55040653510E+02  0.53454081464E+02  0.10595486333E+03  0.13081760366E+03  0.00000000000E+00 0.  1.
          1    1    1    2  501    0  0.23866533495E+02 -0.29082935635E+01 -0.32140155694E+02  0.40138001950E+02  0.00000000000E+00 0. -1.
<scales pt_clust_5="13000.00000" pt_clust_6="13000.00000" pt_clust_7="13000.00000" pt_clust_8="13000.00000" pt_clust_9="24.04308"></scales>
<clustering>
<clus scale="   24.043">  2  9  1 -1</clus>
<clus scale="   80.810">  5  6 -1 -1</clus>
<clus scale="   87.030">  7  8 -1 -1</clus>
<clus scale="   90.489">  1  5  2 -1</clus>
<clus scale="   24.043">  2  5  1 -1</clus>
</clustering>
</event>
<event>
 9    2  0.9254368E-005  0.1728351E+03  0.7546771E-02  0.1185207E+00
         21   -1    0    0  501  502  0.00000000000E+00  0.00000000000E+00  0.42741325495E+02  0.42741325495E+02  0.00000000000E+00 0. -1.
          2   -1    0    0  502    0 -0.00000000000E+00 -0.00000000000E+00 -0.13638363471E+04  0.13638363471E+04  0.00000000000E+00 0. -1.
         24    2    1    2    0    0 -0.42240189738E+02  0.10170779055E+03 -0.48439103229E+03  0.50343711763E+03  0.81765218508E+02 0.  0.
         23    2    1    2    0    0  0.14519696797E+03  0.18332380185E+02 -0.53112733734E+03  0.55906668062E+03  0.95084537351E+02 0.  0.
        -11    1    3    3    0    0 -0.42127265921E+02  0.74444682596E+01 -0.16119735885E+03  0.16677744194E+03  0.00000000000E+00 0.  1.
         12    1    3    3    0    0 -0.11292381673E+00  0.94263322287E+02 -0.32319367344E+03  0.33665967568E+03  0.00000000000E+00 0. -1.
        -13    1    4    4    0    0  0.44658007310E+02  0.41215647723E+02 -0.29832811834E+03  0.30445481344E+03  0.00000000000E+00 0.  1.
         13    1    4    4    0    0  0.10053896066E+03 -0.22883267538E+02 -0.23279921900E+03  0.25461186718E+03  0.00000000000E+00 0. -1.
          1    1    1    2  501    0 -0.10295677824E+03 -0.12004017073E+03 -0.30557665202E+03  0.34407387438E+03  0.00000000000E+00 0. -1.
<scales pt_clust_5="13000.00000" pt_clust_6="13000.00000" pt_clust_7="13000.00000" pt_clust_8="13000.00000" pt_clust_9="144.32920"></scales>
<clustering>
<clus scale="   81.765">  5  6 -1 -1</clus>
<clus scale="   95.085">  7  8 -1 -1</clus>
<clus scale="  137.165">  2  5  1 -1</clus>
<clus scale="  144.329">  1  9  2 -1</clus>
<clus scale="  144.329">  1  5  2 -1</clus>
</clustering>
</event>
<event>
 9    2  0.9254368E-005  0.9989157E+02  0.7546771E-02  0.1286803E+00
         -1   -1    0    0    0  501 -0.00000000000E+00  0.00000000000E+00  0.51070448799E+02  0.51070448799E+02  0.00000000000E+00 0.  1.
         21   -1    0    0  501  502  0.00000000000E+00 -0.00000000000E+00 -0.30061584957E+03  0.30061584957E+03  0.00000000000E+00 0. -1.
         23    2    1    2    0    0 -0.39409097248E+02 -0.33267301386E+02 -0.61772018994E+02  0.12224940779E+03  0.92029044801E+02 0.  0.
         24    2    1    2    0    0  0.24467489762E+02 -0.69477924047E+01 -0.15223116979E+03  0.17372554312E+03  0.79745253165E+02 0.  0.
        -13    1    4    4    0    0  0.24841752537E+02  0.33833247130E+02 -0.64160621519E+02  0.76670637366E+02  0.00000000000E+00 0.  1.
         14    1    4    4    0    0 -0.37426277579E+00 -0.40781039535E+02 -0.88070548271E+02  0.97054905754E+02  0.00000000000E+00 0. -1.
        -13    1    3    3    0    0  0.21428785957E+01  0.29280405823E+02 -0.98983504913E+01  0.30982437546E+02  0.00000000000E+00 0.  1.
         13    1    3    3    0    0 -0.41551975843E+02 -0.62547707209E+02 -0.51873668503E+02  0.91266970244E+02  0.00000000000E+00 0. -1.
         -2    1    1    2    0  502  0.14941607486E+02  0.40215093791E+02 -0.35542211988E+02  0.55711347461E+02  0.00000000000E+00 0.  1.
<scales pt_clust_5="13000.00000" pt_clust_6="13000.00000" pt_clust_7="13000.00000" pt_clust_8="13000.00000" pt_clust_9="42.90113"></scales>
<clustering>
<clus scale="   42.901">  2  9  1 -1</clus>
<clus scale="   79.745">  5  6 -1 -1</clus>
<clus scale="   88.703">  2  5  1 -1</clus>
<clus scale="   92.029">  7  8 -1 -1</clus>
<clus scale="   42.901">  2  5  1 -1</clus>
</clustering>
</event>
<event>
 9    2  0.9254368E-005  0.4103736E+03  0.7546771E-02  0.1086067E+00
         21   -1    0    0  501  502  0.00000000000E+00  0.00000000000E+00  0.57364584641E+03  0.57364584641E+03  0.00000000000E+00 0.  1.
          2   -1    0    0  502    0 -0.00000000000E+00 -0.00000000000E+00 -0.69020277486E+03  0.69020277486E+03  0.00000000000E+00 0. -1.
         23    2    1    2    0    0 -0.98284166586E+01  0.42370683940E+02 -0.15373409267E+02  0.11567728559E+03  0.10608025291E+03 0.  0.
         24    2    1    2    0    0  0.17086248000E+03 -0.37106441027E+03  0.36606075460E+03  0.55463216539E+03  0.82058388858E+02 0.  0.
        -13    1    4    4    0    0  0.91166586614E+02 -0.15127552235E+03  0.20572580494E+03  0.27114338826E+03  0.00000000000E+00 0.  1.
         14    1    4    4    0    0  0.79695893384E+02 -0.21978888792E+03  0.16033494966E+03  0.28348877713E+03  0.00000000000E+00 0. -1.
        -13    1    3    3    0    0  0.32265883730E+02  0.54390689126E+02  0.11545381897E+02  0.64286313937E+02  0.00000000000E+00 0.  1.
         13    1    3    3    0    0 -0.42094300389E+02 -0.12020005185E+02 -0.26918791164E+02  0.51390971654E+02  0.00000000000E+00 0. -1.
          1    1    1    2  501    0 -0.16103406334E+03  0.32869372633E+03 -0.46724427379E+03  0.59353917029E+03  0.00000000000E+00 0. -1.
<scales pt_clust_5="13000.00000" pt_clust_6="13000.00000" pt_clust_7="13000.00000" pt_clust_8="13000.00000" pt_clust_9="402.08585"></scales>
<clustering>
<clus scale="   82.058">  5  6 -1 -1</clus>
<clus scale="  106.080">  7  8 -1 -1</clus>
<clus scale="  114.651">  2  7  1 -1</clus>
<clus scale="  402.086">  1  9  2 -1</clus>
<clus scale="  402.086">  1  5  2 -1</clus>
</clustering>
</event>
<event>
 9    2  0.9254368E-005  0.1141535E+03  0.7546771E-02  0.1257505E+00
         21   -1    0    0  501  502  0.00000000000E+00  0.00000000000E+00  0.13071095441E+03  0.13071095441E+03  0.00000000000E+00 0. -1.
          2   -1    0    0  502    0 -0.00000000000E+00 -0.00000000000E+00 -0.23944561656E+03  0.23944561656E+03  0.00000000000E+00 0. -1.
         23    2    1    2    0    0 -0.17727066089E+02  0.63074102298E+02 -0.12128763123E+03  0.16540220940E+03  0.91403556449E+02 0.  0.
         24    2    1    2    0    0  0.73445171879E+01 -0.83065158674E+02  0.75763885594E+02  0.13764952104E+03  0.79078832593E+02 0.  0.
        -11    1    4    4    0    0 -0.32653506359E+02 -0.27985226654E+02  0.12662952632E+02  0.44830511460E+02  0.00000000000E+00 0.  1.
         12    1    4    4    0    0  0.39998023547E+02 -0.55079932019E+02  0.63100932962E+02  0.92819009581E+02  0.00000000000E+00 0. -1.
        -11    1    3    3    0    0 -0.41644576020E+02  0.74955511577E+02 -0.93230152511E+02  0.12666673109E+03  0.00000000000E+00 0.  1.
         11    1    3    3    0    0  0.23917509930E+02 -0.11881409279E+02 -0.28057478719E+02  0.38735478308E+02  0.00000000000E+00 0. -1.
          1    1    1    2  501    0  0.10382548901E+02  0.19991056376E+02 -0.63210916513E+02  0.67104840534E+02  0.00000000000E+00 0. -1.
<scales pt_clust_5="13000.00000" pt_clust_6="13000.00000" pt_clust_7="13000.00000" pt_clust_8="13000.00000" pt_clust_9="22.52643"></scales>
<clustering>
<clus scale="   22.526">  1  9  2 -1</clus>
<clus scale="   79.079">  5  6 -1 -1</clus>
<clus scale="   91.404">  7  8 -1 -1</clus>
<clus scale="  104.546">  1  5  2 -1</clus>
<clus scale="   22.526">  1  5  2 -1</clus>
</clustering>
</event>
<event>
 9    2  0.9254368E-005  0.9741400E+02  0.7546771E-02  0.1290893E+00
         21   -1    0    0  501  502  0.00000000000E+00  0.00000000000E+00  0.45651457454E+02  0.45651457454E+02  0.00000000000E+00 0. -1.
          2   -1    0    0  502    0 -0.00000000000E+00 -0.00000000000E+00 -0.10521153019E+04  0.10521153019E+04  0.00000000000E+00 0. -1.
         24    2    1    2    0    0 -0.23240943669E+02  0.23163085996E+02 -0.94537812404E+03  0.94950471200E+03  0.82114132011E+02 0.  0.
         23    2    1    2    0    0  0.12891023528E+02 -0.40670871093E+02 -0.73045639134E+02  0.12466791580E+03  0.91575791506E+02 0.  0.
        -13    1    3    3    0    0 -0.36770644968E+02  0.10625429583E+00 -0.18298234801E+03  0.18664037962E+03  0.00000000000E+00 0.  1.
         14    1    3    3    0    0  0.13529701299E+02  0.23056831700E+02 -0.76239577603E+03  0.76286433238E+03  0.00000000000E+00 0. -1.
        -11    1    4    4    0    0 -0.16426108925E+02 -0.49853762287E+02 -0.77522975591E+02  0.93621719772E+02  0.00000000000E+00 0. -1.
         11    1    4    4    0    0  0.29317132453E+02  0.91828911943E+01  0.44773364572E+01  0.31046196026E+02  0.00000000000E+00 0.  1.
          1    1    1    2  501    0  0.10349920141E+02  0.17507785097E+02  0.11959918758E+02  0.23594131529E+02  0.00000000000E+00 0. -1.
<scales pt_clust_5="13000.00000" pt_clust_6="13000.00000" pt_clust_7="13000.00000" pt_clust_8="13000.00000" pt_clust_9="20.33822"></scales>
<clustering>
<clus scale="   20.338">  1  9  2 -1</clus>
<clus scale="   82.114">  5  6 -1 -1</clus>
<clus scale="   88.578">  2  5  1 -1</clus>
<clus scale="   91.576">  7  8 -1 -1</clus>
<clus scale="   20.338">  1  5  2 -1</clus>
</clustering>
</event>
<event>
 9    2  0.9254368E-005  0.1729163E+03  0.7546771E-02  0.1190741E+00
         21   -1    0    0  501  502  0.00000000000E+00  0.00000000000E+00  0.45805055694E+03  0.45805055694E+03  0.00000000000E+00 0.  1.
          2   -1    0    0  502    0 -0.00000000000E+00 -0.00000000000E+00 -0.37666708305E+03  0.37666708305E+03  0.00000000000E+00 0. -1.
         23    2    1    2    0    0 -0.39970640680E+02 -0.66751133202E+02 -0.41062495833E+02  0.12792662722E+03  0.92874794690E+02 0.  0.
         24    2    1    2    0    0 -0.14357287803E+03 -0.36636123323E+02  0.35471873842E+03  0.39321839414E+03  0.82703961604E+02 0.  0.
        -11    1    4    4    0    0 -0.10774736940E+03 -0.55964631917E+02  0.20687039772E+03  0.23986849958E+03  0.00000000000E+00 0.  1.
         12    1    4    4    0    0 -0.35825508626E+02  0.19328508595E+02  0.14784834070E+03  0.15334989455E+03  0.00000000000E+00 0. -1.
        -13    1    3    3    0    0 -0.63445786392E+02 -0.59487306202E+02 -0.51668802000E+02  0.10116211005E+03  0.00000000000E+00 0.  1.
         13    1    3    3    0    0  0.23475145712E+02 -0.72638270001E+01  0.10606306167E+02  0.26764517171E+02  0.00000000000E+00 0. -1.
          1    1    1    2  501    0  0.18354351871E+03  0.10338725652E+03 -0.23227276870E+03  0.31357261863E+03  0.00000000000E+00 0. -1.
<scales pt_clust_5="13000.00000" pt_clust_6="13000.00000" pt_clust_7="13000.00000" pt_clust_8="13000.00000" pt_clust_9="151.85556"></scales>
<clustering>
<clus scale="   82.704">  5  6 -1 -1</clus>
<clus scale="   92.875">  7  8 -1 -1</clus>
<clus scale="  121.157">  2  7  1 -1</clus>
<clus scale="  151.856">  1  9  2 -1</clus>
<clus scale="  151.856">  1  5  2 -1</clus>
</clustering>
</event>
<event>
 9    2  0.9254368E-005  0.1385278E+03  0.7546771E-02  0.1217591E+00
          2   -1    0    0  502    0 -0.00000000000E+00  0.00000000000E+00  0.36080111426E+03  0.36080111426E+03  0.00000000000E+00 0. -1.
         21   -1    0    0  501  502  0.00000000000E+00 -0.00000000000E+00 -0.94625735877E+02  0.94625735877E+02  0.00000000000E+00 0.  1.
         23    2    1    2    0    0 -0.93484100399E+02  0.29898592744E+02  0.18670694690E+03  0.22967195418E+03  0.90865392989E+02 0.  0.
         24    2    1    2    0    0  0.11969610001E+03 -0.38174168602E+02  0.83677261404E+01  0.14952587012E+03  0.80644550271E+02 0.  0.
        -13    1    4    4    0    0  0.13117747170E+03 -0.35070415646E+02  0.15019745886E+01  0.13579292715E+03  0.00000000000E+00 0.  1.
         14    1    4    4    0    0 -0.11481371692E+02 -0.31037529558E+01  0.68657515519E+01  0.13732942973E+02  0.00000000000E+00 0. -1.
        -13    1    3    3    0    0 -0.80936567032E+02  0.59846853529E+02  0.15024300567E+03  0.18084616256E+03  0.00000000000E+00 0. -1.
         13    1    3    3    0    0 -0.12547533367E+02 -0.29948260786E+02  0.36463941227E+02  0.48825791622E+02  0.00000000000E+00 0.  1.
          1    1    1    2  501    0 -0.26211999609E+02  0.82755758580E+01  0.71100705344E+02  0.76229025835E+02  0.00000000000E+00 0. -1.
<scales pt_clust_5="13000.00000" pt_clust_6="13000.00000" pt_clust_7="13000.00000" pt_clust_8="13000.00000" pt_clust_9="27.48736"></scales>
<clustering>
<clus scale="   27.487">  2  9  1 -1</clus>
<clus scale="   80.645">  5  6 -1 -1</clus>
<clus scale="   90.865">  7  8 -1 -1</clus>
<clus scale="  132.049">  2  5  1 -1</clus>
<clus scale="   27.487">  2  5  1 -1</clus>
</clustering>
</event>
<event>
 9    2  0.9254368E-005  0.1103317E+03  0.7546771E-02  0.1261908E+00
         21   -1    0    0  501  502  0.00000000000E+00  0.00000000000E+00  0.30294115075E+03  0.30294115075E+03  0.00000000000E+00 0.  1.
         -1   -1    0    0    0  501 -0.00000000000E+00 -0.00000000000E+00 -0.16165599307E+03  0.16165599307E+03  0.00000000000E+00 0.  1.
         23    2    1    2    0    0  0.45918724584E+02 -0.25524163254E+02  0.13451026188E+02  0.10545254389E+03  0.90439464445E+02 0.  0.
         24    2    1    2    0    0 -0.10424274863E+03  0.26654277856E+02  0.21448833035E+03  0.25468446821E+03  0.85334244721E+02 0.  0.
        -13    1    4    4    0    0 -0.11195512431E+03  0.26345185015E+01  0.17896479838E+03  0.21111439934E+03  0.00000000000E+00 0.  1.
         14    1    4    4    0    0  0.77123756853E+01  0.24019759355E+02  0.35523531970E+02  0.43570068875E+02  0.00000000000E+00 0. -1.
        -13    1    3    3    0    0 -0.26634078900E+02  0.17535593865E+01  0.74367463761E+01  0.27708380069E+02  0.00000000000E+00 0. -1.
         13    1    3    3    0    0  0.72552803484E+02 -0.27277722640E+02  0.60142798115E+01  0.77744163816E+02  0.00000000000E+00 0.  1.
         -2    1    1    2    0  502  0.58324024044E+02 -0.11301146022E+01 -0.86654198861E+02  0.10446013172E+03  0.00000000000E+00 0.  1.
<scales pt_clust_5="13000.00000" pt_clust_6="13000.00000" pt_clust_7="13000.00000" pt_clust_8="13000.00000" pt_clust_9="58.33500"></scales>
<clustering>
<clus scale="   58.335">  1  9  2 -1</clus>
<clus scale="   85.334">  5  6 -1 -1</clus>
<clus scale="   90.439">  7  8 -1 -1</clus>
<clus scale="  106.187">  1  5  2 -1</clus>
<clus scale="   58.335">  1  5  2 -1</clus>
</clustering>
</event>
<event>
 9    2  0.9254368E-005  0.1246085E+03  0.7546771E-02  0.1237967E+00
         21   -1    0    0  501  502  0.00000000000E+00  0.00000000000E+00  0.17848653039E+03  0.17848653039E+03  0.00000000000E+00 0. -1.
          2   -1    0    0  502    0 -0.00000000000E+00 -0.00000000000E+00 -0.22859018016E+03  0.22859018016E+03  0.00000000000E+00 0. -1.
         24    2    1    2    0    0 -0.85558066527E+02  0.28541105460E+02 -0.12777562248E+03  0.17698381127E+03  0.82836479303E+02 0.  0.
         23    2    1    2    0    0  0.79753073207E+02  0.67583357894E+01 -0.23041874538E+02  0.12321433488E+03  0.90799870866E+02 0.  0.
        -13    1    3    3    0    0 -0.21710352911E+02  0.32164935325E+02 -0.57685419646E+01  0.39232621176E+02  0.00000000000E+00 0.  1.
         14    1    3    3    0    0 -0.63847713617E+02 -0.36238298648E+01 -0.12200708051E+03  0.13775119009E+03  0.00000000000E+00 0. -1.
        -13    1    4    4    0    0  0.58941030564E+02  0.39630344662E+02  0.10560068162E+02  0.71806158103E+02  0.00000000000E+00 0. -1.
         13    1    4    4    0    0  0.20812042643E+02 -0.32872008873E+02 -0.33601942701E+02  0.51408176777E+02  0.00000000000E+00 0.  1.
          1    1    1    2  501    0  0.58049933207E+01 -0.35299441249E+02  0.10071384724E+03  0.10687856439E+03  0.00000000000E+00 0. -1.
<scales pt_clust_5="13000.00000" pt_clust_6="13000.00000" pt_clust_7="13000.00000" pt_clust_8="13000.00000" pt_clust_9="35.77357"></scales>
<clustering>
<clus scale="   35.774">  1  9  2 -1</clus>
<clus scale="   82.836">  5  6 -1 -1</clus>
<clus scale="   90.800">  7  8 -1 -1</clus>
<clus scale="  118.931">  2  5  1 -1</clus>
<clus scale="   35.774">  1  5  2 -1</clus>
</clustering>
</event>
<event>
 9    2  0.9254368E-005  0.1080696E+03  0.7546771E-02  0.1273703E+00
          2   -1    0    0  502    0 -0.00000000000E+00  0.00000000000E+00  0.61881886172E+03  0.61881886172E+03  0.00000000000E+00 0. -1.
         21   -1    0    0  501  502  0.00000000000E+00 -0.00000000000E+00 -0.36844772482E+02  0.36844772482E+02  0.00000000000E+00 0. -1.
         24    2    1    2    0    0  0.35287924724E+02  0.26131933943E+01  0.39939281710E+03  0.40905392992E+03  0.80984126988E+02 0.  0.
         23    2    1    2    0    0 -0.47301666667E+02 -0.29063719184E+02  0.18455513796E+03  0.21749172947E+03  0.10079635907E+03 0.  0.
        -13    1    3    3    0    0  0.17149575318E+02  0.31404244646E+02  0.77430750804E+02  0.85298626516E+02  0.00000000000E+00 0.  1.
         14    1    3    3    0    0  0.18138349406E+02 -0.28791051252E+02  0.32196206630E+03  0.32375530341E+03  0.00000000000E+00 0. -1.
        -13    1    4    4    0    0 -0.12556657869E+02  0.35823615442E+02  0.89907181026E+02  0.97592531888E+02  0.00000000000E+00 0.  1.
         13    1    4    4    0    0 -0.34745008797E+02 -0.64887334626E+02  0.94647956929E+02  0.11989919759E+03  0.00000000000E+00 0. -1.
          1    1    1    2  501    0  0.12013741943E+02  0.26450525790E+02 -0.19738658232E+01  0.29117974798E+02  0.00000000000E+00 0. -1.
<scales pt_clust_5="13000.00000" pt_clust_6="13000.00000" pt_clust_7="13000.00000" pt_clust_8="13000.00000" pt_clust_9="29.05099"></scales>
<clustering>
<clus scale="   29.051">  2  9  1 -1</clus>
<clus scale="   80.984">  5  6 -1 -1</clus>
<clus scale="   89.875">  1  5  2 -1</clus>
<clus scale="  100.796">  7  8 -1 -1</clus>
<clus scale="   29.051">  2  5  1 -1</clus>
</clustering>
</event>
<event>
 9    2  0.9254368E-005  0.1999038E+03  0.7546771E-02  0.1182299E+00
          2   -1    0    0  502    0 -0.00000000000E+00  0.00000000000E+00  0.24306441012E+03  0.24306441012E+03  0.00000000000E+00 0. -1.
         21   -1    0    0  501  502  0.00000000000E+00 -0.00000000000E+00 -0.27361322604E+03  0.27361322604E+03  0.00000000000E+00 0.  1.
         23    2    1    2    0    0  0.23867130346E+02 -0.14408198955E+02 -0.77564461155E+01  0.94915126453E+02  0.90396253601E+02 0.  0.
         24    2    1    2    0    0 -0.18237159355E+03 -0.37305450622E+02 -0.11053624309E+03  0.23335615709E+03  0.87096155095E+02 0.  0.
        -13    1    4    4    0    0 -0.72991192464E+02 -0.32894929166E+02 -0.92626558493E+02  0.12243149056E+03  0.00000000000E+00 0.  1.
         14    1    4    4    0    0 -0.10938040109E+03 -0.44105214568E+01 -0.17909684597E+02  0.11092466653E+03  0.00000000000E+00 0. -1.
        -13    1    3    3    0    0 -0.12528511250E+02 -0.19957969310E+02  0.32640930578E+02  0.40258098342E+02  0.00000000000E+00 0. -1.
         13    1    3    3    0    0  0.36395641596E+02  0.55497703543E+01 -0.40397376694E+02  0.54657028111E+02  0.00000000000E+00 0.  1.
          1    1    1    2  501    0  0.15850446321E+03  0.51713649578E+02  0.87743873288E+02  0.18840635262E+03  0.00000000000E+00 0. -1.
<scales pt_clust_5="13000.00000" pt_clust_6="13000.00000" pt_clust_7="13000.00000" pt_clust_8="13000.00000" pt_clust_9="179.93286"></scales>
<clustering>
<clus scale="   87.096">  5  6 -1 -1</clus>
<clus scale="   90.396">  7  8 -1 -1</clus>
<clus scale="   94.598">  1  7  2 -1</clus>
<clus scale="  179.933">  2  9  1 -1</clus>
<clus scale="  179.933">  2  5  1 -1</clus>
</clustering>
</event>
<event>
 9    2  0.1221630E-004  0.1107961E+03  0.7546771E-02  0.1263478E+00
         -1   -1    0    0    0  501 -0.00000000000E+00  0.00000000000E+00  0.61666532697E+03  0.61666532697E+03  0.00000000000E+00 0.  1.
         21   -1    0    0  501  502  0.00000000000E+00 -0.00000000000E+00 -0.79583249301E+02  0.79583249301E+02  0.00000000000E+00 0. -1.
         23    2    1    2    0    0 -0.59273543319E+02  0.23492314382E+02  0.54749647743E+03  0.55880115535E+03  0.91875440911E+02 0.  0.
         24    2    1    2    0    0  0.28310573352E+02 -0.47573834781E+02 -0.77851010269E+01  0.98134085454E+02  0.80653162434E+02 0.  0.
        -13    1    4    4    0    0  0.24545579712E+02  0.13800891401E+02  0.15784445728E+02  0.32281555319E+02  0.00000000000E+00 0.  1.
         14    1    4    4    0    0  0.37649936401E+01 -0.61374726182E+02 -0.23569546755E+02  0.65852530136E+02  0.00000000000E+00 0. -1.
        -11    1    3    3    0    0 -0.45571700779E+02  0.58114305952E+02  0.33235168959E+03  0.34045807090E+03  0.00000000000E+00 0.  1.
         11    1    3    3    0    0 -0.13701842540E+02 -0.34621991570E+02  0.21514478785E+03  0.21834308445E+03  0.00000000000E+00 0. -1.
         -2    1    1    2    0  502  0.30962969967E+02  0.24081520400E+02 -0.26292987365E+01  0.39313335470E+02  0.00000000000E+00 0.  1.
<scales pt_clust_5="13000.00000" pt_clust_6="13000.00000" pt_clust_7="13000.00000" pt_clust_8="13000.00000" pt_clust_9="39.22531"></scales>
<clustering>
<clus scale="   39.225">  2  9  1 -1</clus>
<clus scale="   80.653">  5  6 -1 -1</clus>
<clus scale="   91.875">  7  8 -1 -1</clus>
<clus scale="  101.684">  2  5  1 -1</clus>
<clus scale="   39.225">  2  5  1 -1</clus>
</clustering>
</event>
<event>
 9    2  0.9254368E-005  0.1075306E+03  0.7546771E-02  0.1269278E+00
          2   -1    0    0  502    0 -0.00000000000E+00  0.00000000000E+00  0.19406250355E+03  0.19406250355E+03  0.00000000000E+00 0. -1.
         21   -1    0    0  501  502  0.00000000000E+00 -0.00000000000E+00 -0.10427809007E+03  0.10427809007E+03  0.00000000000E+00 0.  1.
         23    2    1    2    0    0  0.13895714302E+02 -0.31669275452E+02  0.49572550724E+02  0.10907620265E+03  0.90797281437E+02 0.  0.
         24    2    1    2    0    0 -0.56865090236E+02  0.70692321514E+02  0.47944020443E+02  0.13070713989E+03  0.80961006129E+02 0.  0.
        -13    1    4    4    0    0 -0.52368340691E+02  0.70471146517E+02  0.54419387649E+01  0.87967268320E+02  0.00000000000E+00 0.  1.
         14    1    4    4    0    0 -0.44967495447E+01  0.22117499681E+00  0.42502081678E+02  0.42739871570E+02  0.00000000000E+00 0. -1.
        -11    1    3    3    0    0  0.47087680796E+02 -0.35006184081E+01  0.61979367208E+01  0.47622667204E+02  0.00000000000E+00 0. -1.
         11    1    3    3    0    0 -0.33191966494E+02 -0.28168657044E+02  0.43374614003E+02  0.61453535450E+02  0.00000000000E+00 0.  1.
          1    1    1    2  501    0  0.42969375934E+02 -0.39023046062E+02 -0.77321576865E+01  0.58557251085E+02  0.00000000000E+00 0. -1.
<scales pt_clust_5="13000.00000" pt_clust_6="13000.00000" pt_clust_7="13000.00000" pt_clust_8="13000.00000" pt_clust_9="58.04451"></scales>
<clustering>
<clus scale="   58.045">  2  9  1 -1</clus>
<clus scale="   80.961">  5  6 -1 -1</clus>
<clus scale="   90.797">  7  8 -1 -1</clus>
<clus scale="   99.365">  2  5  1 -1</clus>
<clus scale="   58.045">  2  5  1 -1</clus>
</clustering>
</event>
<event>
 9    2  0.9254368E-005  0.1485304E+03  0.7546771E-02  0.1204037E+00
         21   -1    0    0  501  502  0.00000000000E+00  0.00000000000E+00  0.10262015231E+03  0.10262015231E+03  0.00000000000E+00 0.  1.
          2   -1    0    0  502    0 -0.00000000000E+00 -0.00000000000E+00 -0.57943448747E+03  0.57943448747E+03  0.00000000000E+00 0. -1.
         24    2    1    2    0    0 -0.80984668923E+02 -0.71717683197E+02 -0.38176892883E+03  0.40559570936E+03  0.84014413950E+02 0.  0.
         23    2    1    2    0    0  0.11361988981E+03  0.84399219024E+02 -0.13980283910E+03  0.21963370027E+03  0.93066755293E+02 0.  0.
        -11    1    3    3    0    0 -0.25040445017E+02 -0.22377262176E+02 -0.27058785553E+02  0.43127063716E+02  0.00000000000E+00 0.  1.
         12    1    3    3    0    0 -0.55944223906E+02 -0.49340421020E+02 -0.35471014328E+03  0.36246864565E+03  0.00000000000E+00 0. -1.
        -11    1    4    4    0    0  0.77278035309E+01 -0.19068857339E+02 -0.24416637050E+02  0.31929804767E+02  0.00000000000E+00 0. -1.
         11    1    4    4    0    0  0.10589208627E+03  0.10346807636E+03 -0.11538620205E+03  0.18770389550E+03  0.00000000000E+00 0.  1.
          1    1    1    2  501    0 -0.32635220882E+02 -0.12681535828E+02  0.44757432768E+02  0.56825230144E+02  0.00000000000E+00 0. -1.
<scales pt_clust_5="13000.00000" pt_clust_6="13000.00000" pt_clust_7="13000.00000" pt_clust_8="13000.00000" pt_clust_9="35.01255"></scales>
<clustering>
<clus scale="   35.013">  1  9  2 -1</clus>
<clus scale="   84.014">  5  6 -1 -1</clus>
<clus scale="   93.067">  7  8 -1 -1</clus>
<clus scale="  143.032">  2  5  1 -1</clus>
<clus scale="   35.013">  1  5  2 -1</clus>
</clustering>
</event>
<event>
 9    2  0.9254368E-005  0.1297774E+03  0.7546771E-02  0.1230148E+00
         21   -1    0    0  501  502  0.00000000000E+00  0.00000000000E+00  0.17855715301E+03  0.17855715301E+03  0.00000000000E+00 0. -1.
          2   -1    0    0  502    0 -0.00000000000E+00 -0.00000000000E+00 -0.34249981955E+03  0.34249981955E+03  0.00000000000E+00 0. -1.
         24    2    1    2    0    0  0.90729043353E+02  0.22021741985E+02 -0.28732582232E+03  0.31296599871E+03  0.81699888329E+02 0.  0.
         23    2    1    2    0    0 -0.90455652562E+02  0.22283258230E+01  0.62597928105E+02  0.14264645969E+03  0.90787231162E+02 0.  0.
        -11    1    3    3    0    0  0.51010125654E+02 -0.27684257540E+02 -0.10672805067E+03  0.12148797404E+03  0.00000000000E+00 0.  1.
         12    1    3    3    0    0  0.39718917699E+02  0.49705999525E+02 -0.18059777164E+03  0.19147802468E+03  0.00000000000E+00 0. -1.
        -11    1    4    4    0    0 -0.68260791054E+02 -0.33920200808E+02  0.64978148384E+02  0.10016124693E+03  0.00000000000E+00 0.  1.
         11    1    4    4    0    0 -0.22194861508E+02  0.36148526631E+02 -0.23802202791E+01  0.42485212763E+02  0.00000000000E+00 0. -1.
          1    1    1    2  501    0 -0.27339079137E+00 -0.24250067808E+02  0.60785227664E+02  0.65444514158E+02  0.00000000000E+00 0. -1.
<scales pt_clust_5="13000.00000" pt_clust_6="13000.00000" pt_clust_7="13000.00000" pt_clust_8="13000.00000" pt_clust_9="24.25161"></scales>
<clustering>
<clus scale="   24.252">  1  9  2 -1</clus>
<clus scale="   81.700">  5  6 -1 -1</clus>
<clus scale="   90.787">  7  8 -1 -1</clus>
<clus scale="  123.591">  2  5  1 -1</clus>
<clus scale="   24.252">  1  5  2 -1</clus>
</clustering>
</event>
<event>
 9    2  0.9254368E-005  0.2920650E+03  0.7546771E-02  0.1089438E+00
         21   -1    0    0  501  502  0.00000000000E+00  0.00000000000E+00  0.11532680369E+03  0.11532680369E+03  0.00000000000E+00 0.  1.
          2   -1    0    0  502    0 -0.00000000000E+00 -0.00000000000E+00 -0.12243624788E+04  0.12243624788E+04  0.00000000000E+00 0. -1.
         24    2    1    2    0    0 -0.29216915009E+02 -0.26229465241E+03 -0.41287586528E+03  0.49727280103E+03  0.84626507129E+02 0.  0.
         23    2    1    2    0    0  0.97653287764E+02  0.29001040003E+03 -0.29405397178E+03  0.43358790518E+03  0.88817433324E+02 0.  0.
        -13    1    3    3    0    0  0.44910438048E+00 -0.58421073905E+02 -0.38543532761E+02  0.69991624418E+02  0.00000000000E+00 0.  1.
         14    1    3    3    0    0 -0.29666019390E+02 -0.20387357851E+03 -0.37433233252E+03  0.42728117661E+03  0.00000000000E+00 0. -1.
        -11    1    4    4    0    0  0.22186894941E+02  0.90113282270E+02 -0.38486786351E+02  0.10046837648E+03  0.00000000000E+00 0.  1.
         11    1    4    4    0    0  0.75466392823E+02  0.19989711776E+03 -0.25556718542E+03  0.33311952870E+03  0.00000000000E+00 0. -1.
          1    1    1    2  501    0 -0.68436372755E+02 -0.27715747616E+02 -0.40210583809E+03  0.40882857631E+03  0.00000000000E+00 0. -1.
<scales pt_clust_5="13000.00000" pt_clust_6="13000.00000" pt_clust_7="13000.00000" pt_clust_8="13000.00000" pt_clust_9="73.83566"></scales>
<clustering>
<clus scale="   73.836">  1  9  2 -1</clus>
<clus scale="   84.627">  5  6 -1 -1</clus>
<clus scale="   88.817">  7  8 -1 -1</clus>
<clus scale="  290.818">  2  5  1 -1</clus>
<clus scale="   73.836">  1  5  2 -1</clus>
</clustering>
</event>
<event>
 9    2  0.9254368E-005  0.1584729E+03  0.7546771E-02  0.1191770E+00
         21   -1    0    0  501  502  0.00000000000E+00  0.00000000000E+00  0.41979780340E+03  0.41979780340E+03  0.00000000000E+00 0. -1.
          2   -1    0    0  502    0 -0.00000000000E+00 -0.00000000000E+00 -0.21573371537E+03  0.21573371537E+03  0.00000000000E+00 0. -1.
         24    2    1    2    0    0  0.12004160159E+03  0.27040554349E+02 -0.37055926353E+01  0.14684513905E+03  0.80053642967E+02 0.  0.
         23    2    1    2    0    0 -0.16558233929E+03 -0.44751567764E+02  0.31579243096E+03  0.37012604333E+03  0.88590149523E+02 0.  0.
        -13    1    3    3    0    0  0.58354575240E+02  0.44289186562E+02  0.23953901440E+02  0.77075144450E+02  0.00000000000E+00 0.  1.
         14    1    3    3    0    0  0.61687026353E+02 -0.17248632213E+02 -0.27659494076E+02  0.69769994596E+02  0.00000000000E+00 0. -1.
        -11    1    4    4    0    0 -0.91419413014E+02 -0.67660265420E+02  0.21121738564E+03  0.23989206863E+03  0.00000000000E+00 0. -1.
         11    1    4    4    0    0 -0.74162926273E+02  0.22908697657E+02  0.10457504532E+03  0.13023397470E+03  0.00000000000E+00 0.  1.
          1    1    1    2  501    0  0.45540737695E+02  0.17711013415E+02 -0.10802275029E+03  0.11856033640E+03  0.00000000000E+00 0. -1.
<scales pt_clust_5="13000.00000" pt_clust_6="13000.00000" pt_clust_7="13000.00000" pt_clust_8="13000.00000" pt_clust_9="48.86350"></scales>
<clustering>
<clus scale="   48.863">  1  9  2 -1</clus>
<clus scale="   80.054">  5  6 -1 -1</clus>
<clus scale="   88.590">  7  8 -1 -1</clus>
<clus scale="  153.864">  2  5  1 -1</clus>
<clus scale="   48.863">  1  5  2 -1</clus>
</clustering>
</event>
<event>
 9    2  0.9254368E-005  0.1145837E+03  0.7546771E-02  0.1253835E+00
         21   -1    0    0  501  502  0.00000000000E+00  0.00000000000E+00  0.20093631235E+03  0.20093631235E+03  0.00000000000E+00 0.  1.
          2   -1    0    0  502    0 -0.00000000000E+00 -0.00000000000E+00 -0.54227328974E+03  0.54227328974E+03  0.00000000000E+00 0. -1.
         23    2    1    2    0    0 -0.78548968958E+02 -0.14863941441E+02 -0.50154268124E+03  0.51470692602E+03  0.83589959349E+02 0.  0.
         24    2    1    2    0    0  0.34306161163E+02  0.51996067298E+02  0.12678342014E+03  0.16176985161E+03  0.78834926009E+02 0.  0.
        -13    1    4    4    0    0 -0.24690667188E+02  0.25404667833E+02  0.51309290238E+02  0.62351178486E+02  0.00000000000E+00 0.  1.
         14    1    4    4    0    0  0.58996828351E+02  0.26591399465E+02  0.75474129902E+02  0.99418673123E+02  0.00000000000E+00 0. -1.
        -11    1    3    3    0    0 -0.15102486214E+02  0.24842502797E+02 -0.57839423338E+02  0.64735105832E+02  0.00000000000E+00 0.  1.
         11    1    3    3    0    0 -0.63446482743E+02 -0.39706444238E+02 -0.44370325790E+03  0.44997182019E+03  0.00000000000E+00 0. -1.
          1    1    1    2  501    0  0.44242807794E+02 -0.37132125857E+02  0.33422283715E+02  0.66732824463E+02  0.00000000000E+00 0. -1.
<scales pt_clust_5="13000.00000" pt_clust_6="13000.00000" pt_clust_7="13000.00000" pt_clust_8="13000.00000" pt_clust_9="57.76003"></scales>
<clustering>
<clus scale="   57.760">  1  9  2 -1</clus>
<clus scale="   78.835">  5  6 -1 -1</clus>
<clus scale="   83.590">  7  8 -1 -1</clus>
<clus scale="  111.162">  1  5  2 -1</clus>
<clus scale="   57.760">  1  5  2 -1</clus>
</clustering>
</event>
<event>
 9    2  0.9254368E-005  0.9608738E+02  0.7546771E-02  0.1298209E+00
         21   -1    0    0  501  502  0.00000000000E+00  0.00000000000E+00  0.79996417686E+02  0.79996417686E+02  0.00000000000E+00 0.  1.
          2   -1    0    0  502    0 -0.00000000000E+00 -0.00000000000E+00 -0.24494570071E+03  0.24494570071E+03  0.00000000000E+00 0. -1.
         24    2    1    2    0    0  0.40390998967E-01 -0.95963877535E+01 -0.14223204289E+03  0.16362477745E+03  0.80318251224E+02 0.  0.
         23    2    1    2    0    0 -0.32017081141E+02 -0.29064986461E+02  0.23932187949E+01  0.10521256650E+03  0.95885816105E+02 0.  0.
        -11    1    3    3    0    0  0.39080566487E+02  0.12139625629E+00 -0.86199901754E+02  0.94645277095E+02  0.00000000000E+00 0.  1.
         12    1    3    3    0    0 -0.39040175488E+02 -0.97177840098E+01 -0.56032141140E+02  0.68979500353E+02  0.00000000000E+00 0. -1.
        -11    1    4    4    0    0 -0.32607988739E+02 -0.61406221390E+02  0.13857302233E+02  0.70894497531E+02  0.00000000000E+00 0. -1.
         11    1    4    4    0    0  0.59090759754E+00  0.32341234929E+02 -0.11464083439E+02  0.34318068967E+02  0.00000000000E+00 0.  1.
          1    1    1    2  501    0  0.31976690142E+02  0.38661374214E+02 -0.25110458924E+02  0.56104774449E+02  0.00000000000E+00 0. -1.
<scales pt_clust_5="13000.00000" pt_clust_6="13000.00000" pt_clust_7="13000.00000" pt_clust_8="13000.00000" pt_clust_9="50.17181"></scales>
<clustering>
<clus scale="   50.172">  1  9  2 -1</clus>
<clus scale="   80.318">  5  6 -1 -1</clus>
<clus scale="   80.559">  2  5  1 -1</clus>
<clus scale="   95.886">  7  8 -1 -1</clus>
<clus scale="   50.172">  1  5  2 -1</clus>
</clustering>
</event>
<event>
 9    2  0.9254368E-005  0.1326355E+03  0.7546771E-02  0.1240905E+00
          2   -1    0    0  502    0 -0.00000000000E+00  0.00000000000E+00  0.56226623554E+03  0.56226623554E+03  0.00000000000E+00 0. -1.
         21   -1    0    0  501  502  0.00000000000E+00 -0.00000000000E+00 -0.97137478107E+02  0.97137478107E+02  0.00000000000E+00 0.  1.
         24    2    1    2    0    0 -0.77415581815E+00  0.45072502198E+02  0.36643705232E+03  0.37802994947E+03  0.81230533736E+02 0.  0.
         23    2    1    2    0    0 -0.97968157712E+02 -0.13418691728E+02 -0.70162683859E+01  0.13329883767E+03  0.89115267430E+02 0.  0.
        -11    1    3    3    0    0 -0.40396374821E+01 -0.23684922239E+02  0.90102069645E+02  0.93250614833E+02  0.00000000000E+00 0.  1.
         12    1    3    3    0    0  0.32654816639E+01  0.68757424437E+02  0.27633498268E+03  0.28477933464E+03  0.00000000000E+00 0. -1.
        -11    1    4    4    0    0 -0.69843829030E+02  0.28310487807E+02 -0.25693071085E+02  0.79622723360E+02  0.00000000000E+00 0.  1.
         11    1    4    4    0    0 -0.28124328683E+02 -0.41729179535E+02  0.18676802699E+02  0.53676114311E+02  0.00000000000E+00 0. -1.
          1    1    1    2  501    0  0.98742313531E+02 -0.31653810470E+02  0.10570797350E+03  0.14807492651E+03  0.00000000000E+00 0. -1.
<scales pt_clust_5="13000.00000" pt_clust_6="13000.00000" pt_clust_7="13000.00000" pt_clust_8="13000.00000" pt_clust_9="98.23778"></scales>
<clustering>
<clus scale="   81.231">  5  6 -1 -1</clus>
<clus scale="   89.115">  7  8 -1 -1</clus>
<clus scale="   92.901">  1  5  2 -1</clus>
<clus scale="   98.238">  2  9  1 -1</clus>
<clus scale="   98.238">  2  5  1 -1</clus>
</clustering>
</event>
<event>
 9    2  0.9254368E-005  0.1238461E+03  0.7546771E-02  0.1240182E+00
          2   -1    0    0  502    0 -0.00000000000E+00  0.00000000000E+00  0.25492538350E+03  0.25492538350E+03  0.00000000000E+00 0. -1.
         21   -1    0    0  501  502  0.00000000000E+00 -0.00000000000E+00 -0.19268934070E+03  0.19268934070E+03  0.00000000000E+00 0.  1.
         24    2    1    2    0    0 -0.33053165612E+02 -0.74310540567E+02  0.15344770052E+03  0.19095136731E+03  0.79382993683E+02 0.  0.
         23    2    1    2    0    0  0.36954678159E+02  0.10526059961E+03 -0.13874241159E+03  0.19981003229E+03  0.90714663452E+02 0.  0.
        -13    1    3    3    0    0 -0.13789987384E+02  0.15658637161E+02  0.20337282820E+02  0.29136948060E+02  0.00000000000E+00 0.  1.
         14    1    3    3    0    0 -0.19263178228E+02 -0.89969177728E+02  0.13311041770E+03  0.16181441925E+03  0.00000000000E+00 0. -1.
        -11    1    4    4    0    0 -0.25521430400E+02  0.63707887858E+02 -0.62135730412E+02  0.92579087157E+02  0.00000000000E+00 0.  1.
         11    1    4    4    0    0  0.62476108559E+02  0.41552711747E+02 -0.76606681175E+02  0.10723094514E+03  0.00000000000E+00 0. -1.
          1    1    1    2  501    0 -0.39015125466E+01 -0.30950059038E+02  0.47530753869E+02  0.56853324599E+02  0.00000000000E+00 0. -1.
<scales pt_clust_5="13000.00000" pt_clust_6="13000.00000" pt_clust_7="13000.00000" pt_clust_8="13000.00000" pt_clust_9="31.19501"></scales>
<clustering>
<clus scale="   31.195">  2  9  1 -1</clus>
<clus scale="   79.383">  5  6 -1 -1</clus>
<clus scale="   90.715">  7  8 -1 -1</clus>
<clus scale="  115.803">  1  5  2 -1</clus>
<clus scale="   31.195">  2  5  1 -1</clus>
</clustering>
</event>
<event>
 9    2  0.9254368E-005  0.5483050E+03  0.7546771E-02  0.1001887E+00
          2   -1    0    0  502    0 -0.00000000000E+00  0.00000000000E+00  0.10969886586E+04  0.10969886586E+04  0.00000000000E+00 0. -1.
         21   -1    0    0  501  502  0.00000000000E+00 -0.00000000000E+00 -0.38161250664E+03  0.38161250664E+03  0.00000000000E+00 0. -1.
         24    2    1    2    0    0 -0.14112275328E+03 -0.37992543783E+03  0.56089585553E+03  0.69690116767E+03  0.82511253492E+02 0.  0.
         23    2    1    2    0    0 -0.39483956933E+02 -0.84461619915E+02  0.24244726991E+03  0.27572340563E+03  0.92466045842E+02 0.  0.
        -11    1    3    3    0    0 -0.39809162196E+02 -0.22233312477E+03  0.29159117025E+03  0.36883898701E+03  0.00000000000E+00 0.  1.
         12    1    3    3    0    0 -0.10131359109E+03 -0.15759231305E+03  0.26930468528E+03  0.32806218067E+03  0.00000000000E+00 0. -1.
        -11    1    4    4    0    0 -0.28195975244E+01 -0.43132506477E+02  0.20371624358E+03  0.20825146132E+03  0.00000000000E+00 0.  1.
         11    1    4    4    0    0 -0.36664359408E+02 -0.41329113437E+02  0.38731026330E+02  0.67471944310E+02  0.00000000000E+00 0. -1.
          1    1    1    2  501    0  0.18060671022E+03  0.46438705774E+03 -0.87966973461E+02  0.50597659194E+03  0.00000000000E+00 0. -1.
<scales pt_clust_5="13000.00000" pt_clust_6="13000.00000" pt_clust_7="13000.00000" pt_clust_8="13000.00000" pt_clust_9="498.27113"></scales>
<clustering>
<clus scale="   82.511">  5  6 -1 -1</clus>
<clus scale="   92.466">  7  8 -1 -1</clus>
<clus scale="  104.290">  5  7 -1 -1</clus>
<clus scale="  498.271">  2  9  1 -1</clus>
<clus scale="  498.271">  2  5  1 -1</clus>
</clustering>
</event>
<event>
 9    2  0.9254368E-005  0.9242610E+02  0.7546771E-02  0.1305416E+00
          2   -1    0    0  502    0 -0.00000000000E+00  0.00000000000E+00  0.18711970975E+03  0.18711970975E+03  0.00000000000E+00 0. -1.
         21   -1    0    0  501  502  0.00000000000E+00 -0.00000000000E+00 -0.10408959651E+03  0.10408959651E+03  0.00000000000E+00 0.  1.
         24    2    1    2    0    0  0.22991296402E+01 -0.11308205992E+02  0.11564204171E+03  0.13997750184E+03  0.78022161533E+02 0.  0.
         23    2    1    2    0    0  0.40880844092E+02  0.23140656117E+02 -0.19210515682E+02  0.10449728964E+03  0.91344984811E+02 0.  0.
        -13    1    3    3    0    0  0.10838208227E+02 -0.43514960773E+02  0.56944512186E+02  0.72482384320E+02  0.00000000000E+00 0.  1.
         14    1    3    3    0    0 -0.85390785867E+01  0.32206754781E+02  0.58697529524E+02  0.67495117519E+02  0.00000000000E+00 0. -1.
        -11    1    4    4    0    0  0.50079907713E+02 -0.15731902122E+02  0.11948952286E+02  0.53835558525E+02  0.00000000000E+00 0.  1.
         11    1    4    4    0    0 -0.91990636216E+01  0.38872558239E+02 -0.31159467967E+02  0.50661731115E+02  0.00000000000E+00 0. -1.
          1    1    1    2  501    0 -0.43179973732E+02 -0.11832450125E+02 -0.13401412790E+02  0.46734514785E+02  0.00000000000E+00 0. -1.
<scales pt_clust_5="13000.00000" pt_clust_6="13000.00000" pt_clust_7="13000.00000" pt_clust_8="13000.00000" pt_clust_9="44.77183"></scales>
<clustering>
<clus scale="   44.772">  2  9  1 -1</clus>
<clus scale="   78.022">  5  6 -1 -1</clus>
<clus scale="   79.285">  1  5  2 -1</clus>
<clus scale="   91.345">  7  8 -1 -1</clus>
<clus scale="   44.772">  2  5  1 -1</clus>
</clustering>
</event>
<event>
 9    2  0.9254368E-005  0.9718179E+02  0.7546771E-02  0.1291486E+00
          2   -1    0    0  502    0 -0.00000000000E+00  0.00000000000E+00  0.40011446700E+03  0.40011446700E+03  0.00000000000E+00 0. -1.
         21   -1    0    0  501  502  0.00000000000E+00 -0.00000000000E+00 -0.18992509485E+03  0.18992509485E+03  0.00000000000E+00 0.  1.
         24    2    1    2    0    0  0.14087521364E+02 -0.31317013587E+02  0.34320458010E+03  0.35429947265E+03  0.80990856985E+02 0.  0.
         23    2    1    2    0    0  0.42993954644E+02  0.65787641333E+02 -0.51875241426E+02  0.13071526715E+03  0.90658405595E+02 0.  0.
        -13    1    3    3    0    0 -0.90534879595E+01 -0.27034767877E+02  0.34752288886E+02  0.44950705237E+02  0.00000000000E+00 0.  1.
         14    1    3    3    0    0  0.23141009323E+02 -0.42822457101E+01  0.30845229122E+03  0.30934876741E+03  0.00000000000E+00 0. -1.
        -11    1    4    4    0    0 -0.23164539274E+02  0.33989813640E+02 -0.38026188155E+02  0.56016910809E+02  0.00000000000E+00 0.  1.
         11    1    4    4    0    0  0.66158493918E+02  0.31797827694E+02 -0.13849053271E+02  0.74698356341E+02  0.00000000000E+00 0. -1.
          1    1    1    2  501    0 -0.57081476008E+02 -0.34470627746E+02 -0.81139966526E+02  0.10502482206E+03  0.00000000000E+00 0. -1.
<scales pt_clust_5="13000.00000" pt_clust_6="13000.00000" pt_clust_7="13000.00000" pt_clust_8="13000.00000" pt_clust_9="66.68222"></scales>
<clustering>
<clus scale="   66.682">  2  9  1 -1</clus>
<clus scale="   80.991">  5  6 -1 -1</clus>
<clus scale="   88.232">  1  5  2 -1</clus>
<clus scale="   90.658">  7  8 -1 -1</clus>
<clus scale="   66.682">  2  5  1 -1</clus>
</clustering>
</event>
<event>
 9    2  0.9254368E-005  0.9762549E+02  0.7546771E-02  0.1287094E+00
          2   -1    0    0  502    0 -0.00000000000E+00  0.00000000000E+00  0.30259174486E+03  0.30259174486E+03  0.00000000000E+00 0. -1.
         21   -1    0    0  501  502  0.00000000000E+00 -0.00000000000E+00 -0.61490510293E+02  0.61490510293E+02  0.00000000000E+00 0. -1.
         23    2    1    2    0    0  0.35512192653E+02  0.22916901665E+02  0.20104526555E+03  0.22268299197E+03  0.85919822532E+02 0.  0.
         24    2    1    2    0    0 -0.57061591800E+02 -0.29497873370E+02  0.11576645666E+02  0.10508456023E+03  0.82356519362E+02 0.  0.
        -13    1    4    4    0    0 -0.11367684220E+02 -0.30524628979E+02  0.39751922701E+02  0.51392534256E+02  0.00000000000E+00 0.  1.
         14    1    4    4    0    0 -0.45693907579E+02  0.10267556087E+01 -0.28175277035E+02  0.53692025972E+02  0.00000000000E+00 0. -1.
        -11    1    3    3    0    0  0.11881541527E+02  0.52847303489E+02  0.87540639372E+02  0.10294353820E+03  0.00000000000E+00 0.  1.
         11    1    3    3    0    0  0.23630651126E+02 -0.29930401824E+02  0.11350462617E+03  0.11973945377E+03  0.00000000000E+00 0. -1.
          1    1    1    2  501    0  0.21549399147E+02  0.65809717052E+01  0.28479323360E+02  0.36314702962E+02  0.00000000000E+00 0. -1.
<scales pt_clust_5="13000.00000" pt_clust_6="13000.00000" pt_clust_7="13000.00000" pt_clust_8="13000.00000" pt_clust_9="22.53190"></scales>
<clustering>
<clus scale="   22.532">  2  9  1 -1</clus>
<clus scale="   82.357">  5  6 -1 -1</clus>
<clus scale="   85.920">  7  8 -1 -1</clus>
<clus scale="   94.505">  2  5  1 -1</clus>
<clus scale="   22.532">  2  5  1 -1</clus>
</clustering>
</event>
<event>
 9    2  0.9254368E-005  0.1699458E+03  0.7546771E-02  0.1179721E+00
          2   -1    0    0  502    0 -0.00000000000E+00  0.00000000000E+00  0.29257030160E+03  0.29257030160E+03  0.00000000000E+00 0. -1.
         21   -1    0    0  501  502  0.00000000000E+00 -0.00000000000E+00 -0.17641852401E+03  0.17641852401E+03  0.00000000000E+00 0. -1.
         24    2    1    2    0    0 -0.16531629875E+02 -0.10586758975E+03  0.17054974345E+02  0.13446989366E+03  0.79435752685E+02 0.  0.
         23    2    1    2    0    0  0.82312204425E+02  0.17999327229E+03  0.51171337949E+02  0.22443464141E+03  0.92625727367E+02 0.  0.
        -11    1    3    3    0    0 -0.25509443508E+02 -0.49345361033E+01 -0.12616530052E+02  0.28883527922E+02  0.00000000000E+00 0.  1.
         12    1    3    3    0    0  0.89778136332E+01 -0.10093305365E+03  0.29671504397E+02  0.10558636574E+03  0.00000000000E+00 0. -1.
        -11    1    4    4    0    0  0.29760904365E+02  0.63742521297E+02 -0.26385294738E+02  0.75133243164E+02  0.00000000000E+00 0. -1.
         11    1    4    4    0    0  0.52551300060E+02  0.11625075099E+03  0.77556632687E+02  0.14930139824E+03  0.00000000000E+00 0.  1.
          1    1    1    2  501    0 -0.65780574550E+02 -0.74125682536E+02  0.47925465303E+02  0.11008429054E+03  0.00000000000E+00 0. -1.
<scales pt_clust_5="13000.00000" pt_clust_6="13000.00000" pt_clust_7="13000.00000" pt_clust_8="13000.00000" pt_clust_9="99.10454"></scales>
<clustering>
<clus scale="   79.436">  5  6 -1 -1</clus>
<clus scale="   92.626">  7  8 -1 -1</clus>
<clus scale="   99.105">  2  9  1 -1</clus>
<clus scale="  163.132">  1  5  2 -1</clus>
<clus scale="   99.105">  2  5  1 -1</clus>
</clustering>
</event>
<event>
 9    2  0.9254368E-005  0.1742730E+03  0.7546771E-02  0.1181476E+00
          2   -1    0    0  502    0 -0.00000000000E+00  0.00000000000E+00  0.36275856717E+03  0.36275856717E+03  0.00000000000E+00 0. -1.
         21   -1    0    0  501  502  0.00000000000E+00 -0.00000000000E+00 -0.37882403260E+03  0.37882403260E+03  0.00000000000E+00 0. -1.
         24    2    1    2    0    0 -0.57600391026E+02 -0.10632693264E+03  0.25568415351E+03  0.29415164018E+03  0.80793436706E+02 0.  0.
         23    2    1    2    0    0  0.10316407193E+03 -0.82762620052E+02 -0.14044091235E+03  0.21275483303E+03  0.89713388625E+02 0.  0.
        -13    1    3    3    0    0 -0.47363854251E+02 -0.11677847713E+02  0.10707718165E+03  0.11766575392E+03  0.00000000000E+00 0.  1.
         14    1    3    3    0    0 -0.10236536775E+02 -0.94649084924E+02  0.14860697186E+03  0.17648588626E+03  0.00000000000E+00 0. -1.
        -11    1    4    4    0    0  0.67609155796E+02 -0.44490451875E+02 -0.13857958009E+03  0.16048270397E+03  0.00000000000E+00 0. -1.
         11    1    4    4    0    0  0.35554916135E+02 -0.38272168177E+02 -0.18613322625E+01  0.52272129057E+02  0.00000000000E+00 0.  1.
          1    1    1    2  501    0 -0.45563680905E+02  0.18908955269E+03 -0.13130870659E+03  0.23467612656E+03  0.00000000000E+00 0. -1.
<scales pt_clust_5="13000.00000" pt_clust_6="13000.00000" pt_clust_7="13000.00000" pt_clust_8="13000.00000" pt_clust_9="149.40756"></scales>
<clustering>
<clus scale="   80.793">  5  6 -1 -1</clus>
<clus scale="   89.713">  7  8 -1 -1</clus>
<clus scale="  145.433">  1  5  2 -1</clus>
<clus scale="  149.408">  2  9  1 -1</clus>
<clus scale="  149.408">  2  5  1 -1</clus>
</clustering>
</event>
<event>
 9    2  0.9254368E-005  0.1366356E+03  0.7546771E-02  0.1226514E+00
          4   -1    0    0  502    0 -0.00000000000E+00  0.00000000000E+00  0.38618423801E+03  0.38618423801E+03  0.00000000000E+00 0. -1.
         21   -1    0    0  501  502  0.00000000000E+00 -0.00000000000E+00 -0.27272558639E+03  0.27272558639E+03  0.00000000000E+00 0. -1.
         24    2    1    2    0    0 -0.82037385933E+02  0.13280034066E+02 -0.19775926194E+03  0.22835204773E+03  0.78290740322E+02 0.  0.
         23    2    1    2    0    0 -0.78329561293E+02 -0.10150509065E+02  0.66978561916E+02  0.13835885029E+03  0.91752333432E+02 0.  0.
        -11    1    3    3    0    0 -0.25896314653E+02 -0.29630295828E+02 -0.43379877166E+02  0.58569508163E+02  0.00000000000E+00 0.  1.
         12    1    3    3    0    0 -0.56141071280E+02  0.42910329893E+02 -0.15437938478E+03  0.16978253956E+03  0.00000000000E+00 0. -1.
        -13    1    4    4    0    0  0.19642734953E+02  0.53868733477E+01  0.20198117026E+02  0.28684828260E+02  0.00000000000E+00 0.  1.
         13    1    4    4    0    0 -0.97972296246E+02 -0.15537382412E+02  0.46780444890E+02  0.10967402203E+03  0.00000000000E+00 0. -1.
          3    1    1    2  501    0  0.16036694723E+03 -0.31295250010E+01  0.24423935165E+03  0.29219892639E+03  0.00000000000E+00 0. -1.
<scales pt_clust_5="13000.00000" pt_clust_6="13000.00000" pt_clust_7="13000.00000" pt_clust_8="13000.00000" pt_clust_9="101.24632"></scales>
<clustering>
<clus scale="   78.291">  5  6 -1 -1</clus>
<clus scale="   91.752">  7  8 -1 -1</clus>
<clus scale="  114.175">  1  5  2 -1</clus>
<clus scale="  101.246">  2  9  1 -1</clus>
<clus scale="  101.246">  2  5  1 -1</clus>
</clustering>
</event>
<event>
 9    2  0.9254368E-005  0.1097637E+03  0.7546771E-02  0.1264835E+00
         -3   -1    0    0    0  501 -0.00000000000E+00  0.00000000000E+00  0.21078138467E+03  0.21078138467E+03  0.00000000000E+00 0.  1.
         21   -1    0    0  501  502  0.00000000000E+00 -0.00000000000E+00 -0.14192033740E+03  0.14192033740E+03  0.00000000000E+00 0. -1.
         24    2    1    2    0    0  0.16458804119E+01 -0.59588623920E+02  0.21417288012E+02  0.10270657613E+03  0.80848175804E+02 0.  0.
         23    2    1    2    0    0  0.61512377661E+02  0.58810215100E+02 -0.49899091400E+02  0.13395548868E+03  0.90618649408E+02 0.  0.
        -11    1    3    3    0    0 -0.25887593923E+02 -0.55580515511E+02  0.36197058070E+02  0.71201040979E+02  0.00000000000E+00 0.  1.
         12    1    3    3    0    0  0.27533474335E+02 -0.40081084090E+01 -0.14779770059E+02  0.31505535148E+02  0.00000000000E+00 0. -1.
        -13    1    4    4    0    0 -0.11581529549E+02  0.47132542994E+02 -0.89172731884E+01  0.49346997851E+02  0.00000000000E+00 0.  1.
         13    1    4    4    0    0  0.73093907211E+02  0.11677672105E+02 -0.40981818211E+02  0.84608490833E+02  0.00000000000E+00 0. -1.
         -4    1    1    2    0  502 -0.63158258073E+02  0.77840882053E+00  0.97342850661E+02  0.11603965726E+03  0.00000000000E+00 0.  1.
<scales pt_clust_5="13000.00000" pt_clust_6="13000.00000" pt_clust_7="13000.00000" pt_clust_8="13000.00000" pt_clust_9="63.16309"></scales>
<clustering>
<clus scale="   63.163">  2  9  1 -1</clus>
<clus scale="   80.848">  5  6 -1 -1</clus>
<clus scale="   90.619">  7  8 -1 -1</clus>
<clus scale="  101.847">  1  5  2 -1</clus>
<clus scale="   63.163">  2  5  1 -1</clus>
</clustering>
</event>
<event>
 9    2  0.9254368E-005  0.9080797E+02  0.7546771E-02  0.1306092E+00
         21   -1    0    0  501  502  0.00000000000E+00  0.00000000000E+00  0.75619384630E+02  0.75619384630E+02  0.00000000000E+00 0. -1.
          2   -1    0    0  502    0 -0.00000000000E+00 -0.00000000000E+00 -0.34001352392E+03  0.34001352392E+03  0.00000000000E+00 0. -1.
         23    2    1    2    0    0 -0.14709798416E+02  0.95039207800E+01 -0.28324563600E+03  0.29742069699E+03  0.89018413836E+02 0.  0.
         24    2    1    2    0    0  0.36509463868E+01 -0.28187285619E+02 -0.54326134796E+01  0.85637922035E+02  0.80600793552E+02 0.  0.
        -11    1    4    4    0    0  0.35391301401E+02 -0.87261910698E+01 -0.24389505938E+02  0.43858164865E+02  0.00000000000E+00 0.  1.
         12    1    4    4    0    0 -0.31740355015E+02 -0.19461094550E+02  0.18956892458E+02  0.41779757170E+02  0.00000000000E+00 0. -1.
        -13    1    3    3    0    0 -0.51672861010E+02 -0.17760981348E+01 -0.14854678849E+03  0.15728759474E+03  0.00000000000E+00 0. -1.
         13    1    3    3    0    0  0.36963062594E+02  0.11280018915E+02 -0.13469884752E+03  0.14013310225E+03  0.00000000000E+00 0.  1.
          1    1    1    2  501    0  0.11058852030E+02  0.18683364839E+02  0.24284110196E+02  0.32574289524E+02  0.00000000000E+00 0. -1.
<scales pt_clust_5="13000.00000" pt_clust_6="13000.00000" pt_clust_7="13000.00000" pt_clust_8="13000.00000" pt_clust_9="21.71097"></scales>
<clustering>
<clus scale="   21.711">  1  9  2 -1</clus>
<clus scale="   80.601">  5  6 -1 -1</clus>
<clus scale="   82.573">  1  5  2 -1</clus>
<clus scale="   89.018">  7  8 -1 -1</clus>
<clus scale="   21.711">  1  5  2 -1</clus>
</clustering>
</event>
<event>
 9    2  0.9254368E-005  0.1025067E+03  0.7546771E-02  0.1278699E+00
          2   -1    0    0  502    0 -0.00000000000E+00  0.00000000000E+00  0.61346700668E+03  0.61346700668E+03  0.00000000000E+00 0. -1.
         21   -1    0    0  501  502  0.00000000000E+00 -0.00000000000E+00 -0.37501497957E+02  0.37501497957E+02  0.00000000000E+00 0. -1.
         24    2    1    2    0    0  0.88688224911E+01 -0.45345709205E+02  0.40870139982E+03  0.41915755602E+03  0.80754771969E+02 0.  0.
         23    2    1    2    0    0 -0.20580571116E+02  0.76932892821E+02  0.96267890248E+02  0.15322737344E+03  0.88706771856E+02 0.  0.
        -11    1    3    3    0    0 -0.19607074301E+02  0.62724925377E+01  0.33254908009E+02  0.39111001418E+02  0.00000000000E+00 0.  1.
         12    1    3    3    0    0  0.28475896792E+02 -0.51618201743E+02  0.37544649182E+03  0.38004655460E+03  0.00000000000E+00 0. -1.
        -13    1    4    4    0    0  0.26775093409E+02  0.12667665114E+01  0.86959323796E+01  0.28180304548E+02  0.00000000000E+00 0.  1.
         13    1    4    4    0    0 -0.47355664525E+02  0.75666126310E+02  0.87571957868E+02  0.12504706889E+03  0.00000000000E+00 0. -1.
          1    1    1    2  501    0  0.11711748625E+02 -0.31587183616E+02  0.70996218653E+02  0.78583575178E+02  0.00000000000E+00 0. -1.
<scales pt_clust_5="13000.00000" pt_clust_6="13000.00000" pt_clust_7="13000.00000" pt_clust_8="13000.00000" pt_clust_9="33.68852"></scales>
<clustering>
<clus scale="   33.689">  2  9  1 -1</clus>
<clus scale="   80.755">  5  6 -1 -1</clus>
<clus scale="   88.707">  7  8 -1 -1</clus>
<clus scale="   95.708">  1  5  2 -1</clus>
<clus scale="   33.689">  2  5  1 -1</clus>
</clustering>
</event>
<event>
 9    2  0.9254368E-005  0.1026278E+03  0.7546771E-02  0.1280497E+00
         -3   -1    0    0    0  501 -0.00000000000E+00  0.00000000000E+00  0.92638255262E+02  0.92638255262E+02  0.00000000000E+00 0.  1.
         21   -1    0    0  501  502  0.00000000000E+00 -0.00000000000E+00 -0.23490479506E+03  0.23490479506E+03  0.00000000000E+00 0. -1.
         23    2    1    2    0    0 -0.55435270423E+02 -0.23528501108E+02  0.32301460413E+02  0.11292652697E+03  0.89901927548E+02 0.  0.
         24    2    1    2    0    0  0.22845649042E+02  0.85583979241E+00 -0.89447457547E+02  0.12069293858E+03  0.77738546554E+02 0.  0.
        -11    1    4    4    0    0  0.31072548103E+02  0.17189255488E+02 -0.69388286072E+01  0.36181778457E+02  0.00000000000E+00 0.  1.
         12    1    4    4    0    0 -0.82268990606E+01 -0.16333415696E+02 -0.82508628940E+02  0.84511160127E+02  0.00000000000E+00 0. -1.
        -13    1    3    3    0    0 -0.79221975713E+02 -0.11334343274E+02  0.32014825902E+02  0.86194766958E+02  0.00000000000E+00 0. -1.
         13    1    3    3    0    0  0.23786705291E+02 -0.12194157834E+02  0.28663451145E+00  0.26731760010E+02  0.00000000000E+00 0.  1.
         -4    1    1    2    0  502  0.32589621380E+02  0.22672661316E+02 -0.85120542666E+02  0.93923584773E+02  0.00000000000E+00 0.  1.
<scales pt_clust_5="13000.00000" pt_clust_6="13000.00000" pt_clust_7="13000.00000" pt_clust_8="13000.00000" pt_clust_9="39.70054"></scales>
<clustering>
<clus scale="   39.701">  2  9  1 -1</clus>
<clus scale="   77.739">  5  6 -1 -1</clus>
<clus scale="   89.902">  7  8 -1 -1</clus>
<clus scale="   92.160">  2  5  1 -1</clus>
<clus scale="   39.701">  2  5  1 -1</clus>
</clustering>
</event>
<event>
 9    2  0.9254368E-005  0.9381242E+02  0.7546771E-02  0.1298743E+00
         21   -1    0    0  501  502  0.00000000000E+00  0.00000000000E+00  0.46609277533E+02  0.46609277533E+02  0.00000000000E+00 0. -1.
          2   -1    0    0  502    0 -0.00000000000E+00 -0.00000000000E+00 -0.33424186359E+03  0.33424186359E+03  0.00000000000E+00 0. -1.
         23    2    1    2    0    0 -0.20575946196E+02  0.33322721061E+01 -0.24799848702E+03  0.26528609774E+03  0.91863978184E+02 0.  0.
         24    2    1    2    0    0  0.13377193932E+02  0.17574815751E+02 -0.31600930057E+02  0.92039309379E+02  0.83575069394E+02 0.  0.
        -11    1    4    4    0    0  0.20946169107E+02 -0.23094489938E+02 -0.39087893371E+02  0.49999608737E+02  0.00000000000E+00 0.  1.
         12    1    4    4    0    0 -0.75689751749E+01  0.40669305688E+02  0.74869633132E+01  0.42039700641E+02  0.00000000000E+00 0. -1.
        -11    1    3    3    0    0 -0.49398529839E+02 -0.85493189237E+01 -0.21114521822E+03  0.21701522707E+03  0.00000000000E+00 0. -1.
         11    1    3    3    0    0  0.28822583643E+02  0.11881591030E+02 -0.36853268803E+02  0.48270870664E+02  0.00000000000E+00 0.  1.
          1    1    1    2  501    0  0.71987522645E+01 -0.20907087857E+02 -0.80331689778E+01  0.23525734009E+02  0.00000000000E+00 0. -1.
<scales pt_clust_5="13000.00000" pt_clust_6="13000.00000" pt_clust_7="13000.00000" pt_clust_8="13000.00000" pt_clust_9="22.11172"></scales>
<clustering>
<clus scale="   22.112">  1  9  2 -1</clus>
<clus scale="   83.575">  5  6 -1 -1</clus>
<clus scale="   85.712">  1  5  2 -1</clus>
<clus scale="   91.864">  7  8 -1 -1</clus>
<clus scale="   22.112">  1  5  2 -1</clus>
</clustering>
</event>
<event>
 9    2  0.9254368E-005  0.9839121E+02  0.7546771E-02  0.1289556E+00
         21   -1    0    0  501  502  0.00000000000E+00  0.00000000000E+00  0.17651018801E+03  0.17651018801E+03  0.00000000000E+00 0. -1.
         -3   -1    0    0    0  501 -0.00000000000E+00 -0.00000000000E+00 -0.18991434266E+03  0.18991434266E+03  0.00000000000E+00 0.  1.
         23    2    1    2    0    0 -0.41266658189E+02 -0.76430126750E+01 -0.14866232823E+03  0.17923456082E+03  0.90902074995E+02 0.  0.
         24    2    1    2    0    0  0.85931662436E+00 -0.26702076128E+00  0.11833473622E+03  0.14267340424E+03  0.79698059938E+02 0.  0.
        -13    1    4    4    0    0 -0.70405993813E+01 -0.37543489571E+02  0.38618165223E+02  0.54318011138E+02  0.00000000000E+00 0.  1.
         14    1    4    4    0    0  0.78999160056E+01  0.37276468810E+02  0.79716570994E+02  0.88355393106E+02  0.00000000000E+00 0. -1.
        -11    1    3    3    0    0 -0.66126163412E+02 -0.97130620047E+01 -0.13536580467E+03  0.15096659940E+03  0.00000000000E+00 0.  1.
         11    1    3    3    0    0  0.24859505223E+02  0.20700493297E+01 -0.13296523558E+02  0.28267961421E+02  0.00000000000E+00 0. -1.
         -4    1    1    2    0  502  0.40407341565E+02  0.79100334363E+01  0.16923437364E+02  0.44516565608E+02  0.00000000000E+00 0.  1.
<scales pt_clust_5="13000.00000" pt_clust_6="13000.00000" pt_clust_7="13000.00000" pt_clust_8="13000.00000" pt_clust_9="41.17429"></scales>
<clustering>
<clus scale="   41.174">  1  9  2 -1</clus>
<clus scale="   79.698">  5  6 -1 -1</clus>
<clus scale="   88.144">  1  5  2 -1</clus>
<clus scale="   90.902">  7  8 -1 -1</clus>
<clus scale="   41.174">  1  5  2 -1</clus>
</clustering>
</event>
<event>
 9    2  0.9254368E-005  0.9350243E+02  0.7546771E-02  0.1306370E+00
          2   -1    0    0  502    0 -0.00000000000E+00  0.00000000000E+00  0.25024598565E+03  0.25024598565E+03  0.00000000000E+00 0. -1.
         21   -1    0    0  501  502  0.00000000000E+00 -0.00000000000E+00 -0.53753815324E+02  0.53753815324E+02  0.00000000000E+00 0. -1.
         24    2    1    2    0    0  0.15646525253E+02 -0.19081827075E+02  0.13974568267E+03  0.15939416566E+03  0.72585910090E+02 0.  0.
         23    2    1    2    0    0  0.12235443256E+02  0.16586523897E+02  0.66600915971E+02  0.11492836348E+03  0.91367542802E+02 0.  0.
        -11    1    3    3    0    0  0.30526784135E+02 -0.79586251934E+01  0.18166889252E+02  0.36404122427E+02  0.00000000000E+00 0.  1.
         12    1    3    3    0    0 -0.14880258882E+02 -0.11123201882E+02  0.12157879342E+03  0.12299004323E+03  0.00000000000E+00 0. -1.
        -11    1    4    4    0    0 -0.18111493732E+01  0.53484726821E+02  0.31487851802E+02  0.62091715037E+02  0.00000000000E+00 0.  1.
         11    1    4    4    0    0  0.14046592629E+02 -0.36898202923E+02  0.35113064169E+02  0.52836648444E+02  0.00000000000E+00 0. -1.
          1    1    1    2  501    0 -0.27881968509E+02  0.24953031779E+01 -0.98544283200E+01  0.29677271832E+02  0.00000000000E+00 0. -1.
<scales pt_clust_5="13000.00000" pt_clust_6="13000.00000" pt_clust_7="13000.00000" pt_clust_8="13000.00000" pt_clust_9="27.99340"></scales>
<clustering>
<clus scale="   27.993">  2  9  1 -1</clus>
<clus scale="   72.586">  5  6 -1 -1</clus>
<clus scale="   75.256">  1  5  2 -1</clus>
<clus scale="   91.368">  7  8 -1 -1</clus>
<clus scale="   27.993">  2  5  1 -1</clus>
</clustering>
</event>
<event>
 9    2  0.9254368E-005  0.1073936E+03  0.7546771E-02  0.1276590E+00
          2   -1    0    0  502    0 -0.00000000000E+00  0.00000000000E+00  0.31486028706E+03  0.31486028706E+03  0.00000000000E+00 0. -1.
         21   -1    0    0  501  502  0.00000000000E+00 -0.00000000000E+00 -0.12122072100E+03  0.12122072100E+03  0.00000000000E+00 0.  1.
         24    2    1    2    0    0 -0.28052677023E+02  0.13982731751E+02  0.25972582247E+03  0.27368385087E+03  0.80392026312E+02 0.  0.
         23    2    1    2    0    0  0.28166536712E+02 -0.36917614389E+02 -0.24769827581E+02  0.11514179668E+03  0.10241008222E+03 0.  0.
        -11    1    3    3    0    0  0.14534102979E+02 -0.22259896832E+02  0.12532187786E+03  0.12811056251E+03  0.00000000000E+00 0.  1.
         12    1    3    3    0    0 -0.42586780001E+02  0.36242628583E+02  0.13440394461E+03  0.14557328836E+03  0.00000000000E+00 0. -1.
        -11    1    4    4    0    0  0.32314676002E+02 -0.66076219695E+02  0.44039694808E+01  0.73686498366E+02  0.00000000000E+00 0.  1.
         11    1    4    4    0    0 -0.41481392902E+01  0.29158605306E+02 -0.29173797061E+02  0.41455298310E+02  0.00000000000E+00 0. -1.
          1    1    1    2  501    0 -0.11385968938E+00  0.22934882638E+02 -0.41316428833E+02  0.47255360513E+02  0.00000000000E+00 0. -1.
<scales pt_clust_5="13000.00000" pt_clust_6="13000.00000" pt_clust_7="13000.00000" pt_clust_8="13000.00000" pt_clust_9="22.93517"></scales>
<clustering>
<clus scale="   22.935">  2  9  1 -1</clus>
<clus scale="   80.392">  5  6 -1 -1</clus>
<clus scale="   86.651">  1  5  2 -1</clus>
<clus scale="  102.410">  7  8 -1 -1</clus>
<clus scale="   22.935">  2  5  1 -1</clus>
</clustering>
</event>
<event>
 9    2  0.9254368E-005  0.1019737E+03  0.7546771E-02  0.1280727E+00
          2   -1    0    0  502    0 -0.00000000000E+00  0.00000000000E+00  0.35219301169E+03  0.35219301169E+03  0.00000000000E+00 0. -1.
         21   -1    0    0  501  502  0.00000000000E+00 -0.00000000000E+00 -0.95988886976E+02  0.95988886976E+02  0.00000000000E+00 0.  1.
         24    2    1    2    0    0  0.91641531182E+01  0.48919961050E+02  0.26526551980E+03  0.28132213189E+03  0.79367509746E+02 0.  0.
         23    2    1    2    0    0 -0.46504568532E+02 -0.37425720097E+02 -0.42527152824E+02  0.11541677756E+03  0.89157806144E+02 0.  0.
        -13    1    3    3    0    0  0.29108430729E+01  0.63859022363E+02  0.25315079128E+03  0.26109724409E+03  0.00000000000E+00 0.  1.
         14    1    3    3    0    0  0.62533100454E+01 -0.14939061312E+02  0.12114728523E+02  0.20224887802E+02  0.00000000000E+00 0. -1.
        -11    1    4    4    0    0  0.18518926783E+02 -0.22716708032E+02  0.95453397409E+01  0.30823902799E+02  0.00000000000E+00 0. -1.
         11    1    4    4    0    0 -0.65023495315E+02 -0.14709012066E+02 -0.52072492564E+02  0.84592874764E+02  0.00000000000E+00 0.  1.
          1    1    1    2  501    0  0.37340415414E+02 -0.11494240953E+02  0.33465757730E+02  0.51442989210E+02  0.00000000000E+00 0. -1.
<scales pt_clust_5="13000.00000" pt_clust_6="13000.00000" pt_clust_7="13000.00000" pt_clust_8="13000.00000" pt_clust_9="39.06950"></scales>
<clustering>
<clus scale="   39.069">  2  9  1 -1</clus>
<clus scale="   79.368">  5  6 -1 -1</clus>
<clus scale="   89.158">  7  8 -1 -1</clus>
<clus scale="   93.535">  1  5  2 -1</clus>
<clus scale="   39.069">  2  5  1 -1</clus>
</clustering>
</event>
<event>
 9    2  0.9254368E-005  0.1481162E+03  0.7546771E-02  0.1228216E+00
          2   -1    0    0  502    0 -0.00000000000E+00  0.00000000000E+00  0.93688587475E+03  0.93688587475E+03  0.00000000000E+00 0. -1.
         21   -1    0    0  501  502  0.00000000000E+00 -0.00000000000E+00 -0.57672616237E+02  0.57672616237E+02  0.00000000000E+00 0.  1.
         24    2    1    2    0    0 -0.24406983817E+02 -0.21058115471E+02  0.12405249345E+03  0.15124431441E+03  0.80291197669E+02 0.  0.
         23    2    1    2    0    0 -0.95937096066E+02  0.58149543493E+02  0.10328000556E+03  0.17938120090E+03  0.94475181269E+02 0.  0.
        -11    1    3    3    0    0 -0.25261701946E+02 -0.50731050593E+02  0.85741447010E+02  0.10277834799E+03  0.00000000000E+00 0.  1.
         12    1    3    3    0    0  0.85471812947E+00  0.29672935121E+02  0.38311046442E+02  0.48465966422E+02  0.00000000000E+00 0. -1.
        -13    1    4    4    0    0 -0.36355725031E+02  0.45667591588E+02 -0.12862683468E+01  0.58385975630E+02  0.00000000000E+00 0.  1.
         13    1    4    4    0    0 -0.59581371035E+02  0.12481951905E+02  0.10456627391E+03  0.12099522527E+03  0.00000000000E+00 0. -1.
          1    1    1    2  501    0  0.12034407988E+03 -0.37091428022E+02  0.65188075950E+03  0.66393297568E+03  0.00000000000E+00 0. -1.
<scales pt_clust_5="13000.00000" pt_clust_6="13000.00000" pt_clust_7="13000.00000" pt_clust_8="13000.00000" pt_clust_9="114.07388"></scales>
<clustering>
<clus scale="   80.291">  5  6 -1 -1</clus>
<clus scale="   86.521">  1  5  2 -1</clus>
<clus scale="   94.475">  7  8 -1 -1</clus>
<clus scale="  114.074">  2  9  1 -1</clus>
<clus scale="  114.074">  2  5  1 -1</clus>
</clustering>
</event>
<event>
 9    2  0.9254368E-005  0.1028200E+03  0.7546771E-02  0.1277333E+00
         21   -1    0    0  501  502  0.00000000000E+00  0.00000000000E+00  0.50968135247E+02  0.50968135247E+02  0.00000000000E+00 0.  1.
          2   -1    0    0  502    0 -0.00000000000E+00 -0.00000000000E+00 -0.68713244491E+03  0.68713244491E+03  0.00000000000E+00 0. -1.
         23    2    1    2    0    0  0.17087109161E+02 -0.51260089545E+02 -0.30524066769E+03  0.31894730402E+03  0.75072974155E+02 0.  0.
         24    2    1    2    0    0 -0.86680431314E+02  0.78904811820E+02 -0.95289074924E+02  0.17190621277E+03  0.82050421615E+02 0.  0.
        -11    1    4    4    0    0 -0.78366243404E+02  0.82555061029E+02 -0.47631141892E+02  0.12339097165E+03  0.00000000000E+00 0.  1.
         12    1    4    4    0    0 -0.83141879100E+01 -0.36502492093E+01 -0.47657933032E+02  0.48515241118E+02  0.00000000000E+00 0. -1.
        -11    1    3    3    0    0  0.69554783096E+01  0.19616915647E+02 -0.74617296540E+02  0.77465753730E+02  0.00000000000E+00 0. -1.
         11    1    3    3    0    0  0.10131630851E+02 -0.70877005192E+02 -0.23062337115E+03  0.24148155029E+03  0.00000000000E+00 0.  1.
          1    1    1    2  501    0  0.69593322153E+02 -0.27644722275E+02 -0.23563456705E+03  0.24724706337E+03  0.00000000000E+00 0. -1.
<scales pt_clust_5="13000.00000" pt_clust_6="13000.00000" pt_clust_7="13000.00000" pt_clust_8="13000.00000" pt_clust_9="74.88302"></scales>
<clustering>
<clus scale="   74.883">  1  9  2 -1</clus>
<clus scale="   75.073">  7  8 -1 -1</clus>
<clus scale="   82.050">  5  6 -1 -1</clus>
<clus scale="   97.343">  2  7  1 -1</clus>
<clus scale="   74.883">  1  5  2 -1</clus>
</clustering>
</event>
<event>
 9    2  0.9254368E-005  0.3075284E+03  0.7546771E-02  0.1081537E+00
         21   -1    0    0  501  502  0.00000000000E+00  0.00000000000E+00  0.96242685431E+03  0.96242685431E+03  0.00000000000E+00 0. -1.
          4   -1    0    0  502    0 -0.00000000000E+00 -0.00000000000E+00 -0.88503781937E+02  0.88503781937E+02  0.00000000000E+00 0. -1.
         24    2    1    2    0    0  0.66391799887E+02  0.59900561334E+02  0.89050167351E+02  0.14898646136E+03  0.79190182614E+02 0.  0.
         23    2    1    2    0    0  0.14585810963E+03  0.65188036217E+02  0.22649156428E+03  0.29162712367E+03  0.90685623752E+02 0.  0.
        -13    1    3    3    0    0  0.35683108851E+02  0.25898383006E+02  0.93078199153E+02  0.10299301752E+03  0.00000000000E+00 0.  1.
         14    1    3    3    0    0  0.30708691035E+02  0.34002178329E+02 -0.40280318018E+01  0.45993443841E+02  0.00000000000E+00 0. -1.
        -11    1    4    4    0    0  0.43985570385E+02 -0.16309887797E+02  0.97323181405E+02  0.10803955054E+03  0.00000000000E+00 0.  1.
         11    1    4    4    0    0  0.10187253925E+03  0.81497924015E+02  0.12916838288E+03  0.18358757313E+03  0.00000000000E+00 0. -1.
          3    1    1    2  501    0 -0.21224990952E+03 -0.12508859755E+03  0.55838134074E+03  0.61031705122E+03  0.00000000000E+00 0. -1.
<scales pt_clust_5="13000.00000" pt_clust_6="13000.00000" pt_clust_7="13000.00000" pt_clust_8="13000.00000" pt_clust_9="246.36798"></scales>
<clustering>
<clus scale="   79.190">  5  6 -1 -1</clus>
<clus scale="   90.686">  7  8 -1 -1</clus>
<clus scale="  104.106">  5  7 -1 -1</clus>
<clus scale="  246.368">  1  9  2 -1</clus>
<clus scale="  246.368">  1  5  2 -1</clus>
</clustering>
</event>
<event>
 9    2  0.9254368E-005  0.1286512E+03  0.7546771E-02  0.1232590E+00
          2   -1    0    0  502    0 -0.00000000000E+00  0.00000000000E+00  0.75660162049E+03  0.75660162049E+03  0.00000000000E+00 0. -1.
         21   -1    0    0  501  502  0.00000000000E+00 -0.00000000000E+00 -0.53166410167E+02  0.53166410167E+02  0.00000000000E+00 0.  1.
         24    2    1    2    0    0  0.80530511250E+02 -0.36269384426E+02  0.49500737809E+03  0.50907424623E+03  0.79521395342E+02 0.  0.
         23    2    1    2    0    0 -0.74884179790E+02  0.84852589399E+02  0.86079961736E+02  0.16893183894E+03  0.91217345307E+02 0.  0.
        -11    1    3    3    0    0  0.33810126076E+02 -0.58098688543E+02  0.27229076020E+03  0.28046539952E+03  0.00000000000E+00 0.  1.
         12    1    3    3    0    0  0.46720385174E+02  0.21829304117E+02  0.22271661789E+03  0.22860884671E+03  0.00000000000E+00 0. -1.
        -11    1    4    4    0    0 -0.40504925844E+02  0.12112384834E+02 -0.10170947541E+02  0.43483411295E+02  0.00000000000E+00 0.  1.
         11    1    4    4    0    0 -0.34379253946E+02  0.72740204565E+02  0.96250909277E+02  0.12544842765E+03  0.00000000000E+00 0. -1.
          1    1    1    2  501    0 -0.56463314606E+01 -0.48583204973E+02  0.12234787049E+03  0.13176194549E+03  0.00000000000E+00 0. -1.
<scales pt_clust_5="13000.00000" pt_clust_6="13000.00000" pt_clust_7="13000.00000" pt_clust_8="13000.00000" pt_clust_9="48.91024"></scales>
<clustering>
<clus scale="   48.910">  2  9  1 -1</clus>
<clus scale="   79.521">  5  6 -1 -1</clus>
<clus scale="   91.217">  7  8 -1 -1</clus>
<clus scale="  120.641">  1  5  2 -1</clus>
<clus scale="   48.910">  2  5  1 -1</clus>
</clustering>
</event>
<event>
 9    2  0.9254368E-005  0.1174416E+03  0.7546771E-02  0.1249815E+00
         -1   -1    0    0    0  501 -0.00000000000E+00  0.00000000000E+00  0.26335306632E+03  0.26335306632E+03  0.00000000000E+00 0.  1.
         21   -1    0    0  501  502  0.00000000000E+00 -0.00000000000E+00 -0.84196249516E+02  0.84196249516E+02  0.00000000000E+00 0. -1.
         23    2    1    2    0    0  0.58418834748E+02 -0.59428305109E+02  0.17627152079E+03  0.21450291463E+03  0.89416819686E+02 0.  0.
         24    2    1    2    0    0 -0.47473741119E+02  0.37648186501E+02  0.19226721025E+02  0.10370000769E+03  0.81932183852E+02 0.  0.
        -11    1    4    4    0    0 -0.47314054880E+02  0.35769518052E+02  0.47114462833E+02  0.75748602752E+02  0.00000000000E+00 0.  1.
         12    1    4    4    0    0 -0.15968623868E+00  0.18786684494E+01 -0.27887741808E+02  0.27951404938E+02  0.00000000000E+00 0. -1.
        -11    1    3    3    0    0  0.23271768360E+02 -0.70620320485E+02  0.15502666893E+03  0.17193624675E+03  0.00000000000E+00 0.  1.
         11    1    3    3    0    0  0.35147066388E+02  0.11192015375E+02  0.21244851860E+02  0.42566667880E+02  0.00000000000E+00 0. -1.
         -2    1    1    2    0  502 -0.10945093629E+02  0.21780118608E+02 -0.16341425008E+02  0.29346393517E+02  0.00000000000E+00 0.  1.
<scales pt_clust_5="13000.00000" pt_clust_6="13000.00000" pt_clust_7="13000.00000" pt_clust_8="13000.00000" pt_clust_9="24.37557"></scales>
<clustering>
<clus scale="   24.376">  2  9  1 -1</clus>
<clus scale="   81.932">  5  6 -1 -1</clus>
<clus scale="   89.417">  7  8 -1 -1</clus>
<clus scale="  111.848">  2  5  1 -1</clus>
<clus scale="   24.376">  2  5  1 -1</clus>
</clustering>
</event>
<event>
 9    2  0.9254368E-005  0.1003387E+03  0.7546771E-02  0.1284596E+00
         -1   -1    0    0    0  501 -0.00000000000E+00  0.00000000000E+00  0.36013013065E+03  0.36013013065E+03  0.00000000000E+00 0.  1.
         21   -1    0    0  501  502  0.00000000000E+00 -0.00000000000E+00 -0.63663619351E+02  0.63663619351E+02  0.00000000000E+00 0. -1.
         23    2    1    2    0    0  0.41649454700E+02 -0.26821097608E+02  0.29767724661E+03  0.31480381471E+03  0.89641788558E+02 0.  0.
         24    2    1    2    0    0 -0.18188053492E+02  0.15991125578E+02  0.18891877568E+01  0.82964271727E+02  0.79328304947E+02 0.  0.
        -11    1    4    4    0    0 -0.35669157162E+02  0.15183231278E+01  0.30142806637E+02  0.46724542477E+02  0.00000000000E+00 0.  1.
         12    1    4    4    0    0  0.17481103670E+02  0.14472802451E+02 -0.28253618880E+02  0.36239729250E+02  0.00000000000E+00 0. -1.
        -13    1    3    3    0    0  0.16583051400E+02 -0.56387290934E+02  0.12944417023E+03  0.14216299582E+03  0.00000000000E+00 0.  1.
         13    1    3    3    0    0  0.25066403300E+02  0.29566193325E+02  0.16823307638E+03  0.17264081890E+03  0.00000000000E+00 0. -1.
         -2    1    1    2    0  502 -0.23461401208E+02  0.10829972030E+02 -0.30999230647E+01  0.26025663562E+02  0.00000000000E+00 0.  1.
<scales pt_clust_5="13000.00000" pt_clust_6="13000.00000" pt_clust_7="13000.00000" pt_clust_8="13000.00000" pt_clust_9="25.84039"></scales>
<clustering>
<clus scale="   25.840">  2  9  1 -1</clus>
<clus scale="   79.328">  5  6 -1 -1</clus>
<clus scale="   89.642">  7  8 -1 -1</clus>
<clus scale="   91.242">  2  5  1 -1</clus>
<clus scale="   25.840">  2  5  1 -1</clus>
</clustering>
</event>
<event>
 9    2  0.9254368E-005  0.1774687E+03  0.7546771E-02  0.1174020E+00
          2   -1    0    0  502    0 -0.00000000000E+00  0.00000000000E+00  0.27034418654E+03  0.27034418654E+03  0.00000000000E+00 0. -1.
         21   -1    0    0  501  502  0.00000000000E+00 -0.00000000000E+00 -0.13969182735E+03  0.13969182735E+03  0.00000000000E+00 0. -1.
         23    2    1    2    0    0 -0.11271600151E+02 -0.14560641146E+03  0.11043038393E+03  0.21204354781E+03  0.10695475886E+03 0.  0.
         24    2    1    2    0    0 -0.15393248454E+02  0.13670499033E+03  0.39047632352E+02  0.16415971842E+03  0.80613206600E+02 0.  0.
        -13    1    4    4    0    0  0.15172870981E+02  0.38903510718E+02  0.45164783712E+02  0.61510623861E+02  0.00000000000E+00 0.  1.
         14    1    4    4    0    0 -0.30566119436E+02  0.97801479616E+02 -0.61171513606E+01  0.10264909456E+03  0.00000000000E+00 0. -1.
        -13    1    3    3    0    0  0.28223300558E+01 -0.71902547210E+02  0.11631486375E+03  0.13677386217E+03  0.00000000000E+00 0. -1.
         13    1    3    3    0    0 -0.14093930206E+02 -0.73703864254E+02 -0.58844798173E+01  0.75269685647E+02  0.00000000000E+00 0.  1.
          1    1    1    2  501    0  0.26664848605E+02  0.89014211293E+01 -0.18825657093E+02  0.33832747660E+02  0.00000000000E+00 0. -1.
<scales pt_clust_5="13000.00000" pt_clust_6="13000.00000" pt_clust_7="13000.00000" pt_clust_8="13000.00000" pt_clust_9="28.11138"></scales>
<clustering>
<clus scale="   28.111">  2  9  1 -1</clus>
<clus scale="   80.613">  5  6 -1 -1</clus>
<clus scale="  106.955">  7  8 -1 -1</clus>
<clus scale="  162.955">  2  5  1 -1</clus>
<clus scale="   28.111">  2  5  1 -1</clus>
</clustering>
</event>
<event>
 9    2  0.9254368E-005  0.1843729E+03  0.7546771E-02  0.1164731E+00
         -1   -1    0    0    0  501 -0.00000000000E+00  0.00000000000E+00  0.37641478030E+03  0.37641478030E+03  0.00000000000E+00 0.  1.
         21   -1    0    0  501  502  0.00000000000E+00 -0.00000000000E+00 -0.16770833596E+03  0.16770833596E+03  0.00000000000E+00 0.  1.
         24    2    1    2    0    0 -0.21290565972E+02 -0.15332058164E+03  0.18400481307E+03  0.25405452892E+03  0.82008801202E+02 0.  0.
         23    2    1    2    0    0  0.11140232051E+01  0.16973725997E+03  0.95057456370E+02  0.21505830583E+03  0.91663386514E+02 0.  0.
        -11    1    3    3    0    0  0.31422556071E+02 -0.53479937824E+02  0.58905824107E+02  0.85541667586E+02  0.00000000000E+00 0.  1.
         12    1    3    3    0    0 -0.52713122043E+02 -0.99840643816E+02  0.12509898897E+03  0.16851286133E+03  0.00000000000E+00 0. -1.
        -11    1    4    4    0    0 -0.15207323893E+02  0.11880263448E+03  0.17791440635E+02  0.12108618427E+03  0.00000000000E+00 0. -1.
         11    1    4    4    0    0  0.16321347098E+02  0.50934625485E+02  0.77266015735E+02  0.93972121568E+02  0.00000000000E+00 0.  1.
         -2    1    1    2    0  502  0.20176542767E+02 -0.16416678330E+02 -0.70355825111E+02  0.75010281512E+02  0.00000000000E+00 0.  1.
<scales pt_clust_5="13000.00000" pt_clust_6="13000.00000" pt_clust_7="13000.00000" pt_clust_8="13000.00000" pt_clust_9="26.01154"></scales>
<clustering>
<clus scale="   26.012">  2  9  1 -1</clus>
<clus scale="   82.009">  5  6 -1 -1</clus>
<clus scale="   91.663">  7  8 -1 -1</clus>
<clus scale="  179.768">  1  5  2 -1</clus>
<clus scale="   26.012">  2  5  1 -1</clus>
</clustering>
</event>
<event>
 9    2  0.9254368E-005  0.1092224E+03  0.7546771E-02  0.1265467E+00
         21   -1    0    0  501  502  0.00000000000E+00  0.00000000000E+00  0.41636156575E+02  0.41636156575E+02  0.00000000000E+00 0. -1.
          2   -1    0    0  502    0 -0.00000000000E+00 -0.00000000000E+00 -0.81830255469E+03  0.81830255469E+03  0.00000000000E+00 0. -1.
         24    2    1    2    0    0 -0.33340902136E+02 -0.71976068952E+02 -0.55599620681E+03  0.56745121788E+03  0.81098288730E+02 0.  0.
         23    2    1    2    0    0  0.26581301044E+02  0.22104364007E+02 -0.22215793297E+03  0.24213779094E+03  0.89896574709E+02 0.  0.
        -11    1    3    3    0    0 -0.56734837963E+02 -0.56458815852E+02 -0.32297255232E+03  0.33274270733E+03  0.00000000000E+00 0.  1.
         12    1    3    3    0    0  0.23393935827E+02 -0.15517253101E+02 -0.23302365449E+03  0.23470851056E+03  0.00000000000E+00 0. -1.
        -11    1    4    4    0    0  0.19650841499E+02 -0.16260913446E+02 -0.11633810364E+02  0.28034236592E+02  0.00000000000E+00 0. -1.
         11    1    4    4    0    0  0.69304595452E+01  0.38365277453E+02 -0.21052412261E+03  0.21410355434E+03  0.00000000000E+00 0.  1.
          1    1    1    2  501    0  0.67596010912E+01  0.49871704946E+02  0.14877416645E+01  0.50349702446E+02  0.00000000000E+00 0. -1.
<scales pt_clust_5="13000.00000" pt_clust_6="13000.00000" pt_clust_7="13000.00000" pt_clust_8="13000.00000" pt_clust_9="50.32772"></scales>
<clustering>
<clus scale="   50.328">  1  9  2 -1</clus>
<clus scale="   81.098">  5  6 -1 -1</clus>
<clus scale="   89.897">  7  8 -1 -1</clus>
<clus scale="  102.103">  2  5  1 -1</clus>
<clus scale="   50.328">  1  5  2 -1</clus>
</clustering>
</event>
<event>
 9    2  0.9254368E-005  0.9801618E+02  0.7546771E-02  0.1289794E+00
         21   -1    0    0  501  502  0.00000000000E+00  0.00000000000E+00  0.15547937930E+02  0.15547937930E+02  0.00000000000E+00 0.  1.
         -3   -1    0    0    0  501 -0.00000000000E+00 -0.00000000000E+00 -0.10010711912E+04  0.10010711912E+04  0.00000000000E+00 0.  1.
         24    2    1    2    0    0 -0.10675024964E+02  0.14340284323E+02 -0.35647216159E+03  0.36609529752E+03  0.81447927921E+02 0.  0.
         23    2    1    2    0    0  0.59997158534E+02 -0.10941998683E+02 -0.50821469521E+03  0.51996481846E+03  0.91443149736E+02 0.  0.
        -11    1    3    3    0    0 -0.65986325385E+01  0.18978537349E+02 -0.16316220881E+02  0.25883313063E+02  0.00000000000E+00 0.  1.
         12    1    3    3    0    0 -0.40763924257E+01 -0.46382530261E+01 -0.34015594071E+03  0.34021198445E+03  0.00000000000E+00 0. -1.
        -13    1    4    4    0    0 -0.17230918745E+02  0.15819612631E+02 -0.60772515107E+02  0.65118839801E+02  0.00000000000E+00 0. -1.
         13    1    4    4    0    0  0.77228077279E+02 -0.26761611314E+02 -0.44744218011E+03  0.45484597866E+03  0.00000000000E+00 0.  1.
         -4    1    1    2    0  502 -0.49322133570E+02 -0.33982856395E+01 -0.12083639644E+03  0.13055901313E+03  0.00000000000E+00 0.  1.
<scales pt_clust_5="13000.00000" pt_clust_6="13000.00000" pt_clust_7="13000.00000" pt_clust_8="13000.00000" pt_clust_9="49.43907"></scales>
<clustering>
<clus scale="   49.439">  1  9  2 -1</clus>
<clus scale="   81.448">  5  6 -1 -1</clus>
<clus scale="   88.764">  2  5  1 -1</clus>
<clus scale="   91.443">  7  8 -1 -1</clus>
<clus scale="   49.439">  1  5  2 -1</clus>
</clustering>
</event>
<event>
 9    2  0.1161805E-004  0.1216504E+03  0.7546771E-02  0.1244867E+00
         21   -1    0    0  501  502  0.00000000000E+00  0.00000000000E+00  0.50520023132E+03  0.50520023132E+03  0.00000000000E+00 0.  1.
          2   -1    0    0  502    0 -0.00000000000E+00 -0.00000000000E+00 -0.51919847841E+03  0.51919847841E+03  0.00000000000E+00 0. -1.
         23    2    1    2    0    0  0.72876263106E+02 -0.24021200109E+02 -0.48882110681E+03  0.50357992373E+03  0.93587912349E+02 0.  0.
         24    2    1    2    0    0 -0.11288235961E+03  0.67676714547E+02  0.36486507885E+03  0.39593081512E+03  0.79448850173E+02 0.  0.
        -13    1    4    4    0    0 -0.12544001120E+03  0.62567602391E+02  0.33241442967E+03  0.36076204669E+03  0.00000000000E+00 0.  1.
         14    1    4    4    0    0  0.12557651594E+02  0.51091121558E+01  0.32450649182E+02  0.35168768430E+02  0.00000000000E+00 0. -1.
        -11    1    3    3    0    0  0.22063402613E+02  0.29926476922E+02 -0.81616459971E+02  0.89686310516E+02  0.00000000000E+00 0.  1.
         11    1    3    3    0    0  0.50812860493E+02 -0.53947677031E+02 -0.40720464684E+03  0.41389361321E+03  0.00000000000E+00 0. -1.
          1    1    1    2  501    0  0.40006096503E+02 -0.43655514438E+02  0.10995778088E+03  0.12488797089E+03  0.00000000000E+00 0. -1.
<scales pt_clust_5="13000.00000" pt_clust_6="13000.00000" pt_clust_7="13000.00000" pt_clust_8="13000.00000" pt_clust_9="59.21395"></scales>
<clustering>
<clus scale="   59.214">  1  9  2 -1</clus>
<clus scale="   79.449">  5  6 -1 -1</clus>
<clus scale="   93.588">  7  8 -1 -1</clus>
<clus scale="  111.141">  1  5  2 -1</clus>
<clus scale="   59.214">  1  5  2 -1</clus>
</clustering>
</event>
<event>
 9    2  0.9254368E-005  0.1244774E+03  0.7546771E-02  0.1239491E+00
          2   -1    0    0  502    0 -0.00000000000E+00  0.00000000000E+00  0.21275045000E+03  0.21275045000E+03  0.00000000000E+00 0. -1.
         21   -1    0    0  501  502  0.00000000000E+00 -0.00000000000E+00 -0.21638120259E+03  0.21638120259E+03  0.00000000000E+00 0. -1.
         23    2    1    2    0    0  0.48111516789E+02 -0.43042123159E+02 -0.50433655212E+01  0.11231671414E+03  0.91772906277E+02 0.  0.
         24    2    1    2    0    0 -0.10096346721E+03  0.87040468337E+02 -0.10696683400E+03  0.18845884175E+03  0.79405079305E+02 0.  0.
        -13    1    4    4    0    0 -0.27860548617E+01  0.50093734961E+02 -0.37635862006E+02  0.62718438222E+02  0.00000000000E+00 0.  1.
         14    1    4    4    0    0 -0.98177412348E+02  0.36946733376E+02 -0.69330971996E+02  0.12574040353E+03  0.00000000000E+00 0. -1.
        -11    1    3    3    0    0  0.26882422608E+02  0.27127606375E+02 -0.76918903329E+01  0.38958142278E+02  0.00000000000E+00 0.  1.
         11    1    3    3    0    0  0.21229094182E+02 -0.70169729533E+02  0.26485248118E+01  0.73358571866E+02  0.00000000000E+00 0. -1.
          1    1    1    2  501    0  0.52851950420E+02 -0.43998345179E+02  0.10837944693E+03  0.12835609670E+03  0.00000000000E+00 0. -1.
<scales pt_clust_5="13000.00000" pt_clust_6="13000.00000" pt_clust_7="13000.00000" pt_clust_8="13000.00000" pt_clust_9="68.76909"></scales>
<clustering>
<clus scale="   68.769">  2  9  1 -1</clus>
<clus scale="   79.405">  5  6 -1 -1</clus>
<clus scale="   91.773">  7  8 -1 -1</clus>
<clus scale="  115.661">  2  5  1 -1</clus>
<clus scale="   68.769">  2  5  1 -1</clus>
</clustering>
</event>
<event>
 9    2  0.9254368E-005  0.2253145E+03  0.7546771E-02  0.1130211E+00
         21   -1    0    0  501  502  0.00000000000E+00  0.00000000000E+00  0.49736405625E+03  0.49736405625E+03  0.00000000000E+00 0.  1.
          2   -1    0    0  502    0 -0.00000000000E+00 -0.00000000000E+00 -0.35648164631E+03  0.35648164631E+03  0.00000000000E+00 0. -1.
         23    2    1    2    0    0  0.13296914910E+03  0.11978273233E+03  0.37773032402E+02  0.20264024272E+03  0.87221375896E+02 0.  0.
         24    2    1    2    0    0 -0.26433275053E+03 -0.13933894147E+03  0.28810301571E+03  0.42347428662E+03  0.83904589592E+02 0.  0.
        -13    1    4    4    0    0 -0.19771057668E+03 -0.61666295609E+02  0.17710737478E+03  0.27250546113E+03  0.00000000000E+00 0.  1.
         14    1    4    4    0    0 -0.66622173846E+02 -0.77672645861E+02  0.11099564093E+03  0.15096882548E+03  0.00000000000E+00 0. -1.
        -11    1    3    3    0    0  0.94807500799E+02  0.28197903498E+02  0.28791478734E+02  0.10301715011E+03  0.00000000000E+00 0.  1.
         11    1    3    3    0    0  0.38161648305E+02  0.91584828836E+02  0.89815536679E+01  0.99623092607E+02  0.00000000000E+00 0. -1.
          1    1    1    2  501    0  0.13136360143E+03  0.19556209135E+02 -0.18499363817E+03  0.22773117322E+03  0.00000000000E+00 0. -1.
<scales pt_clust_5="13000.00000" pt_clust_6="13000.00000" pt_clust_7="13000.00000" pt_clust_8="13000.00000" pt_clust_9="132.81137"></scales>
<clustering>
<clus scale="   83.905">  5  6 -1 -1</clus>
<clus scale="   87.221">  7  8 -1 -1</clus>
<clus scale="  132.811">  1  9  2 -1</clus>
<clus scale="  224.051">  1  5  2 -1</clus>
<clus scale="  132.811">  1  5  2 -1</clus>
</clustering>
</event>
<event>
 9    2  0.9254368E-005  0.1416066E+03  0.7546771E-02  0.1212220E+00
         -3   -1    0    0    0  501 -0.00000000000E+00  0.00000000000E+00  0.41235990950E+03  0.41235990950E+03  0.00000000000E+00 0.  1.
         21   -1    0    0  501  502  0.00000000000E+00 -0.00000000000E+00 -0.14558951349E+03  0.14558951349E+03  0.00000000000E+00 0. -1.
         24    2    1    2    0    0  0.11229065846E+03  0.10863812799E+02  0.34823872474E+03  0.37549087817E+03  0.83641949812E+02 0.  0.
         23    2    1    2    0    0 -0.95320542555E+02  0.12405404700E+01 -0.40253745420E+02  0.13627259372E+03  0.88669673536E+02 0.  0.
        -11    1    3    3    0    0  0.48537557242E+02  0.81481351134E+01  0.27038534187E+03  0.27482816389E+03  0.00000000000E+00 0.  1.
         12    1    3    3    0    0  0.63753101219E+02  0.27156776858E+01  0.77853382870E+02  0.10066271427E+03  0.00000000000E+00 0. -1.
        -11    1    4    4    0    0 -0.68934975506E+02  0.41961790127E+02 -0.33097449881E+02  0.87225362523E+02  0.00000000000E+00 0. -1.
         11    1    4    4    0    0 -0.26385567049E+02 -0.40721249657E+02 -0.71562955388E+01  0.49047231196E+02  0.00000000000E+00 0.  1.
         -4    1    1    2    0  502 -0.16970115907E+02 -0.12104353269E+02 -0.41214583311E+02  0.46185951105E+02  0.00000000000E+00 0.  1.
<scales pt_clust_5="13000.00000" pt_clust_6="13000.00000" pt_clust_7="13000.00000" pt_clust_8="13000.00000" pt_clust_9="20.84467"></scales>
<clustering>
<clus scale="   20.845">  2  9  1 -1</clus>
<clus scale="   83.642">  5  6 -1 -1</clus>
<clus scale="   88.670">  7  8 -1 -1</clus>
<clus scale="  138.514">  1  5  2 -1</clus>
<clus scale="   20.845">  2  5  1 -1</clus>
</clustering>
</event>
<event>
 9    2  0.9254368E-005  0.2426711E+03  0.7546771E-02  0.1156341E+00
         21   -1    0    0  501  502  0.00000000000E+00  0.00000000000E+00  0.61800670812E+02  0.61800670812E+02  0.00000000000E+00 0. -1.
          2   -1    0    0  502    0 -0.00000000000E+00 -0.00000000000E+00 -0.15053263714E+04  0.15053263714E+04  0.00000000000E+00 0. -1.
         24    2    1    2    0    0 -0.39284800949E+02  0.24616020807E+02 -0.11299526846E+03  0.14815927966E+03  0.83868929825E+02 0.  0.
         23    2    1    2    0    0  0.19474407895E+03 -0.16548101946E+03 -0.90052974488E+03  0.94052118665E+03  0.91197900348E+02 0.  0.
        -13    1    3    3    0    0 -0.48519756303E+02  0.33969754909E+02 -0.11958969789E+03  0.13345338827E+03  0.00000000000E+00 0.  1.
         14    1    3    3    0    0  0.92349553542E+01 -0.93537341019E+01  0.65944294301E+01  0.14705891389E+02  0.00000000000E+00 0. -1.
        -11    1    4    4    0    0  0.15233229541E+03 -0.16521500866E+03 -0.68702943701E+03  0.72284892933E+03  0.00000000000E+00 0. -1.
         11    1    4    4    0    0  0.42411783540E+02 -0.26601079331E+00 -0.21350030787E+03  0.21767225732E+03  0.00000000000E+00 0.  1.
          1    1    1    2  501    0 -0.15545927800E+03  0.14086499865E+03 -0.43000068725E+03  0.47844657591E+03  0.00000000000E+00 0. -1.
<scales pt_clust_5="13000.00000" pt_clust_6="13000.00000" pt_clust_7="13000.00000" pt_clust_8="13000.00000" pt_clust_9="224.88270"></scales>
<clustering>
<clus scale="   83.869">  5  6 -1 -1</clus>
<clus scale="   91.198">  7  8 -1 -1</clus>
<clus scale="   95.829">  2  5  1 -1</clus>
<clus scale="  224.883">  1  9  2 -1</clus>
<clus scale="  224.883">  1  5  2 -1</clus>
</clustering>
</event>
<event>
 9    2  0.9254368E-005  0.1498160E+03  0.7546771E-02  0.1223415E+00
         -3   -1    0    0    0  501 -0.00000000000E+00  0.00000000000E+00  0.29532669572E+03  0.29532669572E+03  0.00000000000E+00 0.  1.
         21   -1    0    0  501  502  0.00000000000E+00 -0.00000000000E+00 -0.14372412610E+03  0.14372412610E+03  0.00000000000E+00 0.  1.
         24    2    1    2    0    0 -0.46122786742E+02 -0.80582538808E+00 -0.92205290643E+01  0.92846316017E+02  0.80046607863E+02 0.  0.
         23    2    1    2    0    0  0.14063340154E+03 -0.45701378544E+02  0.16319696123E+03  0.24084411690E+03  0.97500106995E+02 0.  0.
        -11    1    3    3    0    0 -0.22017617876E+00 -0.30294854236E+02 -0.21214405920E+02  0.36984830529E+02  0.00000000000E+00 0.  1.
         12    1    3    3    0    0 -0.45902610563E+02  0.29489028848E+02  0.11993876856E+02  0.55861485488E+02  0.00000000000E+00 0. -1.
        -13    1    4    4    0    0  0.87957394474E+02  0.57115109177E+01  0.38807269612E+02  0.96307469982E+02  0.00000000000E+00 0. -1.
         13    1    4    4    0    0  0.52676007064E+02 -0.51412889462E+02  0.12438969161E+03  0.14453664692E+03  0.00000000000E+00 0.  1.
         -4    1    1    2    0  502 -0.94510614796E+02  0.46507203932E+02 -0.23738625397E+01  0.10536038890E+03  0.00000000000E+00 0.  1.
<scales pt_clust_5="13000.00000" pt_clust_6="13000.00000" pt_clust_7="13000.00000" pt_clust_8="13000.00000" pt_clust_9="113.74782"></scales>
<clustering>
<clus scale="   80.047">  5  6 -1 -1</clus>
<clus scale="   92.387">  1  5  2 -1</clus>
<clus scale="   97.500">  7  8 -1 -1</clus>
<clus scale="  113.748">  2  9  1 -1</clus>
<clus scale="  113.748">  2  5  1 -1</clus>
</clustering>
</event>
<event>
 9    2  0.9254368E-005  0.9862873E+02  0.7546771E-02  0.1288441E+00
         21   -1    0    0  501  502  0.00000000000E+00  0.00000000000E+00  0.19672333048E+03  0.19672333048E+03  0.00000000000E+00 0.  1.
         -1   -1    0    0    0  501 -0.00000000000E+00 -0.00000000000E+00 -0.67483017639E+02  0.67483017639E+02  0.00000000000E+00 0.  1.
         24    2    1    2    0    0  0.32650953674E+02 -0.56397855321E+01  0.14599274533E+02  0.88074511077E+02  0.80287537811E+02 0.  0.
         23    2    1    2    0    0 -0.50978906109E+02 -0.26965207439E+01  0.64982359672E+02  0.12254646398E+03  0.90492036514E+02 0.  0.
        -13    1    3    3    0    0  0.13845103185E+02 -0.39625891791E+02 -0.85785096169E+01  0.42842607410E+02  0.00000000000E+00 0.  1.
         14    1    3    3    0    0  0.18805850489E+02  0.33986106258E+02  0.23177784150E+02  0.45231903667E+02  0.00000000000E+00 0. -1.
        -13    1    4    4    0    0 -0.63370817617E+02  0.27364923513E+02  0.55798290209E+02  0.88758936195E+02  0.00000000000E+00 0. -1.
         13    1    4    4    0    0  0.12391911508E+02 -0.30061444257E+02  0.91840694630E+01  0.33787527781E+02  0.00000000000E+00 0.  1.
         -2    1    1    2    0  502  0.18327952435E+02  0.83363062760E+01  0.49658678639E+02  0.53585373069E+02  0.00000000000E+00 0.  1.
<scales pt_clust_5="13000.00000" pt_clust_6="13000.00000" pt_clust_7="13000.00000" pt_clust_8="13000.00000" pt_clust_9="20.13474"></scales>
<clustering>
<clus scale="   20.135">  1  9  2 -1</clus>
<clus scale="   80.288">  5  6 -1 -1</clus>
<clus scale="   89.358">  2  5  1 -1</clus>
<clus scale="   90.492">  7  8 -1 -1</clus>
<clus scale="   20.135">  1  5  2 -1</clus>
</clustering>
</event>
<event>
 9    2  0.9254368E-005  0.1538812E+03  0.7546771E-02  0.1211209E+00
         21   -1    0    0  501  502  0.00000000000E+00  0.00000000000E+00  0.16699280292E+03  0.16699280292E+03  0.00000000000E+00 0.  1.
         -3   -1    0    0    0  501 -0.00000000000E+00 -0.00000000000E+00 -0.25993870265E+03  0.25993870265E+03  0.00000000000E+00 0.  1.
         24    2    1    2    0    0 -0.10031203531E+02 -0.73446086474E+02  0.55819080191E+01  0.11043276674E+03  0.81665694209E+02 0.  0.
         23    2    1    2    0    0  0.13037225949E+03  0.38313997841E+02 -0.98870665414E+02  0.19113386755E+03  0.91059641819E+02 0.  0.
        -11    1    3    3    0    0 -0.44136693164E+02 -0.46383715074E+02  0.15285318649E+02  0.65826572702E+02  0.00000000000E+00 0.  1.
         12    1    3    3    0    0  0.34105489633E+02 -0.27062371400E+02 -0.97034106298E+01  0.44606194040E+02  0.00000000000E+00 0. -1.
        -11    1    4    4    0    0  0.33774661644E+02  0.43529077389E+02 -0.72135635456E+02  0.90769258288E+02  0.00000000000E+00 0. -1.
         11    1    4    4    0    0  0.96597597848E+02 -0.52150795484E+01 -0.26735029958E+02  0.10036460926E+03  0.00000000000E+00 0.  1.
         -4    1    1    2    0  502 -0.12034105596E+03  0.35132088633E+02  0.34285766268E+00  0.12536487129E+03  0.00000000000E+00 0.  1.
<scales pt_clust_5="13000.00000" pt_clust_6="13000.00000" pt_clust_7="13000.00000" pt_clust_8="13000.00000" pt_clust_9="124.04669"></scales>
<clustering>
<clus scale="   81.666">  5  6 -1 -1</clus>
<clus scale="   91.060">  7  8 -1 -1</clus>
<clus scale="  110.292">  2  5  1 -1</clus>
<clus scale="  124.047">  1  9  2 -1</clus>
<clus scale="  124.047">  1  5  2 -1</clus>
</clustering>
</event>
<event>
 9    2  0.9254368E-005  0.1809727E+03  0.7546771E-02  0.1168742E+00
         21   -1    0    0  501  502  0.00000000000E+00  0.00000000000E+00  0.68992451165E+03  0.68992451165E+03  0.00000000000E+00 0.  1.
         -1   -1    0    0    0  501 -0.00000000000E+00 -0.00000000000E+00 -0.11131505656E+03  0.11131505656E+03  0.00000000000E+00 0.  1.
         24    2    1    2    0    0  0.14854018569E+03 -0.49959924500E+02  0.13398214925E+03  0.22137678987E+03  0.80599540672E+02 0.  0.
         23    2    1    2    0    0 -0.12947169068E+03  0.65947850839E+02  0.49442996466E+03  0.52418939047E+03  0.95924394255E+02 0.  0.
        -13    1    3    3    0    0  0.80859180069E+02 -0.23205492418E+02  0.20536023456E+02  0.86593476309E+02  0.00000000000E+00 0.  1.
         14    1    3    3    0    0  0.67681005618E+02 -0.26754432082E+02  0.11344612579E+03  0.13478331356E+03  0.00000000000E+00 0. -1.
        -13    1    4    4    0    0 -0.11456614862E+03  0.13609955758E+02  0.38594778668E+03  0.40282294789E+03  0.00000000000E+00 0. -1.
         13    1    4    4    0    0 -0.14905542063E+02  0.52337895081E+02  0.10848217798E+03  0.12136644258E+03  0.00000000000E+00 0.  1.
         -2    1    1    2    0  502 -0.19068495009E+02 -0.15987926338E+02 -0.49802658818E+02  0.55673387861E+02  0.00000000000E+00 0.  1.
<scales pt_clust_5="13000.00000" pt_clust_6="13000.00000" pt_clust_7="13000.00000" pt_clust_8="13000.00000" pt_clust_9="24.88417"></scales>
<clustering>
<clus scale="   24.884">  1  9  2 -1</clus>
<clus scale="   80.600">  5  6 -1 -1</clus>
<clus scale="   95.924">  7  8 -1 -1</clus>
<clus scale="  173.338">  2  5  1 -1</clus>
<clus scale="   24.884">  1  5  2 -1</clus>
</clustering>
</event>
<event>
 9    2  0.9254368E-005  0.9898027E+02  0.7546771E-02  0.1287927E+00
         -1   -1    0    0    0  501 -0.00000000000E+00  0.00000000000E+00  0.18273618548E+03  0.18273618548E+03  0.00000000000E+00 0.  1.
         21   -1    0    0  501  502  0.00000000000E+00 -0.00000000000E+00 -0.11687671850E+03  0.11687671850E+03  0.00000000000E+00 0.  1.
         24    2    1    2    0    0 -0.36134268675E+02 -0.27909789486E+02  0.11568029670E+03  0.14846746421E+03  0.81092633230E+02 0.  0.
         23    2    1    2    0    0 -0.80460466993E+01  0.92164840430E+01 -0.45225105916E+02  0.10295352538E+03  0.91675709640E+02 0.  0.
        -11    1    3    3    0    0 -0.31107930807E+02 -0.54564411533E+02  0.96902133147E+02  0.11547727817E+03  0.00000000000E+00 0.  1.
         12    1    3    3    0    0 -0.50263378680E+01  0.26654622047E+02  0.18778163549E+02  0.32990186042E+02  0.00000000000E+00 0. -1.
        -11    1    4    4    0    0 -0.86758228374E+01 -0.39367621792E+02 -0.34809651581E+02  0.53261537630E+02  0.00000000000E+00 0.  1.
         11    1    4    4    0    0  0.62977613806E+00  0.48584105835E+02 -0.10415454335E+02  0.49691987753E+02  0.00000000000E+00 0. -1.
         -2    1    1    2    0  502  0.44180315374E+02  0.18693305443E+02 -0.45957237901E+01  0.48191914385E+02  0.00000000000E+00 0.  1.
<scales pt_clust_5="13000.00000" pt_clust_6="13000.00000" pt_clust_7="13000.00000" pt_clust_8="13000.00000" pt_clust_9="47.97228"></scales>
<clustering>
<clus scale="   47.972">  2  9  1 -1</clus>
<clus scale="   81.093">  5  6 -1 -1</clus>
<clus scale="   89.267">  1  5  2 -1</clus>
<clus scale="   91.676">  7  8 -1 -1</clus>
<clus scale="   47.972">  2  5  1 -1</clus>
</clustering>
</event>
<event>
 9    2  0.9254368E-005  0.9237868E+02  0.7546771E-02  0.1304534E+00
          2   -1    0    0  502    0 -0.00000000000E+00  0.00000000000E+00  0.58086461571E+03  0.58086461571E+03  0.00000000000E+00 0. -1.
         21   -1    0    0  501  502  0.00000000000E+00 -0.00000000000E+00 -0.33824087040E+02  0.33824087040E+02  0.00000000000E+00 0. -1.
         23    2    1    2    0    0  0.29775427274E+02  0.13866889261E+02  0.17853360365E+03  0.20345908858E+03  0.91883003913E+02 0.  0.
         24    2    1    2    0    0  0.20840501227E+02  0.29041840237E+02  0.93054757004E+02  0.12789760371E+03  0.80130233105E+02 0.  0.
        -13    1    4    4    0    0 -0.45919073294E+01  0.41724584970E+02  0.14581878711E+02  0.44437121763E+02  0.00000000000E+00 0.  1.
         14    1    4    4    0    0  0.25432408556E+02 -0.12682744733E+02  0.78472878293E+02  0.83460481945E+02  0.00000000000E+00 0. -1.
        -13    1    3    3    0    0 -0.28089016721E+01  0.49165727284E+02  0.82497138071E+02  0.96077762556E+02  0.00000000000E+00 0. -1.
         13    1    3    3    0    0  0.32584328946E+02 -0.35298838022E+02  0.96036465576E+02  0.10738132602E+03  0.00000000000E+00 0.  1.
          1    1    1    2  501    0 -0.50615928500E+02 -0.42908729498E+02  0.27545216802E+03  0.28333201046E+03  0.00000000000E+00 0. -1.
<scales pt_clust_5="13000.00000" pt_clust_6="13000.00000" pt_clust_7="13000.00000" pt_clust_8="13000.00000" pt_clust_9="66.35613"></scales>
<clustering>
<clus scale="   66.356">  2  9  1 -1</clus>
<clus scale="   80.130">  5  6 -1 -1</clus>
<clus scale="   80.698">  2  5  1 -1</clus>
<clus scale="   91.883">  7  8 -1 -1</clus>
<clus scale="   66.356">  2  5  1 -1</clus>
</clustering>
</event>
<event>
 9    2  0.9254368E-005  0.1023870E+03  0.7546771E-02  0.1280881E+00
         21   -1    0    0  501  502  0.00000000000E+00  0.00000000000E+00  0.38404405580E+03  0.38404405580E+03  0.00000000000E+00 0. -1.
         -1   -1    0    0    0  501 -0.00000000000E+00 -0.00000000000E+00 -0.12775665386E+03  0.12775665386E+03  0.00000000000E+00 0.  1.
         24    2    1    2    0    0 -0.38090275986E+02  0.15794882125E+02 -0.84318523005E+02  0.12380207004E+03  0.80727887357E+02 0.  0.
         23    2    1    2    0    0  0.90966230096E+02 -0.15042272749E+02  0.26930624371E+03  0.29922883908E+03  0.92254648923E+02 0.  0.
        -11    1    3    3    0    0 -0.10911615261E+02  0.43726376268E+02 -0.67938602378E+02  0.81527375907E+02  0.00000000000E+00 0.  1.
         12    1    3    3    0    0 -0.27178660725E+02 -0.27931494143E+02 -0.16379920627E+02  0.42274694128E+02  0.00000000000E+00 0. -1.
        -13    1    4    4    0    0  0.25568170034E+02  0.32245467914E+02  0.45665825223E+02  0.61472506970E+02  0.00000000000E+00 0.  1.
         13    1    4    4    0    0  0.65398060062E+02 -0.47287740663E+02  0.22364041849E+03  0.23775633211E+03  0.00000000000E+00 0. -1.
         -2    1    1    2    0  502 -0.52875954109E+02 -0.75260937558E+00  0.71299681240E+02  0.88769800545E+02  0.00000000000E+00 0.  1.
<scales pt_clust_5="13000.00000" pt_clust_6="13000.00000" pt_clust_7="13000.00000" pt_clust_8="13000.00000" pt_clust_9="52.88131"></scales>
<clustering>
<clus scale="   52.881">  1  9  2 -1</clus>
<clus scale="   80.728">  5  6 -1 -1</clus>
<clus scale="   92.137">  2  5  1 -1</clus>
<clus scale="   92.255">  7  8 -1 -1</clus>
<clus scale="   52.881">  1  5  2 -1</clus>
</clustering>
</event>
<event>
 9    2  0.9254368E-005  0.1001383E+03  0.7546771E-02  0.1285376E+00
          2   -1    0    0  502    0 -0.00000000000E+00  0.00000000000E+00  0.40918234085E+03  0.40918234085E+03  0.00000000000E+00 0. -1.
         21   -1    0    0  501  502  0.00000000000E+00 -0.00000000000E+00 -0.15901896400E+03  0.15901896400E+03  0.00000000000E+00 0. -1.
         24    2    1    2    0    0 -0.25536424081E+02 -0.38455375802E+02  0.33383692523E+03  0.34686031726E+03  0.82061331698E+02 0.  0.
         23    2    1    2    0    0  0.11497027524E+02 -0.17757092634E+02  0.24943510529E+02  0.98236918817E+02  0.92632702220E+02 0.  0.
        -13    1    3    3    0    0 -0.31838009546E+02 -0.56567511888E+02  0.17113363551E+03  0.18303077188E+03  0.00000000000E+00 0.  1.
         14    1    3    3    0    0  0.63015854643E+01  0.18112136086E+02  0.16270328972E+03  0.16382954538E+03  0.00000000000E+00 0. -1.
        -13    1    4    4    0    0  0.47919609171E+02 -0.29299765575E+02  0.92142935262E+01  0.56918085097E+02  0.00000000000E+00 0. -1.
         13    1    4    4    0    0 -0.36422581648E+02  0.11542672941E+02  0.15729217003E+02  0.41318833721E+02  0.00000000000E+00 0.  1.
          1    1    1    2  501    0  0.14039396558E+02  0.56212468436E+02 -0.10861705891E+03  0.12310406878E+03  0.00000000000E+00 0. -1.
<scales pt_clust_5="13000.00000" pt_clust_6="13000.00000" pt_clust_7="13000.00000" pt_clust_8="13000.00000" pt_clust_9="57.93916"></scales>
<clustering>
<clus scale="   57.939">  2  9  1 -1</clus>
<clus scale="   82.061">  5  6 -1 -1</clus>
<clus scale="   90.448">  1  5  2 -1</clus>
<clus scale="   92.633">  7  8 -1 -1</clus>
<clus scale="   57.939">  2  5  1 -1</clus>
</clustering>
</event>
<event>
 9    2  0.9254368E-005  0.2308772E+03  0.7546771E-02  0.1161401E+00
          2   -1    0    0  502    0 -0.00000000000E+00  0.00000000000E+00  0.58118575851E+03  0.58118575851E+03  0.00000000000E+00 0. -1.
         21   -1    0    0  501  502  0.00000000000E+00 -0.00000000000E+00 -0.15045465366E+03  0.15045465366E+03  0.00000000000E+00 0. -1.
         24    2    1    2    0    0  0.23152689005E+02 -0.51961940807E+02 -0.26995170194E+01  0.98925332501E+02  0.80887846539E+02 0.  0.
         23    2    1    2    0    0 -0.33313386839E+02  0.23100774672E+03  0.13565282125E+03  0.28510573150E+03  0.91701850766E+02 0.  0.
        -11    1    3    3    0    0  0.37753784138E+02 -0.20559004175E+02  0.29097680824E+02  0.51910460398E+02  0.00000000000E+00 0.  1.
         12    1    3    3    0    0 -0.14601095134E+02 -0.31402936632E+02 -0.31797197843E+02  0.47014872103E+02  0.00000000000E+00 0. -1.
        -13    1    4    4    0    0  0.18902232553E+02  0.19109957544E+02 -0.22127308926E+01  0.26970002796E+02  0.00000000000E+00 0.  1.
         13    1    4    4    0    0 -0.52215619391E+02  0.21189778917E+03  0.13786555215E+03  0.25813572870E+03  0.00000000000E+00 0. -1.
          1    1    1    2  501    0  0.10160697834E+02 -0.17904580591E+03  0.29777780061E+03  0.34760934817E+03  0.00000000000E+00 0. -1.
<scales pt_clust_5="13000.00000" pt_clust_6="13000.00000" pt_clust_7="13000.00000" pt_clust_8="13000.00000" pt_clust_9="211.88464"></scales>
<clustering>
<clus scale="   80.888">  5  6 -1 -1</clus>
<clus scale="   91.702">  7  8 -1 -1</clus>
<clus scale="   98.889">  1  5  2 -1</clus>
<clus scale="  211.885">  2  9  1 -1</clus>
<clus scale="  211.885">  2  5  1 -1</clus>
</clustering>
</event>
<event>
 9    2  0.9254368E-005  0.1118772E+03  0.7546771E-02  0.1265380E+00
         21   -1    0    0  501  502  0.00000000000E+00  0.00000000000E+00  0.42823580207E+03  0.42823580207E+03  0.00000000000E+00 0. -1.
         -1   -1    0    0    0  501 -0.00000000000E+00 -0.00000000000E+00 -0.97191895930E+02  0.97191895930E+02  0.00000000000E+00 0.  1.
         23    2    1    2    0    0  0.37322372884E+02 -0.45661431268E+02 -0.49369103674E+02  0.12119559389E+03  0.93665029530E+02 0.  0.
         24    2    1    2    0    0 -0.62494316537E+02  0.53648212087E+02  0.31705829302E+03  0.33559366332E+03  0.72893589739E+02 0.  0.
        -13    1    4    4    0    0 -0.16763592677E+02 -0.18087809498E+02  0.81159985574E+02  0.84824113023E+02  0.00000000000E+00 0.  1.
         14    1    4    4    0    0 -0.45730723860E+02  0.71736021585E+02  0.23589830745E+03  0.25076955030E+03  0.00000000000E+00 0. -1.
        -11    1    3    3    0    0  0.34387140130E+02  0.11083389632E+02 -0.53130201925E+02  0.64250566446E+02  0.00000000000E+00 0.  1.
         11    1    3    3    0    0  0.29352327540E+01 -0.56744820899E+02  0.37610982508E+01  0.56945027441E+02  0.00000000000E+00 0. -1.
         -2    1    1    2    0  502  0.25171943654E+02 -0.79867808190E+01  0.63354716794E+02  0.68638440798E+02  0.00000000000E+00 0.  1.
<scales pt_clust_5="13000.00000" pt_clust_6="13000.00000" pt_clust_7="13000.00000" pt_clust_8="13000.00000" pt_clust_9="26.40862"></scales>
<clustering>
<clus scale="   26.409">  1  9  2 -1</clus>
<clus scale="   72.894">  5  6 -1 -1</clus>
<clus scale="   93.665">  7  8 -1 -1</clus>
<clus scale="   95.167">  1  5  2 -1</clus>
<clus scale="   26.409">  1  5  2 -1</clus>
</clustering>
</event>
<event>
 9    2  0.9254368E-005  0.2342950E+03  0.7546771E-02  0.1123653E+00
          2   -1    0    0  502    0 -0.00000000000E+00  0.00000000000E+00  0.14014674706E+04  0.14014674706E+04  0.00000000000E+00 0. -1.
         21   -1    0    0  501  502  0.00000000000E+00 -0.00000000000E+00 -0.30661645263E+02  0.30661645263E+02  0.00000000000E+00 0.  1.
         24    2    1    2    0    0  0.68903791291E+02 -0.54525531962E+01  0.57312782673E+03  0.58285313927E+03  0.80404063301E+02 0.  0.
         23    2    1    2    0    0  0.77564890043E+02 -0.35694619008E+02  0.49311471918E+03  0.50882780790E+03  0.91941252032E+02 0.  0.
        -11    1    3    3    0    0  0.24125938627E+02  0.33033228100E+02  0.14451870866E+03  0.15019624572E+03  0.00000000000E+00 0.  1.
         12    1    3    3    0    0  0.44777852664E+02 -0.38485781297E+02  0.42860911806E+03  0.43265689355E+03  0.00000000000E+00 0. -1.
        -13    1    4    4    0    0  0.86948594417E+02 -0.54792535424E+01  0.42338888015E+03  0.43225944076E+03  0.00000000000E+00 0.  1.
         13    1    4    4    0    0 -0.93837043733E+01 -0.30215365466E+02  0.69725839030E+02  0.76568367139E+02  0.00000000000E+00 0. -1.
          1    1    1    2  501    0 -0.14646868133E+03  0.41147172204E+02  0.30456327944E+03  0.34044816871E+03  0.00000000000E+00 0. -1.
<scales pt_clust_5="13000.00000" pt_clust_6="13000.00000" pt_clust_7="13000.00000" pt_clust_8="13000.00000" pt_clust_9="152.13864"></scales>
<clustering>
<clus scale="   80.404">  5  6 -1 -1</clus>
<clus scale="   91.941">  7  8 -1 -1</clus>
<clus scale="  100.317">  5  7 -1 -1</clus>
<clus scale="  152.139">  2  9  1 -1</clus>
<clus scale="  152.139">  2  5  1 -1</clus>
</clustering>
</event>
<event>
 9    2  0.9254368E-005  0.1052968E+03  0.7546771E-02  0.1272373E+00
         21   -1    0    0  501  502  0.00000000000E+00  0.00000000000E+00  0.12499629315E+03  0.12499629315E+03  0.00000000000E+00 0. -1.
          4   -1    0    0  502    0 -0.00000000000E+00 -0.00000000000E+00 -0.40358434178E+03  0.40358434178E+03  0.00000000000E+00 0. -1.
         23    2    1    2    0    0  0.16973058157E+02  0.58692484119E+02 -0.29934073505E+03  0.31898517389E+03  0.91726621594E+02 0.  0.
         24    2    1    2    0    0 -0.65993188078E+02  0.28104650116E+02  0.24293048160E+01  0.10824230636E+03  0.81027915771E+02 0.  0.
        -13    1    4    4    0    0 -0.61330775826E+02  0.65635064981E+01 -0.30349157900E+02  0.68743109228E+02  0.00000000000E+00 0.  1.
         14    1    4    4    0    0 -0.46624122521E+01  0.21541143617E+02  0.32778462716E+02  0.39499197136E+02  0.00000000000E+00 0. -1.
        -13    1    3    3    0    0 -0.32025560166E+02  0.41224503561E+02 -0.20177155354E+03  0.20841510505E+03  0.00000000000E+00 0. -1.
         13    1    3    3    0    0  0.48998618323E+02  0.17467980559E+02 -0.97569181509E+02  0.11057006884E+03  0.00000000000E+00 0.  1.
          3    1    1    2  501    0  0.49020129922E+02 -0.86797134235E+02  0.18323381599E+02  0.10135315467E+03  0.00000000000E+00 0. -1.
<scales pt_clust_5="13000.00000" pt_clust_6="13000.00000" pt_clust_7="13000.00000" pt_clust_8="13000.00000" pt_clust_9="99.68308"></scales>
<clustering>
<clus scale="   81.028">  5  6 -1 -1</clus>
<clus scale="   91.727">  7  8 -1 -1</clus>
<clus scale="   99.683">  1  9  2 -1</clus>
<clus scale="   99.683">  1  5  2 -1</clus>
<clus scale="   99.683">  1  5  2 -1</clus>
</clustering>
</event>
<event>
 9    2  0.9254368E-005  0.1483119E+03  0.7546771E-02  0.1212534E+00
         -1   -1    0    0    0  501 -0.00000000000E+00  0.00000000000E+00  0.33025789273E+03  0.33025789273E+03  0.00000000000E+00 0.  1.
         21   -1    0    0  501  502  0.00000000000E+00 -0.00000000000E+00 -0.21270998127E+03  0.21270998127E+03  0.00000000000E+00 0. -1.
         24    2    1    2    0    0 -0.27558669687E+02 -0.84041699092E+02  0.17284923788E+03  0.21028510318E+03  0.80749477524E+02 0.  0.
         23    2    1    2    0    0 -0.92709460393E+02  0.83177685354E+02 -0.12054429694E+03  0.19585508783E+03  0.91185067409E+02 0.  0.
        -11    1    3    3    0    0 -0.27549985192E+02 -0.94160374432E+02  0.17434802928E+03  0.20005602493E+03  0.00000000000E+00 0.  1.
         12    1    3    3    0    0 -0.86844948866E-02  0.10118675341E+02 -0.14987913995E+01  0.10229078244E+02  0.00000000000E+00 0. -1.
        -11    1    4    4    0    0 -0.80969105778E+02  0.10300035101E+03 -0.10678109044E+03  0.16901854832E+03  0.00000000000E+00 0. -1.
         11    1    4    4    0    0 -0.11740354615E+02 -0.19822665656E+02 -0.13763206496E+02  0.26836539517E+02  0.00000000000E+00 0.  1.
         -2    1    1    2    0  502  0.12026813008E+03  0.86401373773E+00  0.65242970518E+02  0.13682768300E+03  0.00000000000E+00 0.  1.
<scales pt_clust_5="13000.00000" pt_clust_6="13000.00000" pt_clust_7="13000.00000" pt_clust_8="13000.00000" pt_clust_9="116.96890"></scales>
<clustering>
<clus scale="   80.749">  5  6 -1 -1</clus>
<clus scale="   91.185">  7  8 -1 -1</clus>
<clus scale="  119.762">  1  5  2 -1</clus>
<clus scale="  116.969">  2  9  1 -1</clus>
<clus scale="  116.969">  2  5  1 -1</clus>
</clustering>
</event>
<event>
 9    2  0.9254368E-005  0.1404613E+03  0.7546771E-02  0.1214877E+00
         21   -1    0    0  501  502  0.00000000000E+00  0.00000000000E+00  0.72959438502E+02  0.72959438502E+02  0.00000000000E+00 0. -1.
          2   -1    0    0  502    0 -0.00000000000E+00 -0.00000000000E+00 -0.72778811408E+03  0.72778811408E+03  0.00000000000E+00 0. -1.
         24    2    1    2    0    0  0.38917824884E+02  0.89545375461E+02 -0.47691858618E+03  0.49344809156E+03  0.80664179580E+02 0.  0.
         23    2    1    2    0    0 -0.79251979389E+02 -0.14057701185E+03 -0.13874679435E+03  0.23137294647E+03  0.90774417763E+02 0.  0.
        -13    1    3    3    0    0  0.47770017846E+02  0.38515910888E+02 -0.36505852984E+03  0.37017992950E+03  0.00000000000E+00 0.  1.
         14    1    3    3    0    0 -0.88521929622E+01  0.51029464573E+02 -0.11186005634E+03  0.12326816207E+03  0.00000000000E+00 0. -1.
        -13    1    4    4    0    0 -0.90977673758E+01 -0.34072952957E+02  0.87998814879E+01  0.36347949167E+02  0.00000000000E+00 0.  1.
         13    1    4    4    0    0 -0.70154212014E+02 -0.10650405889E+03 -0.14754667584E+03  0.19502499731E+03  0.00000000000E+00 0. -1.
          1    1    1    2  501    0  0.40334154505E+02  0.51031636385E+02 -0.39163295050E+02  0.75926514545E+02  0.00000000000E+00 0. -1.
<scales pt_clust_5="13000.00000" pt_clust_6="13000.00000" pt_clust_7="13000.00000" pt_clust_8="13000.00000" pt_clust_9="65.04669"></scales>
<clustering>
<clus scale="   65.047">  1  9  2 -1</clus>
<clus scale="   80.664">  5  6 -1 -1</clus>
<clus scale="   90.774">  7  8 -1 -1</clus>
<clus scale="  134.149">  2  5  1 -1</clus>
<clus scale="   65.047">  1  5  2 -1</clus>
</clustering>
</event>
<event>
 9    2  0.9254368E-005  0.1331124E+03  0.7546771E-02  0.1240837E+00
         21   -1    0    0  501  502  0.00000000000E+00  0.00000000000E+00  0.84261646860E+02  0.84261646860E+02  0.00000000000E+00 0. -1.
          4   -1    0    0  502    0 -0.00000000000E+00 -0.00000000000E+00 -0.58979507888E+03  0.58979507888E+03  0.00000000000E+00 0. -1.
         23    2    1    2    0    0 -0.36125808273E+01  0.82662169571E+01 -0.52442818234E+02  0.10592544120E+03  0.91589130507E+02 0.  0.
         24    2    1    2    0    0  0.97825922901E+02  0.40100503481E+02 -0.44207830688E+03  0.46165704176E+03  0.80721950095E+02 0.  0.
        -13    1    4    4    0    0  0.15731614593E+02  0.19557998767E+02 -0.22753041478E+02  0.33877719965E+02  0.00000000000E+00 0.  1.
         14    1    4    4    0    0  0.82094308308E+02  0.20542504713E+02 -0.41932526540E+03  0.42777932180E+03  0.00000000000E+00 0. -1.
        -11    1    3    3    0    0 -0.37730103550E+02  0.32494939974E+02 -0.33344784599E+02  0.59927927527E+02  0.00000000000E+00 0. -1.
         11    1    3    3    0    0  0.34117522723E+02 -0.24228723017E+02 -0.19098033636E+02  0.45997513677E+02  0.00000000000E+00 0.  1.
          3    1    1    2  501    0 -0.94213342074E+02 -0.48366720438E+02 -0.11012306909E+02  0.10647424277E+03  0.00000000000E+00 0. -1.
<scales pt_clust_5="13000.00000" pt_clust_6="13000.00000" pt_clust_7="13000.00000" pt_clust_8="13000.00000" pt_clust_9="105.84371"></scales>
<clustering>
<clus scale="   80.722">  5  6 -1 -1</clus>
<clus scale="   91.589">  7  8 -1 -1</clus>
<clus scale="   92.032">  2  7  1 -1</clus>
<clus scale="  105.844">  1  9  2 -1</clus>
<clus scale="  105.844">  1  5  2 -1</clus>
</clustering>
</event>
<event>
 9    2  0.9254368E-005  0.1054358E+03  0.7546771E-02  0.1269520E+00
         21   -1    0    0  501  502  0.00000000000E+00  0.00000000000E+00  0.23690441232E+03  0.23690441232E+03  0.00000000000E+00 0.  1.
          4   -1    0    0  502    0 -0.00000000000E+00 -0.00000000000E+00 -0.25854478416E+03  0.25854478416E+03  0.00000000000E+00 0. -1.
         23    2    1    2    0    0 -0.10142274454E+02 -0.64094474008E+02 -0.21215590990E+03  0.23758205605E+03  0.84994917034E+02 0.  0.
         24    2    1    2    0    0 -0.36576993070E+02  0.31178301677E+02  0.17250778215E+03  0.19794682976E+03  0.84344825504E+02 0.  0.
        -11    1    4    4    0    0 -0.23716705404E+02 -0.17932415971E+02  0.12475944813E+03  0.12825355183E+03  0.00000000000E+00 0.  1.
         12    1    4    4    0    0 -0.12860287665E+02  0.49110717648E+02  0.47748334022E+02  0.69693277930E+02  0.00000000000E+00 0. -1.
        -13    1    3    3    0    0 -0.31210403991E+02  0.63455389241E+01 -0.83977370751E+02  0.89813996569E+02  0.00000000000E+00 0.  1.
         13    1    3    3    0    0  0.21068129537E+02 -0.70440012932E+02 -0.12817853915E+03  0.14776805948E+03  0.00000000000E+00 0. -1.
          3    1    1    2  501    0  0.46719267524E+02  0.32916172332E+02  0.18007755911E+02  0.59920310679E+02  0.00000000000E+00 0. -1.
<scales pt_clust_5="13000.00000" pt_clust_6="13000.00000" pt_clust_7="13000.00000" pt_clust_8="13000.00000" pt_clust_9="57.15037"></scales>
<clustering>
<clus scale="   57.150">  1  9  2 -1</clus>
<clus scale="   84.345">  5  6 -1 -1</clus>
<clus scale="   84.995">  7  8 -1 -1</clus>
<clus scale="  104.912">  1  5  2 -1</clus>
<clus scale="   57.150">  1  5  2 -1</clus>
</clustering>
</event>
<event>
 9    2  0.9254368E-005  0.9720246E+02  0.7546771E-02  0.1291423E+00
         21   -1    0    0  501  502  0.00000000000E+00  0.00000000000E+00  0.33228584954E+03  0.33228584954E+03  0.00000000000E+00 0.  1.
         -1   -1    0    0    0  501 -0.00000000000E+00 -0.00000000000E+00 -0.55524094464E+02  0.55524094464E+02  0.00000000000E+00 0.  1.
         23    2    1    2    0    0  0.37899681557E+02 -0.11092631975E+02  0.22113226072E+02  0.10111117708E+03  0.90415944487E+02 0.  0.
         24    2    1    2    0    0 -0.94392547969E+01  0.35273900769E+02  0.21332772030E+03  0.23100191886E+03  0.80745418840E+02 0.  0.
        -13    1    4    4    0    0 -0.20748390899E+02  0.58886139424E+02  0.15113092661E+03  0.16351950990E+03  0.00000000000E+00 0.  1.
         14    1    4    4    0    0  0.11309136102E+02 -0.23612238655E+02  0.62196793692E+02  0.67482408962E+02  0.00000000000E+00 0. -1.
        -11    1    3    3    0    0 -0.36253003913E+01 -0.42900368403E+02 -0.28598733726E+01  0.43148155091E+02  0.00000000000E+00 0.  1.
         11    1    3    3    0    0  0.41524981948E+02  0.31807736428E+02  0.24973099444E+02  0.57963021991E+02  0.00000000000E+00 0. -1.
         -2    1    1    2    0  502 -0.28460426760E+02 -0.24181268794E+02  0.41320808707E+02  0.55696848062E+02  0.00000000000E+00 0.  1.
<scales pt_clust_5="13000.00000" pt_clust_6="13000.00000" pt_clust_7="13000.00000" pt_clust_8="13000.00000" pt_clust_9="37.34608"></scales>
<clustering>
<clus scale="   37.346">  1  9  2 -1</clus>
<clus scale="   80.745">  5  6 -1 -1</clus>
<clus scale="   88.279">  1  5  2 -1</clus>
<clus scale="   90.416">  7  8 -1 -1</clus>
<clus scale="   37.346">  1  5  2 -1</clus>
</clustering>
</event>
<event>
 9    2  0.9254368E-005  0.2484007E+03  0.7546771E-02  0.1139873E+00
         21   -1    0    0  501  502  0.00000000000E+00  0.00000000000E+00  0.39228840115E+03  0.39228840115E+03  0.00000000000E+00 0. -1.
          2   -1    0    0  502    0 -0.00000000000E+00 -0.00000000000E+00 -0.39834031239E+03  0.39834031239E+03  0.00000000000E+00 0. -1.
         24    2    1    2    0    0 -0.10061682671E+03  0.27929507471E+02 -0.53127179156E+02  0.14244880253E+03  0.81026915115E+02 0.  0.
         23    2    1    2    0    0 -0.15244836634E+03 -0.15861808621E+03  0.21123438699E+03  0.31944032878E+03  0.94983976180E+02 0.  0.
        -13    1    3    3    0    0 -0.39532886627E+01  0.34994926623E+02 -0.12778601469E+02  0.37464196723E+02  0.00000000000E+00 0.  1.
         14    1    3    3    0    0 -0.96663538046E+02 -0.70654191516E+01 -0.40348577687E+02  0.10498460581E+03  0.00000000000E+00 0. -1.
        -11    1    4    4    0    0 -0.14615773308E+03 -0.92050267847E+02  0.14979569686E+03  0.22863526751E+03  0.00000000000E+00 0. -1.
         11    1    4    4    0    0 -0.62906332659E+01 -0.66567818365E+02  0.61438690124E+02  0.90805061274E+02  0.00000000000E+00 0.  1.
          1    1    1    2  501    0  0.25306519305E+03  0.13068857874E+03 -0.16415911908E+03  0.32873958223E+03  0.00000000000E+00 0. -1.
<scales pt_clust_5="13000.00000" pt_clust_6="13000.00000" pt_clust_7="13000.00000" pt_clust_8="13000.00000" pt_clust_9="229.52340"></scales>
<clustering>
<clus scale="   81.027">  5  6 -1 -1</clus>
<clus scale="   94.984">  7  8 -1 -1</clus>
<clus scale="  132.171">  2  5  1 -1</clus>
<clus scale="  229.523">  1  9  2 -1</clus>
<clus scale="  229.523">  1  5  2 -1</clus>
</clustering>
</event>
<event>
 9    2  0.9254368E-005  0.1473459E+03  0.7546771E-02  0.1218429E+00
          2   -1    0    0  502    0 -0.00000000000E+00  0.00000000000E+00  0.12883622985E+04  0.12883622985E+04  0.00000000000E+00 0. -1.
         21   -1    0    0  501  502  0.00000000000E+00 -0.00000000000E+00 -0.56834986559E+02  0.56834986559E+02  0.00000000000E+00 0. -1.
         23    2    1    2    0    0  0.17499146775E+02 -0.53156564834E+02  0.21940166611E+03  0.24446008153E+03  0.92150962260E+02 0.  0.
         24    2    1    2    0    0 -0.13784966973E+03  0.52680590111E+02  0.95069509428E+03  0.96561434242E+03  0.82535567959E+02 0.  0.
        -13    1    4    4    0    0 -0.41313426787E+02  0.35615818888E+01  0.10309869103E+03  0.11112526351E+03  0.00000000000E+00 0.  1.
         14    1    4    4    0    0 -0.96536242947E+02  0.49119008222E+02  0.84759640325E+03  0.85448907891E+03  0.00000000000E+00 0. -1.
        -13    1    3    3    0    0 -0.11089740231E+02  0.23463853082E+02  0.48906049738E+02  0.55365480589E+02  0.00000000000E+00 0. -1.
         13    1    3    3    0    0  0.28588887005E+02 -0.76620417916E+02  0.17049561638E+03  0.18909460094E+03  0.00000000000E+00 0.  1.
          1    1    1    2  501    0  0.12035052296E+03  0.47597472289E+00  0.61430551529E+02  0.13512286109E+03  0.00000000000E+00 0. -1.
<scales pt_clust_5="13000.00000" pt_clust_6="13000.00000" pt_clust_7="13000.00000" pt_clust_8="13000.00000" pt_clust_9="122.06026"></scales>
<clustering>
<clus scale="   82.536">  5  6 -1 -1</clus>
<clus scale="   92.151">  7  8 -1 -1</clus>
<clus scale="  107.813">  1  7  2 -1</clus>
<clus scale="  122.060">  2  9  1 -1</clus>
<clus scale="  122.060">  2  5  1 -1</clus>
</clustering>
</event>
<event>
 9    2  0.9254368E-005  0.1296479E+03  0.7546771E-02  0.1234640E+00
         -1   -1    0    0    0  501 -0.00000000000E+00  0.00000000000E+00  0.46397829705E+03  0.46397829705E+03  0.00000000000E+00 0.  1.
         21   -1    0    0  501  502  0.00000000000E+00 -0.00000000000E+00 -0.78283397520E+02  0.78283397520E+02  0.00000000000E+00 0.  1.
         24    2    1    2    0    0  0.80653571527E+02 -0.19938485752E+02  0.35190788335E+03  0.37025773584E+03  0.79681182042E+02 0.  0.
         23    2    1    2    0    0 -0.53013381101E+02  0.50807703232E+02  0.35539626035E+02  0.13053155398E+03  0.10189985419E+03 0.  0.
        -13    1    3    3    0    0  0.77363624317E+02 -0.92705854105E+01  0.15938015979E+03  0.17740662180E+03  0.00000000000E+00 0.  1.
         14    1    3    3    0    0  0.32899472099E+01 -0.10667900341E+02  0.19252772355E+03  0.19285111404E+03  0.00000000000E+00 0. -1.
        -13    1    4    4    0    0  0.91123591041E+01  0.38413731426E+02 -0.21788477272E+02  0.45093099165E+02  0.00000000000E+00 0.  1.
         13    1    4    4    0    0 -0.62125740205E+02  0.12393971807E+02  0.57328103307E+02  0.85438454819E+02  0.00000000000E+00 0. -1.
         -2    1    1    2    0  502 -0.27640190426E+02 -0.30869217480E+02 -0.17526098493E+01  0.41472404752E+02  0.00000000000E+00 0.  1.
<scales pt_clust_5="13000.00000" pt_clust_6="13000.00000" pt_clust_7="13000.00000" pt_clust_8="13000.00000" pt_clust_9="41.43536"></scales>
<clustering>
<clus scale="   41.435">  2  9  1 -1</clus>
<clus scale="   79.681">  5  6 -1 -1</clus>
<clus scale="  101.900">  7  8 -1 -1</clus>
<clus scale="  113.023">  1  5  2 -1</clus>
<clus scale="   41.435">  2  5  1 -1</clus>
</clustering>
</event>
<event>
 9    2  0.9254368E-005  0.1025609E+03  0.7546771E-02  0.1278835E+00
         21   -1    0    0  501  502  0.00000000000E+00  0.00000000000E+00  0.37074968164E+02  0.37074968164E+02  0.00000000000E+00 0. -1.
          2   -1    0    0  502    0 -0.00000000000E+00 -0.00000000000E+00 -0.73387660745E+03  0.73387660745E+03  0.00000000000E+00 0. -1.
         24    2    1    2    0    0  0.75072090725E+02  0.13110165385E+02 -0.23750103620E+03  0.26195864605E+03  0.80049327286E+02 0.  0.
         23    2    1    2    0    0 -0.12006741765E+02  0.44894599990E+02 -0.10716784851E+03  0.14658533046E+03  0.88558593013E+02 0.  0.
        -11    1    3    3    0    0  0.34736188268E+02 -0.44621347752E+01 -0.20580319496E+02  0.40620967156E+02  0.00000000000E+00 0.  1.
         12    1    3    3    0    0  0.40335902457E+02  0.17572300160E+02 -0.21692071671E+03  0.22133767889E+03  0.00000000000E+00 0. -1.
        -13    1    4    4    0    0  0.26283684362E+02  0.13770807923E+02 -0.89308150173E+02  0.94108516628E+02  0.00000000000E+00 0.  1.
         13    1    4    4    0    0 -0.38290426126E+02  0.31123792067E+02 -0.17859698337E+02  0.52476813834E+02  0.00000000000E+00 0. -1.
          1    1    1    2  501    0 -0.63065348961E+02 -0.58004765375E+02 -0.35213275458E+03  0.36240759911E+03  0.00000000000E+00 0. -1.
<scales pt_clust_5="13000.00000" pt_clust_6="13000.00000" pt_clust_7="13000.00000" pt_clust_8="13000.00000" pt_clust_9="85.68429"></scales>
<clustering>
<clus scale="   80.049">  5  6 -1 -1</clus>
<clus scale="   85.684">  1  9  2 -1</clus>
<clus scale="   88.559">  7  8 -1 -1</clus>
<clus scale="   95.310">  2  5  1 -1</clus>
<clus scale="   85.684">  1  5  2 -1</clus>
</clustering>
</event>
<event>
 9    2  0.9254368E-005  0.1615845E+03  0.7546771E-02  0.1188464E+00
         21   -1    0    0  501  502  0.00000000000E+00  0.00000000000E+00  0.18631966232E+03  0.18631966232E+03  0.00000000000E+00 0.  1.
          2   -1    0    0  502    0 -0.00000000000E+00 -0.00000000000E+00 -0.29822214901E+03  0.29822214901E+03  0.00000000000E+00 0. -1.
         23    2    1    2    0    0  0.89996873310E+02 -0.10570712413E+03 -0.22637058945E+03  0.28069383681E+03  0.90950277407E+02 0.  0.
         24    2    1    2    0    0 -0.62797688322E+02  0.87461713687E+02  0.10143841772E+03  0.16859938082E+03  0.80888179621E+02 0.  0.
        -11    1    4    4    0    0 -0.12571783581E+02  0.83050007966E+02  0.58324191103E+02  0.10225979089E+03  0.00000000000E+00 0.  1.
         12    1    4    4    0    0 -0.50225904740E+02  0.44117057202E+01  0.43114226617E+02  0.66339589923E+02  0.00000000000E+00 0. -1.
        -13    1    3    3    0    0  0.61893784071E+02 -0.80799640352E+02 -0.79645296915E+02  0.12923929630E+03  0.00000000000E+00 0.  1.
         13    1    3    3    0    0  0.28103089240E+02 -0.24907483777E+02 -0.14672529253E+03  0.15145454051E+03  0.00000000000E+00 0. -1.
          1    1    1    2  501    0 -0.27199184989E+02  0.18245410442E+02  0.13029685034E+02  0.35248593707E+02  0.00000000000E+00 0. -1.
<scales pt_clust_5="13000.00000" pt_clust_6="13000.00000" pt_clust_7="13000.00000" pt_clust_8="13000.00000" pt_clust_9="32.75196"></scales>
<clustering>
<clus scale="   32.752">  1  9  2 -1</clus>
<clus scale="   80.888">  5  6 -1 -1</clus>
<clus scale="   90.950">  7  8 -1 -1</clus>
<clus scale="  156.143">  1  5  2 -1</clus>
<clus scale="   32.752">  1  5  2 -1</clus>
</clustering>
</event>
<event>
 9    2  0.9254368E-005  0.8973058E+02  0.7546771E-02  0.1308746E+00
          4   -1    0    0  502    0 -0.00000000000E+00  0.00000000000E+00  0.44622216106E+02  0.44622216106E+02  0.00000000000E+00 0. -1.
         21   -1    0    0  501  502  0.00000000000E+00 -0.00000000000E+00 -0.49086037871E+03  0.49086037871E+03  0.00000000000E+00 0. -1.
         24    2    1    2    0    0  0.15853132361E+02 -0.14595481475E+02 -0.68817157253E+02  0.10864166837E+03  0.81257990918E+02 0.  0.
         23    2    1    2    0    0  0.28710623899E+02 -0.33808745503E+02 -0.98506894854E+02  0.14027160046E+03  0.89471684715E+02 0.  0.
        -13    1    3    3    0    0 -0.27289863794E+02  0.10529547620E+02 -0.44134407537E+02  0.52947653089E+02  0.00000000000E+00 0.  1.
         14    1    3    3    0    0  0.43142996155E+02 -0.25125029094E+02 -0.24682749715E+02  0.55694015278E+02  0.00000000000E+00 0. -1.
        -11    1    4    4    0    0 -0.17012133389E+02  0.21104792027E+02 -0.37763341106E+02  0.46485426323E+02  0.00000000000E+00 0.  1.
         11    1    4    4    0    0  0.45722757288E+02 -0.54913537530E+02 -0.60743553748E+02  0.93786174141E+02  0.00000000000E+00 0. -1.
          3    1    1    2  501    0 -0.44563756260E+02  0.48404226978E+02 -0.27891411050E+03  0.28656932599E+03  0.00000000000E+00 0. -1.
<scales pt_clust_5="13000.00000" pt_clust_6="13000.00000" pt_clust_7="13000.00000" pt_clust_8="13000.00000" pt_clust_9="65.79436"></scales>
<clustering>
<clus scale="   65.794">  2  9  1 -1</clus>
<clus scale="   81.258">  5  6 -1 -1</clus>
<clus scale="   81.543">  1  5  2 -1</clus>
<clus scale="   89.472">  7  8 -1 -1</clus>
<clus scale="   65.794">  2  5  1 -1</clus>
</clustering>
</event>
<event>
 9    2  0.9254368E-005  0.1448797E+03  0.7546771E-02  0.1208927E+00
         21   -1    0    0  501  502  0.00000000000E+00  0.00000000000E+00  0.12989849420E+03  0.12989849420E+03  0.00000000000E+00 0. -1.
          2   -1    0    0  502    0 -0.00000000000E+00 -0.00000000000E+00 -0.43051382817E+03  0.43051382817E+03  0.00000000000E+00 0. -1.
         24    2    1    2    0    0 -0.83915148325E+02  0.83669043287E+02 -0.33390141689E+03  0.36317386241E+03  0.79767394431E+02 0.  0.
         23    2    1    2    0    0  0.95008447554E+02 -0.23605618522E+02  0.28234149030E+02  0.13595062823E+03  0.90008754086E+02 0.  0.
        -11    1    3    3    0    0  0.30387981667E-01  0.35700993066E+02 -0.39213537444E+02  0.53030777368E+02  0.00000000000E+00 0.  1.
         12    1    3    3    0    0 -0.83945536307E+02  0.47968050221E+02 -0.29468787945E+03  0.31014308504E+03  0.00000000000E+00 0. -1.
        -13    1    4    4    0    0  0.66616810955E+02 -0.61094861852E+01  0.60023343676E+02  0.89877289174E+02  0.00000000000E+00 0. -1.
         13    1    4    4    0    0  0.28391636599E+02 -0.17496132337E+02 -0.31789194645E+02  0.46073339056E+02  0.00000000000E+00 0.  1.
          1    1    1    2  501    0 -0.11093299228E+02 -0.60063424765E+02  0.50519338924E+01  0.61287831731E+02  0.00000000000E+00 0. -1.
<scales pt_clust_5="13000.00000" pt_clust_6="13000.00000" pt_clust_7="13000.00000" pt_clust_8="13000.00000" pt_clust_9="61.07926"></scales>
<clustering>
<clus scale="   61.079">  1  9  2 -1</clus>
<clus scale="   79.767">  5  6 -1 -1</clus>
<clus scale="   90.009">  7  8 -1 -1</clus>
<clus scale="  138.749">  2  5  1 -1</clus>
<clus scale="   61.079">  1  5  2 -1</clus>
</clustering>
</event>
<event>
 9    2  0.9254368E-005  0.1181537E+03  0.7546771E-02  0.1249077E+00
          2   -1    0    0  502    0 -0.00000000000E+00  0.00000000000E+00  0.16255517212E+03  0.16255517212E+03  0.00000000000E+00 0. -1.
         21   -1    0    0  501  502  0.00000000000E+00 -0.00000000000E+00 -0.18173188176E+03  0.18173188176E+03  0.00000000000E+00 0.  1.
         24    2    1    2    0    0  0.26422276809E+02  0.54917972663E+02 -0.39803258443E+02  0.10924639262E+03  0.81463823162E+02 0.  0.
         23    2    1    2    0    0 -0.76409931246E+02 -0.64800563959E+02 -0.53443131828E+02  0.14513655236E+03  0.90392808394E+02 0.  0.
        -13    1    3    3    0    0  0.38860322282E+02  0.68520340764E+02 -0.44160302102E+02  0.90306666576E+02  0.00000000000E+00 0.  1.
         14    1    3    3    0    0 -0.12438045473E+02 -0.13602368101E+02  0.43570436590E+01  0.18939726043E+02  0.00000000000E+00 0. -1.
        -11    1    4    4    0    0 -0.57170732650E+02 -0.44792172636E+02  0.12402470891E+02  0.73679391185E+02  0.00000000000E+00 0.  1.
         11    1    4    4    0    0 -0.19239198596E+02 -0.20008391323E+02 -0.65845602719E+02  0.71457161177E+02  0.00000000000E+00 0. -1.
          1    1    1    2  501    0  0.49987654437E+02  0.98825912957E+01  0.74069680632E+02  0.89904108892E+02  0.00000000000E+00 0. -1.
<scales pt_clust_5="13000.00000" pt_clust_6="13000.00000" pt_clust_7="13000.00000" pt_clust_8="13000.00000" pt_clust_9="50.95521"></scales>
<clustering>
<clus scale="   50.955">  2  9  1 -1</clus>
<clus scale="   81.464">  5  6 -1 -1</clus>
<clus scale="   90.393">  7  8 -1 -1</clus>
<clus scale="  111.471">  1  5  2 -1</clus>
<clus scale="   50.955">  2  5  1 -1</clus>
</clustering>
</event>
<event>
 9    2  0.9254368E-005  0.1653829E+03  0.7546771E-02  0.1184500E+00
         21   -1    0    0  501  502  0.00000000000E+00  0.00000000000E+00  0.65930383700E+02  0.65930383700E+02  0.00000000000E+00 0. -1.
          2   -1    0    0  502    0 -0.00000000000E+00 -0.00000000000E+00 -0.57999700040E+03  0.57999700040E+03  0.00000000000E+00 0. -1.
         23    2    1    2    0    0  0.86454611101E+02  0.97267990067E+02 -0.24293773767E+03  0.29076081076E+03  0.92669536599E+02 0.  0.
         24    2    1    2    0    0 -0.13231418232E+03 -0.74648003052E+02 -0.17022960482E+03  0.24204969741E+03  0.80811945003E+02 0.  0.
        -11    1    4    4    0    0 -0.49397998911E+02  0.12963067105E+02 -0.43450748802E+02  0.67053493397E+02  0.00000000000E+00 0.  1.
         12    1    4    4    0    0 -0.82916183414E+02 -0.87611070157E+02 -0.12677885601E+03  0.17499620401E+03  0.00000000000E+00 0. -1.
        -11    1    3    3    0    0  0.15967600981E+02  0.82708009447E+02 -0.10019957468E+03  0.13090276496E+03  0.00000000000E+00 0. -1.
         11    1    3    3    0    0  0.70487010120E+02  0.14559980620E+02 -0.14273816300E+03  0.15985804580E+03  0.00000000000E+00 0.  1.
          1    1    1    2  501    0  0.45859571224E+02 -0.22619987015E+02 -0.10089927421E+03  0.11311687593E+03  0.00000000000E+00 0. -1.
<scales pt_clust_5="13000.00000" pt_clust_6="13000.00000" pt_clust_7="13000.00000" pt_clust_8="13000.00000" pt_clust_9="51.13479"></scales>
<clustering>
<clus scale="   51.135">  1  9  2 -1</clus>
<clus scale="   80.812">  5  6 -1 -1</clus>
<clus scale="   92.670">  7  8 -1 -1</clus>
<clus scale="  159.042">  1  5  2 -1</clus>
<clus scale="   51.135">  1  5  2 -1</clus>
</clustering>
</event>
<event>
 9    2  0.9254368E-005  0.9386872E+02  0.7546771E-02  0.1300727E+00
          2   -1    0    0  502    0 -0.00000000000E+00  0.00000000000E+00  0.44850730842E+03  0.44850730842E+03  0.00000000000E+00 0. -1.
         21   -1    0    0  501  502  0.00000000000E+00 -0.00000000000E+00 -0.66160385906E+02  0.66160385906E+02  0.00000000000E+00 0.  1.
         24    2    1    2    0    0 -0.21986849082E+02 -0.15144245931E+02  0.34110102180E+03  0.35133023793E+03  0.79813904136E+02 0.  0.
         23    2    1    2    0    0 -0.58770594581E+01  0.70309991734E+00  0.74091154717E+02  0.11790888821E+03  0.91531265341E+02 0.  0.
        -13    1    3    3    0    0 -0.34236247954E+02  0.72223553749E+01  0.63016249515E+02  0.72078643121E+02  0.00000000000E+00 0.  1.
         14    1    3    3    0    0  0.12249398873E+02 -0.22366601306E+02  0.27808477228E+03  0.27925159481E+03  0.00000000000E+00 0. -1.
        -11    1    4    4    0    0 -0.35747393297E+02 -0.30884693183E+02  0.47253628828E+02  0.66818005343E+02  0.00000000000E+00 0. -1.
         11    1    4    4    0    0  0.29870333839E+02  0.31587793100E+02  0.26837525889E+02  0.51090882870E+02  0.00000000000E+00 0.  1.
          1    1    1    2  501    0  0.27863908540E+02  0.14441146014E+02 -0.32845253998E+02  0.45428568187E+02  0.00000000000E+00 0. -1.
<scales pt_clust_5="13000.00000" pt_clust_6="13000.00000" pt_clust_7="13000.00000" pt_clust_8="13000.00000" pt_clust_9="31.38382"></scales>
<clustering>
<clus scale="   31.384">  2  9  1 -1</clus>
<clus scale="   79.814">  5  6 -1 -1</clus>
<clus scale="   82.484">  1  5  2 -1</clus>
<clus scale="   91.531">  7  8 -1 -1</clus>
<clus scale="   31.384">  2  5  1 -1</clus>
</clustering>
</event>
<event>
 9    2  0.9254368E-005  0.1129788E+03  0.7546771E-02  0.1259212E+00
         21   -1    0    0  501  502  0.00000000000E+00  0.00000000000E+00  0.29032652808E+03  0.29032652808E+03  0.00000000000E+00 0. -1.
         -1   -1    0    0    0  501 -0.00000000000E+00 -0.00000000000E+00 -0.79539503121E+02  0.79539503121E+02  0.00000000000E+00 0.  1.
         24    2    1    2    0    0 -0.42909799226E+02  0.61523978619E+02 -0.10071791571E+02  0.10988229806E+03  0.79663213762E+02 0.  0.
         23    2    1    2    0    0  0.15307707015E+02 -0.36222892023E+02  0.17218769557E+03  0.19857609117E+03  0.90760330963E+02 0.  0.
        -11    1    3    3    0    0 -0.41477010119E+01  0.22079855551E+02 -0.40829420501E+02  0.46602199769E+02  0.00000000000E+00 0.  1.
         12    1    3    3    0    0 -0.38762098214E+02  0.39444123067E+02  0.30757628929E+02  0.63280098292E+02  0.00000000000E+00 0. -1.
        -13    1    4    4    0    0 -0.30735898169E+02 -0.64977857827E+00  0.22852299376E+02  0.38305942558E+02  0.00000000000E+00 0.  1.
         13    1    4    4    0    0  0.46043605185E+02 -0.35573113445E+02  0.14933539619E+03  0.16027014861E+03  0.00000000000E+00 0. -1.
         -2    1    1    2    0  502  0.27602092210E+02 -0.25301086596E+02  0.48671120960E+02  0.61407641974E+02  0.00000000000E+00 0.  1.
<scales pt_clust_5="13000.00000" pt_clust_6="13000.00000" pt_clust_7="13000.00000" pt_clust_8="13000.00000" pt_clust_9="37.44356"></scales>
<clustering>
<clus scale="   37.444">  1  9  2 -1</clus>
<clus scale="   79.663">  5  6 -1 -1</clus>
<clus scale="   90.760">  7  8 -1 -1</clus>
<clus scale="  104.274">  2  5  1 -1</clus>
<clus scale="   37.444">  1  5  2 -1</clus>
</clustering>
</event>
<event>
 9    2  0.9254368E-005  0.1124393E+03  0.7546771E-02  0.1259610E+00
          2   -1    0    0  502    0 -0.00000000000E+00  0.00000000000E+00  0.94004932704E+03  0.94004932704E+03  0.00000000000E+00 0. -1.
         21   -1    0    0  501  502  0.00000000000E+00 -0.00000000000E+00 -0.37029231905E+02  0.37029231905E+02  0.00000000000E+00 0.  1.
         23    2    1    2    0    0  0.46610811610E+02 -0.74595777579E+02  0.22225894537E+03  0.25566096669E+03  0.90699466926E+02 0.  0.
         24    2    1    2    0    0 -0.67766543171E+02 -0.72962500653E+01  0.14848656820E+03  0.18246481200E+03  0.81237965522E+02 0.  0.
        -11    1    4    4    0    0 -0.65721545756E+02  0.20039249018E+02  0.64960161007E+02  0.94555357309E+02  0.00000000000E+00 0.  1.
         12    1    4    4    0    0 -0.20449974151E+01 -0.27335499083E+02  0.83526407195E+02  0.87909454688E+02  0.00000000000E+00 0. -1.
        -13    1    3    3    0    0  0.37669504638E+02  0.10862172575E+02  0.86884029350E+02  0.95319530679E+02  0.00000000000E+00 0.  1.
         13    1    3    3    0    0  0.89413069724E+01 -0.85457950154E+02  0.13537491602E+03  0.16034143601E+03  0.00000000000E+00 0. -1.
          1    1    1    2  501    0  0.21155731561E+02  0.81892027644E+02  0.53227458157E+03  0.53895278026E+03  0.00000000000E+00 0. -1.
<scales pt_clust_5="13000.00000" pt_clust_6="13000.00000" pt_clust_7="13000.00000" pt_clust_8="13000.00000" pt_clust_9="84.58059"></scales>
<clustering>
<clus scale="   81.238">  5  6 -1 -1</clus>
<clus scale="   84.581">  2  9  1 -1</clus>
<clus scale="   90.699">  7  8 -1 -1</clus>
<clus scale="  104.956">  2  5  1 -1</clus>
<clus scale="   84.581">  2  5  1 -1</clus>
</clustering>
</event>
<event>
 9    2  0.9254368E-005  0.9511510E+02  0.7546771E-02  0.1304734E+00
         21   -1    0    0  501  502  0.00000000000E+00  0.00000000000E+00  0.77353428919E+02  0.77353428919E+02  0.00000000000E+00 0. -1.
          2   -1    0    0  502    0 -0.00000000000E+00 -0.00000000000E+00 -0.26957360438E+03  0.26957360438E+03  0.00000000000E+00 0. -1.
         23    2    1    2    0    0 -0.58286096310E+01 -0.68326632260E+01 -0.19806369683E+03  0.21968641586E+03  0.94616253020E+02 0.  0.
         24    2    1    2    0    0 -0.26729206525E+02  0.16121532376E+02 -0.23097193888E+02  0.82700079923E+02  0.73016906030E+02 0.  0.
        -13    1    4    4    0    0  0.20027354178E+02  0.23894651446E+02 -0.33659424081E+01  0.31358871973E+02  0.00000000000E+00 0.  1.
         14    1    4    4    0    0 -0.46756560703E+02 -0.77731190706E+01 -0.19731251480E+02  0.51341207951E+02  0.00000000000E+00 0. -1.
        -11    1    3    3    0    0  0.30049867733E+02 -0.23557837430E+01 -0.16114026781E+02  0.34179030514E+02  0.00000000000E+00 0.  1.
         11    1    3    3    0    0 -0.35878477364E+02 -0.44768794830E+01 -0.18194967005E+03  0.18550738535E+03  0.00000000000E+00 0. -1.
          1    1    1    2  501    0  0.32557816156E+02 -0.92888691495E+01  0.28940715254E+02  0.44540537517E+02  0.00000000000E+00 0. -1.
<scales pt_clust_5="13000.00000" pt_clust_6="13000.00000" pt_clust_7="13000.00000" pt_clust_8="13000.00000" pt_clust_9="33.85697"></scales>
<clustering>
<clus scale="   33.857">  1  9  2 -1</clus>
<clus scale="   73.017">  5  6 -1 -1</clus>
<clus scale="   73.662">  1  5  2 -1</clus>
<clus scale="   94.616">  7  8 -1 -1</clus>
<clus scale="   33.857">  1  5  2 -1</clus>
</clustering>
</event>
<event>
 9    2  0.9254368E-005  0.1024661E+03  0.7546771E-02  0.1283226E+00
         -1   -1    0    0    0  501 -0.00000000000E+00  0.00000000000E+00  0.50917044199E+03  0.50917044199E+03  0.00000000000E+00 0.  1.
         21   -1    0    0  501  502  0.00000000000E+00 -0.00000000000E+00 -0.58944218675E+02  0.58944218675E+02  0.00000000000E+00 0.  1.
         24    2    1    2    0    0  0.93993116028E+01 -0.94748349457E+01  0.23078493725E+03  0.24540401255E+03  0.82360928596E+02 0.  0.
         23    2    1    2    0    0 -0.66741840564E+02  0.13138289866E+02  0.23477041977E+03  0.26324159004E+03  0.97733805725E+02 0.  0.
        -13    1    3    3    0    0  0.26993652192E+02 -0.39868188442E+02  0.12564860139E+03  0.13455742544E+03  0.00000000000E+00 0.  1.
         14    1    3    3    0    0 -0.17594340589E+02  0.30393353496E+02  0.10513633585E+03  0.11084658711E+03  0.00000000000E+00 0. -1.
        -13    1    4    4    0    0 -0.60835462885E+02 -0.28443575091E+02  0.19152675174E+03  0.20295932386E+03  0.00000000000E+00 0.  1.
         13    1    4    4    0    0 -0.59063776788E+01  0.41581864958E+02  0.43243668032E+02  0.60282266178E+02  0.00000000000E+00 0. -1.
         -2    1    1    2    0  502  0.57342528961E+02 -0.36634549204E+01 -0.15329133700E+02  0.59469058086E+02  0.00000000000E+00 0.  1.
<scales pt_clust_5="13000.00000" pt_clust_6="13000.00000" pt_clust_7="13000.00000" pt_clust_8="13000.00000" pt_clust_9="57.45943"></scales>
<clustering>
<clus scale="   57.459">  2  9  1 -1</clus>
<clus scale="   82.361">  5  6 -1 -1</clus>
<clus scale="   87.925">  1  5  2 -1</clus>
<clus scale="   97.734">  7  8 -1 -1</clus>
<clus scale="   57.459">  2  5  1 -1</clus>
</clustering>
</event>
<event>
 9    2  0.9254368E-005  0.9326597E+02  0.7546771E-02  0.1302567E+00
         21   -1    0    0  501  502  0.00000000000E+00  0.00000000000E+00  0.39004007912E+02  0.39004007912E+02  0.00000000000E+00 0. -1.
          2   -1    0    0  502    0 -0.00000000000E+00 -0.00000000000E+00 -0.67736345645E+03  0.67736345645E+03  0.00000000000E+00 0. -1.
         23    2    1    2    0    0  0.24749338947E+02 -0.36475866471E+01 -0.37524972541E+03  0.38745701368E+03  0.93191986562E+02 0.  0.
         24    2    1    2    0    0  0.41891547319E+02 -0.15685602519E+01 -0.24220344274E+03  0.25887268608E+03  0.81210823207E+02 0.  0.
        -13    1    4    4    0    0 -0.23864546593E+02 -0.45322007773E+01 -0.86056286538E+02  0.89418912321E+02  0.00000000000E+00 0.  1.
         14    1    4    4    0    0  0.65756093912E+02  0.29636405254E+01 -0.15614715620E+03  0.16945377376E+03  0.00000000000E+00 0. -1.
        -13    1    3    3    0    0  0.18661251268E+02  0.43492243064E+02 -0.15174003524E+03  0.15894922396E+03  0.00000000000E+00 0. -1.
         13    1    3    3    0    0  0.60880876797E+01 -0.47139829711E+02 -0.22350969018E+03  0.22850778971E+03  0.00000000000E+00 0.  1.
          1    1    1    2  501    0 -0.66640886266E+02  0.52161468991E+01 -0.20906280383E+02  0.70037764601E+02  0.00000000000E+00 0. -1.
<scales pt_clust_5="13000.00000" pt_clust_6="13000.00000" pt_clust_7="13000.00000" pt_clust_8="13000.00000" pt_clust_9="66.84471"></scales>
<clustering>
<clus scale="   66.845">  1  9  2 -1</clus>
<clus scale="   81.211">  5  6 -1 -1</clus>
<clus scale="   81.296">  1  5  2 -1</clus>
<clus scale="   93.192">  7  8 -1 -1</clus>
<clus scale="   66.845">  1  5  2 -1</clus>
</clustering>
</event>
<event>
 9    2  0.9254368E-005  0.1265606E+03  0.7546771E-02  0.1234515E+00
         -1   -1    0    0    0  501 -0.00000000000E+00  0.00000000000E+00  0.38470857328E+03  0.38470857328E+03  0.00000000000E+00 0.  1.
         21   -1    0    0  501  502  0.00000000000E+00 -0.00000000000E+00 -0.99088224905E+02  0.99088224905E+02  0.00000000000E+00 0.  1.
         24    2    1    2    0    0 -0.73461956640E+02 -0.35020052793E+02  0.19772926814E+03  0.22875808324E+03  0.81303960508E+02 0.  0.
         23    2    1    2    0    0  0.80627422626E+02  0.11092918364E+03  0.56728883120E+02  0.17266989453E+03  0.88264722494E+02 0.  0.
        -11    1    3    3    0    0 -0.82594497115E+02 -0.50681572517E+02  0.16709534785E+03  0.19316140406E+03  0.00000000000E+00 0.  1.
         12    1    3    3    0    0  0.91325404747E+01  0.15661519725E+02  0.30633920297E+02  0.35596679176E+02  0.00000000000E+00 0. -1.
        -11    1    4    4    0    0  0.60385244303E+02  0.54838286873E+02 -0.11138380880E+02  0.82326660112E+02  0.00000000000E+00 0. -1.
         11    1    4    4    0    0  0.20242178323E+02  0.56090896762E+02  0.67867264000E+02  0.90343234421E+02  0.00000000000E+00 0.  1.
         -2    1    1    2    0  502 -0.71654659861E+01 -0.75909130843E+02  0.31162197114E+02  0.82368820418E+02  0.00000000000E+00 0.  1.
<scales pt_clust_5="13000.00000" pt_clust_6="13000.00000" pt_clust_7="13000.00000" pt_clust_8="13000.00000" pt_clust_9="76.24657"></scales>
<clustering>
<clus scale="   76.247">  2  9  1 -1</clus>
<clus scale="   81.304">  5  6 -1 -1</clus>
<clus scale="   88.265">  7  8 -1 -1</clus>
<clus scale="  121.808">  1  5  2 -1</clus>
<clus scale="   76.247">  2  5  1 -1</clus>
</clustering>
</event>
<event>
 9    2  0.9254368E-005  0.1428435E+03  0.7546771E-02  0.1226916E+00
          2   -1    0    0  502    0 -0.00000000000E+00  0.00000000000E+00  0.33608769572E+03  0.33608769572E+03  0.00000000000E+00 0. -1.
         21   -1    0    0  501  502  0.00000000000E+00 -0.00000000000E+00 -0.59059776125E+03  0.59059776125E+03  0.00000000000E+00 0. -1.
         23    2    1    2    0    0 -0.26550151118E+02  0.28426785012E+02 -0.93226243268E+02  0.13605561185E+03  0.91142769605E+02 0.  0.
         24    2    1    2    0    0  0.22556984695E+02 -0.12771516815E+03  0.28719992805E+03  0.33126963494E+03  0.10215571752E+03 0.  0.
        -11    1    4    4    0    0  0.38614938937E+02 -0.11739388119E+02  0.35828217086E+02  0.53968397068E+02  0.00000000000E+00 0.  1.
         12    1    4    4    0    0 -0.16057954242E+02 -0.11597578003E+03  0.25137171097E+03  0.27730123787E+03  0.00000000000E+00 0. -1.
        -13    1    3    3    0    0 -0.43535368552E+02  0.40948690318E+02 -0.25254912106E+02  0.64884005265E+02  0.00000000000E+00 0.  1.
         13    1    3    3    0    0  0.16985217434E+02 -0.12521905307E+02 -0.67971331162E+02  0.71171606584E+02  0.00000000000E+00 0. -1.
          1    1    1    2  501    0  0.39931664227E+01  0.99288383136E+02 -0.44848375031E+03  0.45936021018E+03  0.00000000000E+00 0. -1.
<scales pt_clust_5="13000.00000" pt_clust_6="13000.00000" pt_clust_7="13000.00000" pt_clust_8="13000.00000" pt_clust_9="99.84223"></scales>
<clustering>
<clus scale="   91.143">  7  8 -1 -1</clus>
<clus scale="   99.096">  1  7  2 -1</clus>
<clus scale="   99.842">  2  9  1 -1</clus>
<clus scale="  102.156">  5  6 -1 -1</clus>
<clus scale="   99.842">  2  5  1 -1</clus>
</clustering>
</event>
<event>
 9    2  0.9254368E-005  0.1472817E+03  0.7546771E-02  0.1205753E+00
         21   -1    0    0  501  502  0.00000000000E+00  0.00000000000E+00  0.28940525096E+02  0.28940525096E+02  0.00000000000E+00 0. -1.
          2   -1    0    0  502    0 -0.00000000000E+00 -0.00000000000E+00 -0.13477868646E+04  0.13477868646E+04  0.00000000000E+00 0. -1.
         23    2    1    2    0    0  0.63001842939E+02 -0.44465797862E+02 -0.37553895750E+03  0.39445831218E+03  0.92851559232E+02 0.  0.
         24    2    1    2    0    0 -0.12404971098E+03  0.10899678954E+03 -0.65365273100E+03  0.67929893390E+03  0.83165605404E+02 0.  0.
        -13    1    4    4    0    0 -0.30463977075E+02  0.53078786920E+01 -0.43552156232E+02  0.53413647955E+02  0.00000000000E+00 0.  1.
         14    1    4    4    0    0 -0.93585733909E+02  0.10368891085E+03 -0.61010057477E+03  0.62588528594E+03  0.00000000000E+00 0. -1.
        -13    1    3    3    0    0 -0.45098859208E+01 -0.29011736172E+02 -0.29736552029E+02  0.41788544283E+02  0.00000000000E+00 0.  1.
         13    1    3    3    0    0  0.67511728860E+02 -0.15454061690E+02 -0.34580240547E+03  0.35266976789E+03  0.00000000000E+00 0. -1.
          1    1    1    2  501    0  0.61047868045E+02 -0.64530991681E+02 -0.28965465104E+03  0.30297014366E+03  0.00000000000E+00 0. -1.
<scales pt_clust_5="13000.00000" pt_clust_6="13000.00000" pt_clust_7="13000.00000" pt_clust_8="13000.00000" pt_clust_9="88.83181"></scales>
<clustering>
<clus scale="   83.166">  5  6 -1 -1</clus>
<clus scale="   88.832">  1  9  2 -1</clus>
<clus scale="   92.852">  7  8 -1 -1</clus>
<clus scale="  141.375">  1  5  2 -1</clus>
<clus scale="   88.832">  1  5  2 -1</clus>
</clustering>
</event>
<event>
 9    2  0.9254368E-005  0.2463762E+03  0.7546771E-02  0.1131602E+00
         21   -1    0    0  501  502  0.00000000000E+00  0.00000000000E+00  0.13494742779E+03  0.13494742779E+03  0.00000000000E+00 0. -1.
          2   -1    0    0  502    0 -0.00000000000E+00 -0.00000000000E+00 -0.14105137505E+04  0.14105137505E+04  0.00000000000E+00 0. -1.
         24    2    1    2    0    0  0.11235175139E+03 -0.92885713818E+02 -0.30734075524E+03  0.34912364939E+03  0.78602231880E+02 0.  0.
         23    2    1    2    0    0  0.21214477528E+03  0.91535794650E+01 -0.76183722091E+02  0.24342214964E+03  0.91439541382E+02 0.  0.
        -13    1    3    3    0    0  0.86717651564E+01 -0.53340725154E+02 -0.86985266710E+02  0.10240541536E+03  0.00000000000E+00 0.  1.
         14    1    3    3    0    0  0.10367998624E+03 -0.39544988663E+02 -0.22035548853E+03  0.24671823403E+03  0.00000000000E+00 0. -1.
        -11    1    4    4    0    0  0.14825341418E+03 -0.31055270890E+02 -0.28489287289E+02  0.15412703902E+03  0.00000000000E+00 0. -1.
         11    1    4    4    0    0  0.63891361100E+02  0.40208850355E+02 -0.47694434801E+02  0.89295110623E+02  0.00000000000E+00 0.  1.
          1    1    1    2  501    0 -0.32449652667E+03  0.83732134353E+02 -0.89204184541E+03  0.95291537930E+03  0.00000000000E+00 0. -1.
<scales pt_clust_5="13000.00000" pt_clust_6="13000.00000" pt_clust_7="13000.00000" pt_clust_8="13000.00000" pt_clust_9="228.77952"></scales>
<clustering>
<clus scale="   78.602">  5  6 -1 -1</clus>
<clus scale="   91.440">  7  8 -1 -1</clus>
<clus scale="  165.617">  2  5  1 -1</clus>
<clus scale="  228.780">  1  9  2 -1</clus>
<clus scale="  228.780">  1  5  2 -1</clus>
</clustering>
</event>
<event>
 9    2  0.9254368E-005  0.2524711E+03  0.7546771E-02  0.1147011E+00
          2   -1    0    0  502    0 -0.00000000000E+00  0.00000000000E+00  0.60298239037E+03  0.60298239037E+03  0.00000000000E+00 0. -1.
         21   -1    0    0  501  502  0.00000000000E+00 -0.00000000000E+00 -0.40212780654E+03  0.40212780654E+03  0.00000000000E+00 0. -1.
         24    2    1    2    0    0  0.61587033459E+02 -0.32132493601E+02 -0.39438829229E+02  0.11317456695E+03  0.80172323887E+02 0.  0.
         23    2    1    2    0    0 -0.27544934019E+03  0.12325434730E+03  0.47028534961E+03  0.56492405626E+03  0.83107798407E+02 0.  0.
        -13    1    3    3    0    0  0.35257089806E+02 -0.83571585176E+01 -0.61513162373E+02  0.71391691570E+02  0.00000000000E+00 0.  1.
         14    1    3    3    0    0  0.26329943652E+02 -0.23775335084E+02  0.22074333144E+02  0.41782875377E+02  0.00000000000E+00 0. -1.
        -13    1    4    4    0    0 -0.26548817160E+02  0.38701503420E+02  0.10374585419E+03  0.11386767900E+03  0.00000000000E+00 0.  1.
         13    1    4    4    0    0 -0.24890052303E+03  0.84552843878E+02  0.36653949542E+03  0.45105637726E+03  0.00000000000E+00 0. -1.
          1    1    1    2  501    0  0.21386230673E+03 -0.91121853697E+02 -0.22999193654E+03  0.32701157370E+03  0.00000000000E+00 0. -1.
<scales pt_clust_5="13000.00000" pt_clust_6="13000.00000" pt_clust_7="13000.00000" pt_clust_8="13000.00000" pt_clust_9="238.40039"></scales>
<clustering>
<clus scale="   80.172">  5  6 -1 -1</clus>
<clus scale="   83.108">  7  8 -1 -1</clus>
<clus scale="  106.081">  1  5  2 -1</clus>
<clus scale="  238.400">  2  9  1 -1</clus>
<clus scale="  238.400">  2  5  1 -1</clus>
</clustering>
</event>
<event>
 9    2  0.9254368E-005  0.1310569E+03  0.7546771E-02  0.1229275E+00
         21   -1    0    0  501  502  0.00000000000E+00  0.00000000000E+00  0.64833070260E+02  0.64833070260E+02  0.00000000000E+00 0.  1.
         -3   -1    0    0    0  501 -0.00000000000E+00 -0.00000000000E+00 -0.43130032233E+03  0.43130032233E+03  0.00000000000E+00 0.  1.
         24    2    1    2    0    0  0.11353736634E+02  0.97206255932E+02 -0.31834729923E+03  0.34250021002E+03  0.79896354150E+02 0.  0.
         23    2    1    2    0    0 -0.17008295808E+02 -0.72831178039E+02 -0.48146583919E+02  0.12861080916E+03  0.92892325141E+02 0.  0.
        -13    1    3    3    0    0  0.65938322850E+01  0.48193941129E+02 -0.26685409528E+03  0.27125125392E+03  0.00000000000E+00 0.  1.
         14    1    3    3    0    0  0.47599043486E+01  0.49012314802E+02 -0.51493203949E+02  0.71248956095E+02  0.00000000000E+00 0. -1.
        -13    1    4    4    0    0  0.34042175601E+02 -0.33307063745E+02  0.73415142815E+00  0.47631598685E+02  0.00000000000E+00 0.  1.
         13    1    4    4    0    0 -0.51050471409E+02 -0.39524114294E+02 -0.48880735347E+02  0.80979210480E+02  0.00000000000E+00 0. -1.
         -4    1    1    2    0  502  0.56545591743E+01 -0.24375077893E+02  0.26631080039E-01  0.25022373407E+02  0.00000000000E+00 0.  1.
<scales pt_clust_5="13000.00000" pt_clust_6="13000.00000" pt_clust_7="13000.00000" pt_clust_8="13000.00000" pt_clust_9="25.02236"></scales>
<clustering>
<clus scale="   25.022">  1  9  2 -1</clus>
<clus scale="   79.896">  5  6 -1 -1</clus>
<clus scale="   92.892">  7  8 -1 -1</clus>
<clus scale="  122.190">  2  5  1 -1</clus>
<clus scale="   25.022">  1  5  2 -1</clus>
</clustering>
</event>
<event>
 9    2  0.9254368E-005  0.1171976E+03  0.7546771E-02  0.1249633E+00
         21   -1    0    0  501  502  0.00000000000E+00  0.00000000000E+00  0.69382461717E+02  0.69382461717E+02  0.00000000000E+00 0.  1.
          2   -1    0    0  502    0 -0.00000000000E+00 -0.00000000000E+00 -0.60923286310E+03  0.60923286310E+03  0.00000000000E+00 0. -1.
         24    2    1    2    0    0  0.52687751576E+02  0.15613849527E+02 -0.11745757934E+03  0.15456686281E+03  0.84112072098E+02 0.  0.
         23    2    1    2    0    0 -0.13010098369E+03  0.27888957594E+02 -0.98718183189E+02  0.18841387712E+03  0.89724297078E+02 0.  0.
        -11    1    3    3    0    0  0.47642230777E+02  0.27290960204E+02 -0.23451207653E+02  0.59703750323E+02  0.00000000000E+00 0.  1.
         12    1    3    3    0    0  0.50455207991E+01 -0.11677110677E+02 -0.94006371683E+02  0.94863112488E+02  0.00000000000E+00 0. -1.
        -11    1    4    4    0    0 -0.25182221701E+02 -0.30576860446E+02 -0.16789339464E+02  0.43022907900E+02  0.00000000000E+00 0. -1.
         11    1    4    4    0    0 -0.10491876199E+03  0.58465818040E+02 -0.81928843724E+02  0.14539096922E+03  0.00000000000E+00 0.  1.
          1    1    1    2  501    0  0.77413232111E+02 -0.43502807121E+02 -0.32367463886E+03  0.33563458489E+03  0.00000000000E+00 0. -1.
<scales pt_clust_5="13000.00000" pt_clust_6="13000.00000" pt_clust_7="13000.00000" pt_clust_8="13000.00000" pt_clust_9="88.79927"></scales>
<clustering>
<clus scale="   84.112">  5  6 -1 -1</clus>
<clus scale="   88.799">  1  9  2 -1</clus>
<clus scale="   89.724">  7  8 -1 -1</clus>
<clus scale="  112.959">  2  5  1 -1</clus>
<clus scale="   88.799">  1  5  2 -1</clus>
</clustering>
</event>
<event>
 9    2  0.9254368E-005  0.1234847E+03  0.7546771E-02  0.1242924E+00
         21   -1    0    0  501  502  0.00000000000E+00  0.00000000000E+00  0.29779231337E+03  0.29779231337E+03  0.00000000000E+00 0.  1.
          2   -1    0    0  502    0 -0.00000000000E+00 -0.00000000000E+00 -0.11963940347E+03  0.11963940347E+03  0.00000000000E+00 0. -1.
         24    2    1    2    0    0 -0.14318082503E+02  0.78774538196E+02 -0.53575481132E+02  0.12434588193E+03  0.78620168027E+02 0.  0.
         23    2    1    2    0    0 -0.39038748327E+02 -0.70704732892E+02  0.15987588558E+03  0.20322563408E+03  0.96006127058E+02 0.  0.
        -13    1    3    3    0    0 -0.45621723348E+02  0.57229306839E+02 -0.27160294618E+02  0.78065464876E+02  0.00000000000E+00 0.  1.
         14    1    3    3    0    0  0.31303640845E+02  0.21545231356E+02 -0.26415186514E+02  0.46280417057E+02  0.00000000000E+00 0. -1.
        -11    1    4    4    0    0 -0.15988419920E+02 -0.88115487774E+02  0.87096409919E+02  0.12492298979E+03  0.00000000000E+00 0.  1.
         11    1    4    4    0    0 -0.23050328407E+02  0.17410754882E+02  0.72779475665E+02  0.78302644293E+02  0.00000000000E+00 0. -1.
          1    1    1    2  501    0  0.53356830829E+02 -0.80698053035E+01  0.71852505447E+02  0.89860200828E+02  0.00000000000E+00 0. -1.
<scales pt_clust_5="13000.00000" pt_clust_6="13000.00000" pt_clust_7="13000.00000" pt_clust_8="13000.00000" pt_clust_9="53.96363"></scales>
<clustering>
<clus scale="   53.964">  1  9  2 -1</clus>
<clus scale="   78.620">  5  6 -1 -1</clus>
<clus scale="   96.006">  7  8 -1 -1</clus>
<clus scale="  110.510">  2  5  1 -1</clus>
<clus scale="   53.964">  1  5  2 -1</clus>
</clustering>
</event>
<event>
 9    2  0.9254368E-005  0.9100954E+02  0.7546771E-02  0.1305647E+00
         21   -1    0    0  501  502  0.00000000000E+00  0.00000000000E+00  0.30008083738E+03  0.30008083738E+03  0.00000000000E+00 0.  1.
          4   -1    0    0  502    0 -0.00000000000E+00 -0.00000000000E+00 -0.38361025518E+02  0.38361025518E+02  0.00000000000E+00 0. -1.
         24    2    1    2    0    0 -0.58843053168E+01  0.80054275426E+01  0.55616713902E+02  0.99192020005E+02  0.81529908918E+02 0.  0.
         23    2    1    2    0    0  0.29069936824E+02  0.47208842364E+01  0.15268607225E+03  0.17964354158E+03  0.89952306246E+02 0.  0.
        -11    1    3    3    0    0  0.24838396338E+02  0.24681370576E+02  0.53795647929E+02  0.64187909471E+02  0.00000000000E+00 0.  1.
         12    1    3    3    0    0 -0.30722701655E+02 -0.16675943033E+02  0.18210659733E+01  0.35004110534E+02  0.00000000000E+00 0. -1.
        -11    1    4    4    0    0  0.47272322244E+02  0.26394627345E+02  0.52051746006E+02  0.75104813862E+02  0.00000000000E+00 0.  1.
         11    1    4    4    0    0 -0.18202385420E+02 -0.21673743108E+02  0.10063432624E+03  0.10453872772E+03  0.00000000000E+00 0. -1.
          3    1    1    2  501    0 -0.23185631507E+02 -0.12726311779E+02  0.53417025716E+02  0.59606301313E+02  0.00000000000E+00 0. -1.
<scales pt_clust_5="13000.00000" pt_clust_6="13000.00000" pt_clust_7="13000.00000" pt_clust_8="13000.00000" pt_clust_9="26.44868"></scales>
<clustering>
<clus scale="   26.449">  1  9  2 -1</clus>
<clus scale="   81.530">  5  6 -1 -1</clus>
<clus scale="   82.695">  2  5  1 -1</clus>
<clus scale="   89.952">  7  8 -1 -1</clus>
<clus scale="   26.449">  1  5  2 -1</clus>
</clustering>
</event>
<event>
 9    2  0.9254368E-005  0.9618833E+02  0.7546771E-02  0.1293954E+00
         21   -1    0    0  501  502  0.00000000000E+00  0.00000000000E+00  0.29369587537E+02  0.29369587537E+02  0.00000000000E+00 0. -1.
          2   -1    0    0  502    0 -0.00000000000E+00 -0.00000000000E+00 -0.10560530354E+04  0.10560530354E+04  0.00000000000E+00 0. -1.
         24    2    1    2    0    0  0.15697124093E+02 -0.17691063046E+02 -0.32967316574E+03  0.34044795786E+03  0.81615209289E+02 0.  0.
         23    2    1    2    0    0 -0.79672360473E+02 -0.29732363273E+02 -0.16441901170E+03  0.20646257276E+03  0.91441150993E+02 0.  0.
        -11    1    3    3    0    0  0.43435863327E+02 -0.31807116361E+02 -0.20606567416E+03  0.21298222682E+03  0.00000000000E+00 0.  1.
         12    1    3    3    0    0 -0.27738739234E+02  0.14116053315E+02 -0.12360749157E+03  0.12746573104E+03  0.00000000000E+00 0. -1.
        -13    1    4    4    0    0 -0.55548718298E+02  0.19849665557E+02 -0.42652627311E+02  0.72793653183E+02  0.00000000000E+00 0.  1.
         13    1    4    4    0    0 -0.24123642176E+02 -0.49582028831E+02 -0.12176638439E+03  0.13366891958E+03  0.00000000000E+00 0. -1.
          1    1    1    2  501    0  0.63975236380E+02  0.47423426319E+02 -0.53259127040E+03  0.53851209229E+03  0.00000000000E+00 0. -1.
<scales pt_clust_5="13000.00000" pt_clust_6="13000.00000" pt_clust_7="13000.00000" pt_clust_8="13000.00000" pt_clust_9="79.63554"></scales>
<clustering>
<clus scale="   79.636">  1  9  2 -1</clus>
<clus scale="   81.615">  5  6 -1 -1</clus>
<clus scale="   86.901">  2  5  1 -1</clus>
<clus scale="   91.441">  7  8 -1 -1</clus>
<clus scale="   79.636">  1  5  2 -1</clus>
</clustering>
</event>
<event>
 9    2  0.9254368E-005  0.4064792E+03  0.7546771E-02  0.1100680E+00
         21   -1    0    0  501  502  0.00000000000E+00  0.00000000000E+00  0.24566486094E+03  0.24566486094E+03  0.00000000000E+00 0. -1.
          2   -1    0    0  502    0 -0.00000000000E+00 -0.00000000000E+00 -0.87731749749E+03  0.87731749749E+03  0.00000000000E+00 0. -1.
         24    2    1    2    0    0 -0.92179863970E+01 -0.38702263475E+01 -0.17369548166E+03  0.19138792391E+03  0.79745013281E+02 0.  0.
         23    2    1    2    0    0 -0.38965590967E+03 -0.45297034301E+02 -0.16822435406E+03  0.43615230837E+03  0.89698681915E+02 0.  0.
        -11    1    3    3    0    0  0.20781752166E+02 -0.32328056220E+02 -0.72174305818E+02  0.81768666752E+02  0.00000000000E+00 0.  1.
         12    1    3    3    0    0 -0.29999738563E+02  0.28457829873E+02 -0.10152117585E+03  0.10961925716E+03  0.00000000000E+00 0. -1.
        -13    1    4    4    0    0 -0.34577984324E+03 -0.41876568236E+02 -0.17787561618E+03  0.39109727919E+03  0.00000000000E+00 0. -1.
         13    1    4    4    0    0 -0.43876066430E+02 -0.34204660651E+01  0.96512621220E+01  0.45055029176E+02  0.00000000000E+00 0.  1.
          1    1    1    2  501    0  0.39887389607E+03  0.49167260649E+02 -0.28973280083E+03  0.49544212615E+03  0.00000000000E+00 0. -1.
<scales pt_clust_5="13000.00000" pt_clust_6="13000.00000" pt_clust_7="13000.00000" pt_clust_8="13000.00000" pt_clust_9="396.45884"></scales>
<clustering>
<clus scale="   79.745">  5  6 -1 -1</clus>
<clus scale="   80.369">  2  5  1 -1</clus>
<clus scale="   89.699">  7  8 -1 -1</clus>
<clus scale="  396.459">  1  9  2 -1</clus>
<clus scale="  396.459">  1  5  2 -1</clus>
</clustering>
</event>
<event>
 9    2  0.9254368E-005  0.9859245E+02  0.7546771E-02  0.1290390E+00
         21   -1    0    0  501  502  0.00000000000E+00  0.00000000000E+00  0.25298664221E+03  0.25298664221E+03  0.00000000000E+00 0.  1.
          2   -1    0    0  502    0 -0.00000000000E+00 -0.00000000000E+00 -0.20663271563E+03  0.20663271563E+03  0.00000000000E+00 0. -1.
         23    2    1    2    0    0  0.17313466125E+02  0.12468008898E+02 -0.22850667565E+02  0.98300687749E+02  0.93196914373E+02 0.  0.
         24    2    1    2    0    0 -0.10171365783E+03  0.52732175880E+01  0.17947061839E+03  0.22133031494E+03  0.80024561421E+02 0.  0.
        -11    1    4    4    0    0 -0.11131433942E+03 -0.92978241326E+01  0.16062286611E+03  0.19564518090E+03  0.00000000000E+00 0.  1.
         12    1    4    4    0    0  0.96006815961E+01  0.14571041721E+02  0.18847752288E+02  0.25685134032E+02  0.00000000000E+00 0. -1.
        -11    1    3    3    0    0  0.42734625150E+02  0.31445659178E+02  0.84602670098E+01  0.53727588684E+02  0.00000000000E+00 0.  1.
         11    1    3    3    0    0 -0.25421159025E+02 -0.18977650280E+02 -0.31310934575E+02  0.44573099065E+02  0.00000000000E+00 0. -1.
          1    1    1    2  501    0  0.84400191702E+02 -0.17741226486E+02 -0.11026602425E+03  0.13998835516E+03  0.00000000000E+00 0. -1.
<scales pt_clust_5="13000.00000" pt_clust_6="13000.00000" pt_clust_7="13000.00000" pt_clust_8="13000.00000" pt_clust_9="86.24472"></scales>
<clustering>
<clus scale="   80.025">  5  6 -1 -1</clus>
<clus scale="   86.245">  1  9  2 -1</clus>
<clus scale="   86.248">  1  5  2 -1</clus>
<clus scale="   93.197">  7  8 -1 -1</clus>
<clus scale="   86.245">  1  5  2 -1</clus>
</clustering>
</event>
<event>
 9    2  0.9254368E-005  0.1087721E+03  0.7546771E-02  0.1267436E+00
          2   -1    0    0  502    0 -0.00000000000E+00  0.00000000000E+00  0.85697573189E+03  0.85697573189E+03  0.00000000000E+00 0. -1.
         21   -1    0    0  501  502  0.00000000000E+00 -0.00000000000E+00 -0.33113563463E+02  0.33113563463E+02  0.00000000000E+00 0. -1.
         23    2    1    2    0    0  0.30557878137E+02  0.44764539303E+02  0.45822076618E+03  0.47020353377E+03  0.90484499858E+02 0.  0.
         24    2    1    2    0    0 -0.39215226953E+02 -0.78394023448E+02  0.10829377365E+03  0.16020577807E+03  0.79087881368E+02 0.  0.
        -11    1    4    4    0    0 -0.22491253728E+02 -0.27605634536E+02  0.99930029691E+02  0.10608458129E+03  0.00000000000E+00 0.  1.
         12    1    4    4    0    0 -0.16723973224E+02 -0.50788388912E+02  0.83637439591E+01  0.54121196788E+02  0.00000000000E+00 0. -1.
        -13    1    3    3    0    0 -0.22078998619E+02 -0.14129660015E+02  0.10010886764E+03  0.10348388692E+03  0.00000000000E+00 0.  1.
         13    1    3    3    0    0  0.52636876755E+02  0.58894199319E+02  0.35811189854E+03  0.36671964685E+03  0.00000000000E+00 0. -1.
          1    1    1    2  501    0  0.86573488158E+01  0.33629484145E+02  0.25734762859E+03  0.25967998351E+03  0.00000000000E+00 0. -1.
<scales pt_clust_5="13000.00000" pt_clust_6="13000.00000" pt_clust_7="13000.00000" pt_clust_8="13000.00000" pt_clust_9="34.72597"></scales>
<clustering>
<clus scale="   34.726">  2  9  1 -1</clus>
<clus scale="   79.088">  5  6 -1 -1</clus>
<clus scale="   90.484">  7  8 -1 -1</clus>
<clus scale="   99.493">  2  5  1 -1</clus>
<clus scale="   34.726">  2  5  1 -1</clus>
</clustering>
</event>
<event>
 9    2  0.9254368E-005  0.1154795E+03  0.7546771E-02  0.1254890E+00
         21   -1    0    0  501  502  0.00000000000E+00  0.00000000000E+00  0.83035941651E+02  0.83035941651E+02  0.00000000000E+00 0. -1.
          2   -1    0    0  502    0 -0.00000000000E+00 -0.00000000000E+00 -0.26921129800E+03  0.26921129800E+03  0.00000000000E+00 0. -1.
         23    2    1    2    0    0  0.28768069019E+02 -0.42909680609E+02 -0.33244726138E+02  0.11114709032E+03  0.92626245660E+02 0.  0.
         24    2    1    2    0    0 -0.70554337314E+02  0.53324400085E+02 -0.50708741604E+02  0.13017732431E+03  0.80952783351E+02 0.  0.
        -11    1    4    4    0    0 -0.25271204817E+02  0.15573026874E+02  0.21724100437E+02  0.36784364868E+02  0.00000000000E+00 0.  1.
         12    1    4    4    0    0 -0.45283132497E+02  0.37751373211E+02 -0.72432842041E+02  0.93392959447E+02  0.00000000000E+00 0. -1.
        -13    1    3    3    0    0  0.63938394009E+01 -0.69958344919E+02 -0.28132475185E+02  0.75673557906E+02  0.00000000000E+00 0. -1.
         13    1    3    3    0    0  0.22374229618E+02  0.27048664310E+02 -0.51122509531E+01  0.35473532412E+02  0.00000000000E+00 0.  1.
          1    1    1    2  501    0  0.41786268296E+02 -0.10414719476E+02 -0.10222188861E+03  0.11092282502E+03  0.00000000000E+00 0. -1.
<scales pt_clust_5="13000.00000" pt_clust_6="13000.00000" pt_clust_7="13000.00000" pt_clust_8="13000.00000" pt_clust_9="43.06461"></scales>
<clustering>
<clus scale="   43.065">  1  9  2 -1</clus>
<clus scale="   80.953">  5  6 -1 -1</clus>
<clus scale="   92.626">  7  8 -1 -1</clus>
<clus scale="  106.345">  1  5  2 -1</clus>
<clus scale="   43.065">  1  5  2 -1</clus>
</clustering>
</event>
<event>
 9    2  0.9254368E-005  0.9708780E+02  0.7546771E-02  0.1291955E+00
         21   -1    0    0  501  502  0.00000000000E+00  0.00000000000E+00  0.43677313232E+03  0.43677313232E+03  0.00000000000E+00 0.  1.
          2   -1    0    0  502    0 -0.00000000000E+00 -0.00000000000E+00 -0.76659579129E+02  0.76659579129E+02  0.00000000000E+00 0. -1.
         23    2    1    2    0    0 -0.10733622456E+02  0.27361280490E+02 -0.11005224596E+02  0.96274164999E+02  0.91015106201E+02 0.  0.
         24    2    1    2    0    0  0.73043515438E+02 -0.36890429389E+02  0.30410073652E+03  0.32515449601E+03  0.80943989246E+02 0.  0.
        -11    1    4    4    0    0  0.78573490290E+02 -0.80829143187E+00  0.21042027074E+03  0.22461330559E+03  0.00000000000E+00 0.  1.
         12    1    4    4    0    0 -0.55299748527E+01 -0.36082137957E+02  0.93680465782E+02  0.10054119042E+03  0.00000000000E+00 0. -1.
        -11    1    3    3    0    0 -0.35625955943E+02  0.50346729593E+02 -0.90411598657E+01  0.62335740063E+02  0.00000000000E+00 0. -1.
         11    1    3    3    0    0  0.24892333486E+02 -0.22985449103E+02 -0.19640647300E+01  0.33938424936E+02  0.00000000000E+00 0.  1.
          1    1    1    2  501    0 -0.62309892981E+02  0.95291488987E+01  0.67018041264E+02  0.92004050438E+02  0.00000000000E+00 0. -1.
<scales pt_clust_5="13000.00000" pt_clust_6="13000.00000" pt_clust_7="13000.00000" pt_clust_8="13000.00000" pt_clust_9="63.03434"></scales>
<clustering>
<clus scale="   63.034">  1  9  2 -1</clus>
<clus scale="   80.944">  5  6 -1 -1</clus>
<clus scale="   87.717">  1  5  2 -1</clus>
<clus scale="   91.015">  7  8 -1 -1</clus>
<clus scale="   63.034">  1  5  2 -1</clus>
</clustering>
</event>
<event>
 9    2  0.9254368E-005  0.1255489E+03  0.7546771E-02  0.1242659E+00
          2   -1    0    0  502    0 -0.00000000000E+00  0.00000000000E+00  0.87852002632E+03  0.87852002632E+03  0.00000000000E+00 0. -1.
         21   -1    0    0  501  502  0.00000000000E+00 -0.00000000000E+00 -0.51661763763E+02  0.51661763763E+02  0.00000000000E+00 0. -1.
         24    2    1    2    0    0  0.27022738572E+02 -0.62982057382E+02  0.41346905825E+03  0.42676920713E+03  0.80488049251E+02 0.  0.
         23    2    1    2    0    0  0.85072870089E+02  0.24444114257E+02  0.73237359989E+02  0.14319893006E+03  0.85482832920E+02 0.  0.
        -13    1    3    3    0    0  0.23463683279E+02 -0.82086786700E+02  0.35636760671E+03  0.36645143757E+03  0.00000000000E+00 0.  1.
         14    1    3    3    0    0  0.35590552924E+01  0.19104729318E+02  0.57101451543E+02  0.60317769565E+02  0.00000000000E+00 0. -1.
        -13    1    4    4    0    0  0.55424733663E+02 -0.41780462197E+01  0.83892023577E+02  0.10063413333E+03  0.00000000000E+00 0.  1.
         13    1    4    4    0    0  0.29648136426E+02  0.28622160477E+02 -0.10654663589E+02  0.42564796723E+02  0.00000000000E+00 0. -1.
          1    1    1    2  501    0 -0.11209560866E+03  0.38537943125E+02  0.34015184432E+03  0.36021365290E+03  0.00000000000E+00 0. -1.
<scales pt_clust_5="13000.00000" pt_clust_6="13000.00000" pt_clust_7="13000.00000" pt_clust_8="13000.00000" pt_clust_9="91.95231"></scales>
<clustering>
<clus scale="   80.488">  5  6 -1 -1</clus>
<clus scale="   85.483">  7  8 -1 -1</clus>
<clus scale="  105.713">  1  5  2 -1</clus>
<clus scale="   91.952">  2  9  1 -1</clus>
<clus scale="   91.952">  2  5  1 -1</clus>
</clustering>
</event>
<event>
 9    2  0.9254368E-005  0.1109903E+03  0.7546771E-02  0.1263125E+00
         21   -1    0    0  501  502  0.00000000000E+00  0.00000000000E+00  0.28193351467E+02  0.28193351467E+02  0.00000000000E+00 0. -1.
          2   -1    0    0  502    0 -0.00000000000E+00 -0.00000000000E+00 -0.10376809943E+04  0.10376809943E+04  0.00000000000E+00 0. -1.
         24    2    1    2    0    0  0.72355897033E+02  0.26262329094E+02 -0.77375028836E+03  0.78161963321E+03  0.79464813094E+02 0.  0.
         23    2    1    2    0    0 -0.10993992339E+02 -0.27123535507E+02 -0.16476372818E+03  0.19042891305E+03  0.90881960576E+02 0.  0.
        -11    1    3    3    0    0  0.62917827576E+02  0.28531757342E+02 -0.30327086337E+03  0.31104007905E+03  0.00000000000E+00 0.  1.
         12    1    3    3    0    0  0.94380694563E+01 -0.22694282479E+01 -0.47047942499E+03  0.47057955416E+03  0.00000000000E+00 0. -1.
        -11    1    4    4    0    0 -0.30494476289E+02 -0.51651293720E+02 -0.79497616421E+02  0.99587349817E+02  0.00000000000E+00 0.  1.
         11    1    4    4    0    0  0.19500483950E+02  0.24527758213E+02 -0.85266111756E+02  0.90841563237E+02  0.00000000000E+00 0. -1.
          1    1    1    2  501    0 -0.61361904693E+02  0.86120641332E+00 -0.70973626336E+02  0.93825799540E+02  0.00000000000E+00 0. -1.
<scales pt_clust_5="13000.00000" pt_clust_6="13000.00000" pt_clust_7="13000.00000" pt_clust_8="13000.00000" pt_clust_9="61.36795"></scales>
<clustering>
<clus scale="   61.368">  1  9  2 -1</clus>
<clus scale="   79.465">  5  6 -1 -1</clus>
<clus scale="   90.882">  7  8 -1 -1</clus>
<clus scale="  101.853">  2  5  1 -1</clus>
<clus scale="   61.368">  1  5  2 -1</clus>
</clustering>
</event>
<event>
 9    2  0.9254368E-005  0.2642702E+03  0.7546771E-02  0.1113476E+00
          2   -1    0    0  502    0 -0.00000000000E+00  0.00000000000E+00  0.10162333807E+04  0.10162333807E+04  0.00000000000E+00 0. -1.
         21   -1    0    0  501  502  0.00000000000E+00 -0.00000000000E+00 -0.46593894057E+03  0.46593894057E+03  0.00000000000E+00 0.  1.
         24    2    1    2    0    0  0.18501500283E+03  0.59975601217E+02  0.73934198281E+03  0.76878775174E+03  0.81119761245E+02 0.  0.
         23    2    1    2    0    0 -0.39109282779E+03 -0.11537235628E+03  0.14411869448E+02  0.41854121657E+03  0.93298807304E+02 0.  0.
        -11    1    3    3    0    0  0.14709899170E+03  0.15194872862E+02  0.59202662153E+03  0.61021677961E+03  0.00000000000E+00 0.  1.
         12    1    3    3    0    0  0.37916011132E+02  0.44780728355E+02  0.14731536128E+03  0.15857097213E+03  0.00000000000E+00 0. -1.
        -13    1    4    4    0    0 -0.16439700727E+03 -0.80125768274E+02  0.41484279122E+02  0.18752989136E+03  0.00000000000E+00 0. -1.
         13    1    4    4    0    0 -0.22669582053E+03 -0.35246588005E+02 -0.27072409674E+02  0.23101132521E+03  0.00000000000E+00 0.  1.
          1    1    1    2  501    0  0.20607782496E+03  0.55396755062E+02 -0.20345941212E+03  0.29484335297E+03  0.00000000000E+00 0. -1.
<scales pt_clust_5="13000.00000" pt_clust_6="13000.00000" pt_clust_7="13000.00000" pt_clust_8="13000.00000" pt_clust_9="247.25306"></scales>
<clustering>
<clus scale="   81.120">  5  6 -1 -1</clus>
<clus scale="   93.299">  7  8 -1 -1</clus>
<clus scale="  210.732">  1  5  2 -1</clus>
<clus scale="  247.253">  2  9  1 -1</clus>
<clus scale="  247.253">  2  5  1 -1</clus>
</clustering>
</event>
<event>
 9    2  0.9254368E-005  0.3194752E+03  0.7546771E-02  0.1076348E+00
          2   -1    0    0  502    0 -0.00000000000E+00  0.00000000000E+00  0.17243786709E+03  0.17243786709E+03  0.00000000000E+00 0. -1.
         21   -1    0    0  501  502  0.00000000000E+00 -0.00000000000E+00 -0.69598287410E+03  0.69598287410E+03  0.00000000000E+00 0.  1.
         24    2    1    2    0    0  0.20311328613E+03 -0.23961602303E+03 -0.13491985176E+03  0.34981417228E+03  0.74133280188E+02 0.  0.
         23    2    1    2    0    0 -0.19264173025E+03  0.22094877280E+03 -0.39130426395E+03  0.49703581701E+03  0.89422480240E+02 0.  0.
        -11    1    3    3    0    0  0.30632234466E+02 -0.51969165945E+02 -0.57753774901E+02  0.83514229403E+02  0.00000000000E+00 0.  1.
         12    1    3    3    0    0  0.17248105167E+03 -0.18764685709E+03 -0.77166076863E+02  0.26629994288E+03  0.00000000000E+00 0. -1.
        -11    1    4    4    0    0 -0.48644530826E+02  0.61166500229E+02 -0.47389548950E+02  0.91396939113E+02  0.00000000000E+00 0. -1.
         11    1    4    4    0    0 -0.14399719943E+03  0.15978227257E+03 -0.34391471500E+03  0.40563887790E+03  0.00000000000E+00 0.  1.
          1    1    1    2  501    0 -0.10471555881E+02  0.18667250233E+02  0.26791086984E+01  0.21570751893E+02  0.00000000000E+00 0. -1.
<scales pt_clust_5="13000.00000" pt_clust_6="13000.00000" pt_clust_7="13000.00000" pt_clust_8="13000.00000" pt_clust_9="21.40374"></scales>
<clustering>
<clus scale="   21.404">  2  9  1 -1</clus>
<clus scale="   74.133">  5  6 -1 -1</clus>
<clus scale="   89.422">  7  8 -1 -1</clus>
<clus scale="  315.537">  1  5  2 -1</clus>
<clus scale="   21.404">  2  5  1 -1</clus>
</clustering>
</event>
<event>
 9    2  0.9254368E-005  0.1024766E+03  0.7546771E-02  0.1280221E+00
          2   -1    0    0  502    0 -0.00000000000E+00  0.00000000000E+00  0.29782410076E+03  0.29782410076E+03  0.00000000000E+00 0. -1.
         21   -1    0    0  501  502  0.00000000000E+00 -0.00000000000E+00 -0.69064857161E+02  0.69064857161E+02  0.00000000000E+00 0. -1.
         24    2    1    2    0    0  0.63459710005E+02 -0.27113907839E+02  0.16774973131E+03  0.19776496594E+03  0.78795371732E+02 0.  0.
         23    2    1    2    0    0 -0.14309733216E+01  0.52836381726E+01  0.21565832665E+02  0.92443298778E+02  0.89725770175E+02 0.  0.
        -13    1    3    3    0    0  0.66168321308E+02  0.27708659093E+01  0.73890392643E+02  0.99225574161E+02  0.00000000000E+00 0.  1.
         14    1    3    3    0    0 -0.27086113035E+01 -0.29884773749E+02  0.93859338664E+02  0.98539391776E+02  0.00000000000E+00 0. -1.
        -11    1    4    4    0    0  0.16331362321E+00 -0.25686798263E+02 -0.25424709403E+02  0.36142137798E+02  0.00000000000E+00 0. -1.
         11    1    4    4    0    0 -0.15942869448E+01  0.30970436436E+02  0.46990542068E+02  0.56301160981E+02  0.00000000000E+00 0.  1.
          1    1    1    2  501    0 -0.62028736683E+02  0.21830269667E+02  0.39443679630E+02  0.76680693209E+02  0.00000000000E+00 0. -1.
<scales pt_clust_5="13000.00000" pt_clust_6="13000.00000" pt_clust_7="13000.00000" pt_clust_8="13000.00000" pt_clust_9="65.75808"></scales>
<clustering>
<clus scale="   65.758">  2  9  1 -1</clus>
<clus scale="   78.795">  5  6 -1 -1</clus>
<clus scale="   89.726">  7  8 -1 -1</clus>
<clus scale="   93.056">  1  5  2 -1</clus>
<clus scale="   65.758">  2  5  1 -1</clus>
</clustering>
</event>
<event>
 9    2  0.9254368E-005  0.1887522E+03  0.7546771E-02  0.1185355E+00
          2   -1    0    0  502    0 -0.00000000000E+00  0.00000000000E+00  0.65803417323E+03  0.65803417323E+03  0.00000000000E+00 0. -1.
         21   -1    0    0  501  502  0.00000000000E+00 -0.00000000000E+00 -0.85959268746E+02  0.85959268746E+02  0.00000000000E+00 0. -1.
         24    2    1    2    0    0  0.53334423337E+02 -0.32032081718E+02  0.13131552585E+03  0.16811000936E+03  0.84537523897E+02 0.  0.
         23    2    1    2    0    0 -0.18314299482E+03  0.17358100359E+01  0.14857233335E+03  0.25472708636E+03  0.96269313396E+02 0.  0.
        -11    1    3    3    0    0  0.37057881796E+02  0.17857736395E+02  0.97123941980E+02  0.10547627912E+03  0.00000000000E+00 0.  1.
         12    1    3    3    0    0  0.16276541541E+02 -0.49889818113E+02  0.34191583870E+02  0.62633730237E+02  0.00000000000E+00 0. -1.
        -13    1    4    4    0    0 -0.14420302806E+03 -0.29911559944E+02  0.14117041099E+03  0.20400563634E+03  0.00000000000E+00 0.  1.
         13    1    4    4    0    0 -0.38939966760E+02  0.31647369980E+02  0.74019223648E+01  0.50721450025E+02  0.00000000000E+00 0. -1.
          1    1    1    2  501    0  0.12980857148E+03  0.30296271682E+02  0.29218704528E+03  0.32115634625E+03  0.00000000000E+00 0. -1.
<scales pt_clust_5="13000.00000" pt_clust_6="13000.00000" pt_clust_7="13000.00000" pt_clust_8="13000.00000" pt_clust_9="162.35657"></scales>
<clustering>
<clus scale="   84.538">  5  6 -1 -1</clus>
<clus scale="   96.269">  7  8 -1 -1</clus>
<clus scale="  104.963">  1  5  2 -1</clus>
<clus scale="  162.357">  2  9  1 -1</clus>
<clus scale="  162.357">  2  5  1 -1</clus>
</clustering>
</event>
<event>
 9    2  0.9254368E-005  0.1302887E+03  0.7546771E-02  0.1229223E+00
          2   -1    0    0  502    0 -0.00000000000E+00  0.00000000000E+00  0.81046568086E+03  0.81046568086E+03  0.00000000000E+00 0. -1.
         21   -1    0    0  501  502  0.00000000000E+00 -0.00000000000E+00 -0.41647966299E+02  0.41647966299E+02  0.00000000000E+00 0. -1.
         24    2    1    2    0    0 -0.81091319842E+02 -0.81758147768E+02  0.41474205062E+03  0.43809245741E+03  0.81571047613E+02 0.  0.
         23    2    1    2    0    0  0.39035002178E+02  0.27815385203E+02  0.75026425596E+02  0.12671119530E+03  0.90162827305E+02 0.  0.
        -13    1    3    3    0    0  0.77403644300E+00 -0.54187370224E+02  0.14159454224E+03  0.15161096469E+03  0.00000000000E+00 0.  1.
         14    1    3    3    0    0 -0.81865356285E+02 -0.27570777545E+02  0.27314750838E+03  0.28648149272E+03  0.00000000000E+00 0. -1.
        -11    1    4    4    0    0  0.17922898159E+02  0.27975457815E+02 -0.13381032326E+02  0.35817712720E+02  0.00000000000E+00 0. -1.
         11    1    4    4    0    0  0.21112104018E+02 -0.16007261189E+00  0.88407457922E+02  0.90893482580E+02  0.00000000000E+00 0.  1.
          1    1    1    2  501    0  0.42056317664E+02  0.53942762565E+02  0.27904923835E+03  0.28730999445E+03  0.00000000000E+00 0. -1.
<scales pt_clust_5="13000.00000" pt_clust_6="13000.00000" pt_clust_7="13000.00000" pt_clust_8="13000.00000" pt_clust_9="68.40000"></scales>
<clustering>
<clus scale="   68.400">  2  9  1 -1</clus>
<clus scale="   81.571">  5  6 -1 -1</clus>
<clus scale="   90.163">  7  8 -1 -1</clus>
<clus scale="  124.498">  1  5  2 -1</clus>
<clus scale="   68.400">  2  5  1 -1</clus>
</clustering>
</event>
<event>
 9    2  0.9254368E-005  0.1599151E+03  0.7546771E-02  0.1191237E+00
         21   -1    0    0  501  502  0.00000000000E+00  0.00000000000E+00  0.64697467029E+02  0.64697467029E+02  0.00000000000E+00 0.  1.
          2   -1    0    0  502    0 -0.00000000000E+00 -0.00000000000E+00 -0.12942386631E+04  0.12942386631E+04  0.00000000000E+00 0. -1.
         24    2    1    2    0    0 -0.11232584984E+03  0.80470748508E+02 -0.97985411366E+03  0.99234931523E+03  0.74501285098E+02 0.  0.
         23    2    1    2    0    0  0.97641210967E+02 -0.60036037394E+02 -0.28676375784E+03  0.32177726348E+03  0.90382645556E+02 0.  0.
        -11    1    3    3    0    0 -0.66394260644E+02  0.34135559704E+02 -0.29142155674E+03  0.30083210935E+03  0.00000000000E+00 0.  1.
         12    1    3    3    0    0 -0.45931589198E+02  0.46335188804E+02 -0.68843255691E+03  0.69151720588E+03  0.00000000000E+00 0. -1.
        -13    1    4    4    0    0  0.40485195667E+02  0.89795893035E+01 -0.16775125333E+03  0.17280094642E+03  0.00000000000E+00 0. -1.
         13    1    4    4    0    0  0.57156015300E+02 -0.69015626697E+02 -0.11901250451E+03  0.14897631706E+03  0.00000000000E+00 0.  1.
          1    1    1    2  501    0  0.14684638875E+02 -0.20434711114E+02  0.37076675428E+02  0.44809551415E+02  0.00000000000E+00 0. -1.
<scales pt_clust_5="13000.00000" pt_clust_6="13000.00000" pt_clust_7="13000.00000" pt_clust_8="13000.00000" pt_clust_9="25.16378"></scales>
<clustering>
<clus scale="   25.164">  1  9  2 -1</clus>
<clus scale="   74.501">  5  6 -1 -1</clus>
<clus scale="   90.383">  7  8 -1 -1</clus>
<clus scale="  151.507">  2  5  1 -1</clus>
<clus scale="   25.164">  1  5  2 -1</clus>
</clustering>
</event>
<event>
 9    2  0.9254368E-005  0.9353271E+02  0.7546771E-02  0.1297770E+00
         -1   -1    0    0    0  501 -0.00000000000E+00  0.00000000000E+00  0.16348053616E+03  0.16348053616E+03  0.00000000000E+00 0.  1.
         21   -1    0    0  501  502  0.00000000000E+00 -0.00000000000E+00 -0.19086449101E+03  0.19086449101E+03  0.00000000000E+00 0.  1.
         24    2    1    2    0    0 -0.96803469208E+01 -0.25314927149E+02  0.13225533844E+03  0.15918613662E+03  0.84345698732E+02 0.  0.
         23    2    1    2    0    0  0.50478917906E+01  0.39559066154E+01 -0.13206149187E+03  0.15997078844E+03  0.90051569167E+02 0.  0.
        -13    1    3    3    0    0 -0.45419976008E+02 -0.16404591766E+02  0.96211348100E+02  0.10765086323E+03  0.00000000000E+00 0.  1.
         14    1    3    3    0    0  0.35739629087E+02 -0.89103353829E+01  0.36043990339E+02  0.51535273391E+02  0.00000000000E+00 0. -1.
        -13    1    4    4    0    0 -0.80606519642E+01 -0.35660697097E+02 -0.10251845826E+03  0.10884251794E+03  0.00000000000E+00 0.  1.
         13    1    4    4    0    0  0.13108543755E+02  0.39616603713E+02 -0.29543033612E+02  0.51128270498E+02  0.00000000000E+00 0. -1.
         -2    1    1    2    0  502  0.46324551301E+01  0.21359020534E+02 -0.27577801416E+02  0.35188102103E+02  0.00000000000E+00 0.  1.
<scales pt_clust_5="13000.00000" pt_clust_6="13000.00000" pt_clust_7="13000.00000" pt_clust_8="13000.00000" pt_clust_9="21.85560"></scales>
<clustering>
<clus scale="   21.856">  2  9  1 -1</clus>
<clus scale="   84.346">  5  6 -1 -1</clus>
<clus scale="   88.053">  1  5  2 -1</clus>
<clus scale="   90.052">  7  8 -1 -1</clus>
<clus scale="   21.856">  2  5  1 -1</clus>
</clustering>
</event>
<event>
 9    2  0.9254368E-005  0.1213394E+03  0.7546771E-02  0.1245893E+00
          2   -1    0    0  502    0 -0.00000000000E+00  0.00000000000E+00  0.63735450460E+03  0.63735450460E+03  0.00000000000E+00 0. -1.
         21   -1    0    0  501  502  0.00000000000E+00 -0.00000000000E+00 -0.98856409889E+02  0.98856409889E+02  0.00000000000E+00 0.  1.
         24    2    1    2    0    0  0.64872990487E+02 -0.32944311071E+02  0.54026300846E+03  0.55102835795E+03  0.80338660892E+02 0.  0.
         23    2    1    2    0    0 -0.73793946864E+02  0.62028426546E+02  0.32246846812E+02  0.13955066975E+03  0.95610972193E+02 0.  0.
        -13    1    3    3    0    0  0.16326746906E+02  0.26763059370E+02  0.14660581334E+03  0.14992027386E+03  0.00000000000E+00 0.  1.
         14    1    3    3    0    0  0.48546243581E+02 -0.59707370442E+02  0.39365719512E+03  0.40110808409E+03  0.00000000000E+00 0. -1.
        -13    1    4    4    0    0 -0.62972604706E+02 -0.65371224547E+01  0.30103077428E+02  0.70103339322E+02  0.00000000000E+00 0.  1.
         13    1    4    4    0    0 -0.10821342157E+02  0.68565549001E+02  0.21437693841E+01  0.69447330424E+02  0.00000000000E+00 0. -1.
          1    1    1    2  501    0  0.89209563765E+01 -0.29084115474E+02 -0.34011760559E+02  0.45631886789E+02  0.00000000000E+00 0. -1.
<scales pt_clust_5="13000.00000" pt_clust_6="13000.00000" pt_clust_7="13000.00000" pt_clust_8="13000.00000" pt_clust_9="30.42153"></scales>
<clustering>
<clus scale="   30.422">  2  9  1 -1</clus>
<clus scale="   80.339">  5  6 -1 -1</clus>
<clus scale="   95.611">  7  8 -1 -1</clus>
<clus scale="  109.709">  1  5  2 -1</clus>
<clus scale="   30.422">  2  5  1 -1</clus>
</clustering>
</event>
<event>
 9    2  0.9322865E-005  0.1344295E+03  0.7546771E-02  0.1224431E+00
         -1   -1    0    0    0  501 -0.00000000000E+00  0.00000000000E+00  0.49648206376E+03  0.49648206376E+03  0.00000000000E+00 0.  1.
         21   -1    0    0  501  502  0.00000000000E+00 -0.00000000000E+00 -0.20220674810E+03  0.20220674810E+03  0.00000000000E+00 0. -1.
         24    2    1    2    0    0  0.44218275012E+02 -0.88757906448E+02  0.45527790942E+03  0.47233742186E+03  0.77404415139E+02 0.  0.
         23    2    1    2    0    0 -0.55133798983E+02  0.69163336599E+02 -0.10172254277E+03  0.16296984478E+03  0.91588163426E+02 0.  0.
        -13    1    3    3    0    0  0.52234043706E+02 -0.86602555374E+02  0.45237744555E+03  0.46354476716E+03  0.00000000000E+00 0.  1.
         14    1    3    3    0    0 -0.80157686935E+01 -0.21553510748E+01  0.29004638664E+01  0.87926546983E+01  0.00000000000E+00 0. -1.
        -13    1    4    4    0    0 -0.26536857483E+02  0.20966099890E+02 -0.10143729896E+03  0.10692664668E+03  0.00000000000E+00 0.  1.
         13    1    4    4    0    0 -0.28596941499E+02  0.48197236709E+02 -0.28524381430E+00  0.56043198103E+02  0.00000000000E+00 0. -1.
         -2    1    1    2    0  502  0.10915523970E+02  0.19594569849E+02 -0.59280050984E+02  0.63381545230E+02  0.00000000000E+00 0.  1.
<scales pt_clust_5="13000.00000" pt_clust_6="13000.00000" pt_clust_7="13000.00000" pt_clust_8="13000.00000" pt_clust_9="22.42980"></scales>
<clustering>
<clus scale="   22.430">  2  9  1 -1</clus>
<clus scale="   77.404">  5  6 -1 -1</clus>
<clus scale="   91.588">  7  8 -1 -1</clus>
<clus scale="  125.197">  1  5  2 -1</clus>
<clus scale="   22.430">  2  5  1 -1</clus>
</clustering>
</event>
<event>
 9    2  0.9254368E-005  0.1692606E+03  0.7546771E-02  0.1196938E+00
         21   -1    0    0  501  502  0.00000000000E+00  0.00000000000E+00  0.30510002593E+03  0.30510002593E+03  0.00000000000E+00 0.  1.
         -1   -1    0    0    0  501 -0.00000000000E+00 -0.00000000000E+00 -0.32961627477E+03  0.32961627477E+03  0.00000000000E+00 0.  1.
         23    2    1    2    0    0  0.59886430367E+02  0.24623010594E+02 -0.15574662526E+03  0.19227434752E+03  0.92302417314E+02 0.  0.
         24    2    1    2    0    0  0.28505740039E+02  0.10420597859E+03 -0.96257578894E+02  0.16646939286E+03  0.82310838139E+02 0.  0.
        -13    1    4    4    0    0  0.40132303628E+02  0.11359420285E+03 -0.81400920252E+02  0.14539723014E+03  0.00000000000E+00 0.  1.
         14    1    4    4    0    0 -0.11626563589E+02 -0.93882242568E+01 -0.14856658642E+02  0.21072162717E+02  0.00000000000E+00 0. -1.
        -11    1    3    3    0    0  0.43622676679E+02 -0.66036180956E+01 -0.15030704058E+03  0.15664849869E+03  0.00000000000E+00 0.  1.
         11    1    3    3    0    0  0.16263753688E+02  0.31226628690E+02 -0.54395846722E+01  0.35625848829E+02  0.00000000000E+00 0. -1.
         -2    1    1    2    0  502 -0.88392170406E+02 -0.12882898918E+03  0.22748795531E+03  0.27597256033E+03  0.00000000000E+00 0.  1.
<scales pt_clust_5="13000.00000" pt_clust_6="13000.00000" pt_clust_7="13000.00000" pt_clust_8="13000.00000" pt_clust_9="147.89884"></scales>
<clustering>
<clus scale="   82.311">  5  6 -1 -1</clus>
<clus scale="   92.302">  7  8 -1 -1</clus>
<clus scale="  112.749">  2  7  1 -1</clus>
<clus scale="  147.899">  1  9  2 -1</clus>
<clus scale="  147.899">  1  5  2 -1</clus>
</clustering>
</event>
<event>
 9    2  0.9254368E-005  0.1341085E+03  0.7546771E-02  0.1227000E+00
          2   -1    0    0  502    0 -0.00000000000E+00  0.00000000000E+00  0.80747516871E+03  0.80747516871E+03  0.00000000000E+00 0. -1.
         21   -1    0    0  501  502  0.00000000000E+00 -0.00000000000E+00 -0.47438519672E+02  0.47438519672E+02  0.00000000000E+00 0. -1.
         24    2    1    2    0    0  0.53313244781E+02  0.58566317175E+02  0.56960620516E+03  0.58123882047E+03  0.84350589167E+02 0.  0.
         23    2    1    2    0    0 -0.88618501445E+02 -0.76796562111E+02  0.14835243810E+03  0.21580119904E+03  0.10397480880E+03 0.  0.
        -11    1    3    3    0    0  0.35315412950E+02  0.25011288237E+02  0.87353819051E+02  0.97485550899E+02  0.00000000000E+00 0.  1.
         12    1    3    3    0    0  0.17997831831E+02  0.33555028938E+02  0.48225238610E+03  0.48375326957E+03  0.00000000000E+00 0. -1.
        -11    1    4    4    0    0 -0.10688923226E+03 -0.55653102807E+02  0.14358309929E+03  0.18745314675E+03  0.00000000000E+00 0. -1.
         11    1    4    4    0    0  0.18270730813E+02 -0.21143459304E+02  0.47693388137E+01  0.28348052288E+02  0.00000000000E+00 0.  1.
          1    1    1    2  501    0  0.35305256664E+02  0.18230244936E+02  0.42078005776E+02  0.57873668872E+02  0.00000000000E+00 0. -1.
<scales pt_clust_5="13000.00000" pt_clust_6="13000.00000" pt_clust_7="13000.00000" pt_clust_8="13000.00000" pt_clust_9="39.73415"></scales>
<clustering>
<clus scale="   39.734">  2  9  1 -1</clus>
<clus scale="   84.351">  5  6 -1 -1</clus>
<clus scale="  103.975">  7  8 -1 -1</clus>
<clus scale="  119.538">  1  5  2 -1</clus>
<clus scale="   39.734">  2  5  1 -1</clus>
</clustering>
</event>
<event>
 9    2  0.9254368E-005  0.1697043E+03  0.7546771E-02  0.1179198E+00
         21   -1    0    0  501  502  0.00000000000E+00  0.00000000000E+00  0.19930409390E+03  0.19930409390E+03  0.00000000000E+00 0. -1.
          2   -1    0    0  502    0 -0.00000000000E+00 -0.00000000000E+00 -0.32566877586E+03  0.32566877586E+03  0.00000000000E+00 0. -1.
         24    2    1    2    0    0 -0.16713013324E+02 -0.15811312366E+03 -0.13567341147E+03  0.22499696295E+03  0.83290299984E+02 0.  0.
         23    2    1    2    0    0 -0.64447801845E+02  0.99963654120E+02  0.87305041988E+02  0.17327995783E+03  0.90870909108E+02 0.  0.
        -13    1    3    3    0    0 -0.30609747486E+02 -0.30680453977E+02 -0.79919622309E+01  0.44069471947E+02  0.00000000000E+00 0.  1.
         14    1    3    3    0    0  0.13896734162E+02 -0.12743266968E+03 -0.12768144924E+03  0.18092749100E+03  0.00000000000E+00 0. -1.
        -13    1    4    4    0    0  0.20148929408E+02  0.43205382952E+02  0.31266135965E+02  0.57011014116E+02  0.00000000000E+00 0.  1.
         13    1    4    4    0    0 -0.84596731253E+02  0.56758271167E+02  0.56038906023E+02  0.11626894372E+03  0.00000000000E+00 0. -1.
          1    1    1    2  501    0  0.81160815169E+02  0.58149469537E+02 -0.77996312480E+02  0.12669594898E+03  0.00000000000E+00 0. -1.
<scales pt_clust_5="13000.00000" pt_clust_6="13000.00000" pt_clust_7="13000.00000" pt_clust_8="13000.00000" pt_clust_9="99.84212"></scales>
<clustering>
<clus scale="   83.290">  5  6 -1 -1</clus>
<clus scale="   90.871">  7  8 -1 -1</clus>
<clus scale="   99.842">  1  9  2 -1</clus>
<clus scale="  165.769">  2  5  1 -1</clus>
<clus scale="   99.842">  1  5  2 -1</clus>
</clustering>
</event>
<event>
 9    2  0.9254368E-005  0.1037148E+03  0.7546771E-02  0.1278500E+00
          2   -1    0    0  502    0 -0.00000000000E+00  0.00000000000E+00  0.19693363733E+03  0.19693363733E+03  0.00000000000E+00 0. -1.
         21   -1    0    0  501  502  0.00000000000E+00 -0.00000000000E+00 -0.34016438157E+03  0.34016438157E+03  0.00000000000E+00 0. -1.
         24    2    1    2    0    0  0.28823359783E+02  0.31632098105E+02  0.10203197545E+03  0.13679143354E+03  0.80436288926E+02 0.  0.
         23    2    1    2    0    0 -0.98766480622E+02 -0.50773043145E+02 -0.28350490890E+03  0.31832560607E+03  0.92862470899E+02 0.  0.
        -13    1    3    3    0    0  0.11712159937E+02  0.58265874916E+02  0.65077004767E+02  0.88131171668E+02  0.00000000000E+00 0.  1.
         14    1    3    3    0    0  0.17111199846E+02 -0.26633776811E+02  0.36954970683E+02  0.48660261873E+02  0.00000000000E+00 0. -1.
        -11    1    4    4    0    0 -0.88427060596E+01  0.23536250561E+02 -0.29143544299E+02  0.38490189857E+02  0.00000000000E+00 0.  1.
         11    1    4    4    0    0 -0.89923774562E+02 -0.74309293705E+02 -0.25436136460E+03  0.27983541621E+03  0.00000000000E+00 0. -1.
          1    1    1    2  501    0  0.69943120839E+02  0.19140945040E+02  0.38242189214E+02  0.81980979291E+02  0.00000000000E+00 0. -1.
<scales pt_clust_5="13000.00000" pt_clust_6="13000.00000" pt_clust_7="13000.00000" pt_clust_8="13000.00000" pt_clust_9="72.51497"></scales>
<clustering>
<clus scale="   72.515">  2  9  1 -1</clus>
<clus scale="   80.436">  5  6 -1 -1</clus>
<clus scale="   92.754">  1  5  2 -1</clus>
<clus scale="   92.862">  7  8 -1 -1</clus>
<clus scale="   72.515">  2  5  1 -1</clus>
</clustering>
</event>
<event>
 9    2  0.9254368E-005  0.1413716E+03  0.7546771E-02  0.1213592E+00
         21   -1    0    0  501  502  0.00000000000E+00  0.00000000000E+00  0.11580833473E+03  0.11580833473E+03  0.00000000000E+00 0.  1.
         -3   -1    0    0    0  501 -0.00000000000E+00 -0.00000000000E+00 -0.13528440183E+04  0.13528440183E+04  0.00000000000E+00 0.  1.
         24    2    1    2    0    0 -0.10416158007E+03  0.16239880081E+02 -0.94615147871E+03  0.95536997575E+03  0.80098698061E+02 0.  0.
         23    2    1    2    0    0  0.19375864339E+03  0.43285245918E+02 -0.16600400975E+02  0.21865977214E+03  0.90113807132E+02 0.  0.
        -11    1    3    3    0    0 -0.28757878734E+02 -0.27094438375E+02 -0.17924784865E+03  0.18355085243E+03  0.00000000000E+00 0.  1.
         12    1    3    3    0    0 -0.75403701332E+02  0.43334318456E+02 -0.76690363005E+03  0.77181912332E+03  0.00000000000E+00 0. -1.
        -13    1    4    4    0    0  0.32555679638E+02  0.34376880094E+02 -0.30965553654E+02  0.56573029571E+02  0.00000000000E+00 0. -1.
         13    1    4    4    0    0  0.16120296375E+03  0.89083658236E+01  0.14365152679E+02  0.16208674257E+03  0.00000000000E+00 0.  1.
         -4    1    1    2    0  502 -0.89597063327E+02 -0.59525125999E+02 -0.27428380385E+03  0.29462260510E+03  0.00000000000E+00 0.  1.
<scales pt_clust_5="13000.00000" pt_clust_6="13000.00000" pt_clust_7="13000.00000" pt_clust_8="13000.00000" pt_clust_9="107.56805"></scales>
<clustering>
<clus scale="   80.099">  5  6 -1 -1</clus>
<clus scale="   90.114">  7  8 -1 -1</clus>
<clus scale="  107.568">  1  9  2 -1</clus>
<clus scale="  135.208">  2  5  1 -1</clus>
<clus scale="  107.568">  1  5  2 -1</clus>
</clustering>
</event>
<event>
 9    2  0.9254368E-005  0.1835540E+03  0.7546771E-02  0.1200615E+00
          4   -1    0    0  502    0 -0.00000000000E+00  0.00000000000E+00  0.22346900870E+03  0.22346900870E+03  0.00000000000E+00 0. -1.
         21   -1    0    0  501  502  0.00000000000E+00 -0.00000000000E+00 -0.28291716180E+03  0.28291716180E+03  0.00000000000E+00 0. -1.
         24    2    1    2    0    0  0.50479556466E+01  0.13637840773E+02  0.98702659265E+02  0.12807095302E+03  0.80302437728E+02 0.  0.
         23    2    1    2    0    0  0.14025352501E+03  0.62387085399E+02 -0.92978690301E+02  0.20185073047E+03  0.92387666048E+02 0.  0.
        -13    1    3    3    0    0 -0.36838774371E+01 -0.29996973002E+02  0.16097416020E+02  0.34242023082E+02  0.00000000000E+00 0.  1.
         14    1    3    3    0    0  0.87318330837E+01  0.43634813775E+02  0.82605243245E+02  0.93828929941E+02  0.00000000000E+00 0. -1.
        -11    1    4    4    0    0  0.14000996194E+03  0.27712424002E+02 -0.62996996640E+02  0.15601086331E+03  0.00000000000E+00 0. -1.
         11    1    4    4    0    0  0.24356307279E+00  0.34674661397E+02 -0.29981693661E+02  0.45839867155E+02  0.00000000000E+00 0.  1.
          3    1    1    2  501    0 -0.14530148066E+03 -0.76024926172E+02 -0.65172122069E+02  0.17646448701E+03  0.00000000000E+00 0. -1.
<scales pt_clust_5="13000.00000" pt_clust_6="13000.00000" pt_clust_7="13000.00000" pt_clust_8="13000.00000" pt_clust_9="158.60838"></scales>
<clustering>
<clus scale="   80.302">  5  6 -1 -1</clus>
<clus scale="   81.609">  1  5  2 -1</clus>
<clus scale="   92.388">  7  8 -1 -1</clus>
<clus scale="  158.608">  2  9  1 -1</clus>
<clus scale="  158.608">  2  5  1 -1</clus>
</clustering>
</event>
<event>
 9    2  0.9254368E-005  0.9776393E+02  0.7546771E-02  0.1290302E+00
          2   -1    0    0  502    0 -0.00000000000E+00  0.00000000000E+00  0.25787787402E+03  0.25787787402E+03  0.00000000000E+00 0. -1.
         21   -1    0    0  501  502  0.00000000000E+00 -0.00000000000E+00 -0.96507614479E+02  0.96507614479E+02  0.00000000000E+00 0.  1.
         24    2    1    2    0    0  0.39505014973E+02 -0.67269150248E+01  0.17399666023E+03  0.19539290758E+03  0.79357753036E+02 0.  0.
         23    2    1    2    0    0 -0.38688930411E+02 -0.37754118757E+02 -0.33612697121E+02  0.10980261245E+03  0.89468393713E+02 0.  0.
        -11    1    3    3    0    0  0.33048523208E+02 -0.37604719583E+02  0.65730151516E+02  0.82624286015E+02  0.00000000000E+00 0.  1.
         12    1    3    3    0    0  0.64564917649E+01  0.30877804558E+02  0.10826650872E+03  0.11276862157E+03  0.00000000000E+00 0. -1.
        -13    1    4    4    0    0 -0.59189822345E+02 -0.46251078446E+02 -0.74351927784E+01  0.75484299151E+02  0.00000000000E+00 0.  1.
         13    1    4    4    0    0  0.20500891934E+02  0.84969596891E+01 -0.26177504342E+02  0.34318313298E+02  0.00000000000E+00 0. -1.
          1    1    1    2  501    0 -0.81608456238E+00  0.44481033782E+02  0.20986296432E+02  0.49189968472E+02  0.00000000000E+00 0. -1.
<scales pt_clust_5="13000.00000" pt_clust_6="13000.00000" pt_clust_7="13000.00000" pt_clust_8="13000.00000" pt_clust_9="44.48852"></scales>
<clustering>
<clus scale="   44.489">  2  9  1 -1</clus>
<clus scale="   79.358">  5  6 -1 -1</clus>
<clus scale="   88.605">  1  5  2 -1</clus>
<clus scale="   89.468">  7  8 -1 -1</clus>
<clus scale="   44.489">  2  5  1 -1</clus>
</clustering>
</event>
<event>
 9    2  0.9254368E-005  0.1443183E+03  0.7546771E-02  0.1209834E+00
          2   -1    0    0  502    0 -0.00000000000E+00  0.00000000000E+00  0.79620933145E+02  0.79620933145E+02  0.00000000000E+00 0. -1.
         21   -1    0    0  501  502  0.00000000000E+00 -0.00000000000E+00 -0.41213792767E+03  0.41213792767E+03  0.00000000000E+00 0. -1.
         24    2    1    2    0    0  0.46788613627E+02  0.10081643806E+03 -0.12216101018E+03  0.18349538853E+03  0.79963220632E+02 0.  0.
         23    2    1    2    0    0  0.90750651101E+01 -0.12200164714E+03 -0.19323120638E+03  0.24611186968E+03  0.90917515202E+02 0.  0.
        -13    1    3    3    0    0 -0.21740063339E+02  0.38770187241E+02 -0.41379160457E+02  0.60728845640E+02  0.00000000000E+00 0.  1.
         14    1    3    3    0    0  0.68528676966E+02  0.62046250818E+02 -0.80781849724E+02  0.12276654289E+03  0.00000000000E+00 0. -1.
        -11    1    4    4    0    0 -0.43124407862E+01 -0.34495803801E+02 -0.13676032201E+03  0.14110968536E+03  0.00000000000E+00 0. -1.
         11    1    4    4    0    0  0.13387505896E+02 -0.87505843338E+02 -0.56470884368E+02  0.10500218433E+03  0.00000000000E+00 0.  1.
          1    1    1    2  501    0 -0.55863678737E+02  0.21185209080E+02 -0.17124777965E+02  0.62151602603E+02  0.00000000000E+00 0. -1.
<scales pt_clust_5="13000.00000" pt_clust_6="13000.00000" pt_clust_7="13000.00000" pt_clust_8="13000.00000" pt_clust_9="59.74586"></scales>
<clustering>
<clus scale="   59.746">  2  9  1 -1</clus>
<clus scale="   79.963">  5  6 -1 -1</clus>
<clus scale="   90.918">  7  8 -1 -1</clus>
<clus scale="  137.680">  1  5  2 -1</clus>
<clus scale="   59.746">  2  5  1 -1</clus>
</clustering>
</event>
<event>
 9    2  0.9254368E-005  0.2772964E+03  0.7546771E-02  0.1097175E+00
         21   -1    0    0  501  502  0.00000000000E+00  0.00000000000E+00  0.18350574986E+03  0.18350574986E+03  0.00000000000E+00 0.  1.
         -1   -1    0    0    0  501 -0.00000000000E+00 -0.00000000000E+00 -0.62440568841E+03  0.62440568841E+03  0.00000000000E+00 0.  1.
         24    2    1    2    0    0  0.12502500821E+03 -0.23359635831E+02 -0.34515411787E+03  0.37656862213E+03  0.80595513663E+02 0.  0.
         23    2    1    2    0    0  0.30084279093E+02 -0.76283278928E+02 -0.18860272099E+03  0.22492090498E+03  0.91072633869E+02 0.  0.
        -11    1    3    3    0    0  0.12447850358E+03  0.12555537388E+01 -0.30554692212E+03  0.32993241109E+03  0.00000000000E+00 0.  1.
         12    1    3    3    0    0  0.54650463166E+00 -0.24615189570E+02 -0.39607195752E+02  0.46636211041E+02  0.00000000000E+00 0. -1.
        -11    1    4    4    0    0 -0.22852459142E+02 -0.62717234727E+02 -0.11883195103E+03  0.13629643798E+03  0.00000000000E+00 0.  1.
         11    1    4    4    0    0  0.52936738235E+02 -0.13566044201E+02 -0.69770769962E+02  0.88624467002E+02  0.00000000000E+00 0. -1.
         -2    1    1    2    0  502 -0.15510928731E+03  0.99642914759E+02  0.92856900318E+02  0.20642191116E+03  0.00000000000E+00 0.  1.
<scales pt_clust_5="13000.00000" pt_clust_6="13000.00000" pt_clust_7="13000.00000" pt_clust_8="13000.00000" pt_clust_9="184.35727"></scales>
<clustering>
<clus scale="   80.596">  5  6 -1 -1</clus>
<clus scale="   91.073">  7  8 -1 -1</clus>
<clus scale="  122.318">  5  7 -1 -1</clus>
<clus scale="  184.357">  1  9  2 -1</clus>
<clus scale="  184.357">  1  5  2 -1</clus>
</clustering>
</event>
<event>
 9    2  0.9254368E-005  0.1306027E+03  0.7546771E-02  0.1228286E+00
          2   -1    0    0  502    0 -0.00000000000E+00  0.00000000000E+00  0.10587787803E+04  0.10587787803E+04  0.00000000000E+00 0. -1.
         21   -1    0    0  501  502  0.00000000000E+00 -0.00000000000E+00 -0.58017597878E+02  0.58017597878E+02  0.00000000000E+00 0. -1.
         24    2    1    2    0    0 -0.21102421337E+02 -0.98998195505E+02  0.88972149133E+03  0.89924692371E+03  0.82430229721E+02 0.  0.
         23    2    1    2    0    0  0.24586665227E+02  0.36217639017E+02  0.11883853702E+02  0.10013813339E+03  0.89275967079E+02 0.  0.
        -11    1    3    3    0    0  0.25418525569E+02 -0.20057128434E+02  0.12790080208E+03  0.13193560935E+03  0.00000000000E+00 0.  1.
         12    1    3    3    0    0 -0.46520946907E+02 -0.78941067072E+02  0.76182068925E+03  0.76731131436E+03  0.00000000000E+00 0. -1.
        -13    1    4    4    0    0 -0.19864290384E+02 -0.16018300534E+02 -0.11061822637E+02  0.27812585362E+02  0.00000000000E+00 0. -1.
         13    1    4    4    0    0  0.44450955611E+02  0.52235939551E+02  0.22945676338E+02  0.72325548032E+02  0.00000000000E+00 0.  1.
          1    1    1    2  501    0 -0.34842438896E+01  0.62780556489E+02  0.99155837432E+02  0.11741132111E+03  0.00000000000E+00 0. -1.
<scales pt_clust_5="13000.00000" pt_clust_6="13000.00000" pt_clust_7="13000.00000" pt_clust_8="13000.00000" pt_clust_9="62.87717"></scales>
<clustering>
<clus scale="   62.877">  2  9  1 -1</clus>
<clus scale="   82.430">  5  6 -1 -1</clus>
<clus scale="   89.276">  7  8 -1 -1</clus>
<clus scale="  126.022">  1  5  2 -1</clus>
<clus scale="   62.877">  2  5  1 -1</clus>
</clustering>
</event>
<event>
 9    2  0.9254368E-005  0.1480992E+03  0.7546771E-02  0.1205049E+00
          2   -1    0    0  502    0 -0.00000000000E+00  0.00000000000E+00  0.61661368986E+03  0.61661368986E+03  0.00000000000E+00 0. -1.
         21   -1    0    0  501  502  0.00000000000E+00 -0.00000000000E+00 -0.54884878607E+02  0.54884878607E+02  0.00000000000E+00 0. -1.
         24    2    1    2    0    0  0.10954362119E+03 -0.61662972129E+02  0.41766859133E+03  0.44336924540E+03  0.79543123574E+02 0.  0.
         23    2    1    2    0    0 -0.67023585513E+02  0.70561698305E+02  0.10709590330E+03  0.17108985020E+03  0.91274805155E+02 0.  0.
        -13    1    3    3    0    0  0.31748014135E+02  0.15512489208E+02  0.63919688040E+02  0.73036294006E+02  0.00000000000E+00 0.  1.
         14    1    3    3    0    0  0.77795607051E+02 -0.77175461337E+02  0.35374890329E+03  0.37033295140E+03  0.00000000000E+00 0. -1.
        -11    1    4    4    0    0 -0.59981245613E+01  0.24203938016E+02 -0.13384359812E+02  0.28301045940E+02  0.00000000000E+00 0. -1.
         11    1    4    4    0    0 -0.61025460951E+02  0.46357760289E+02  0.12048026311E+03  0.14278880426E+03  0.00000000000E+00 0.  1.
          1    1    1    2  501    0 -0.42520035674E+02 -0.88987261758E+01  0.36964316624E+02  0.57039472865E+02  0.00000000000E+00 0. -1.
<scales pt_clust_5="13000.00000" pt_clust_6="13000.00000" pt_clust_7="13000.00000" pt_clust_8="13000.00000" pt_clust_9="43.44123"></scales>
<clustering>
<clus scale="   43.441">  2  9  1 -1</clus>
<clus scale="   79.543">  5  6 -1 -1</clus>
<clus scale="   91.275">  7  8 -1 -1</clus>
<clus scale="  141.171">  1  5  2 -1</clus>
<clus scale="   43.441">  2  5  1 -1</clus>
</clustering>
</event>
<event>
 9    2  0.9254368E-005  0.1682067E+03  0.7546771E-02  0.1200744E+00
         -1   -1    0    0    0  501 -0.00000000000E+00  0.00000000000E+00  0.32168959252E+03  0.32168959252E+03  0.00000000000E+00 0.  1.
         21   -1    0    0  501  502  0.00000000000E+00 -0.00000000000E+00 -0.43730943438E+03  0.43730943438E+03  0.00000000000E+00 0.  1.
         24    2    1    2    0    0  0.28690137123E+00  0.68321552150E+02 -0.17883311613E+03  0.20776087519E+03  0.80717910227E+02 0.  0.
         23    2    1    2    0    0  0.10680195882E+03  0.30727570057E+02  0.26573359878E+03  0.30165202545E+03  0.89603331243E+02 0.  0.
        -11    1    3    3    0    0  0.15583987561E+01  0.63103995041E+02 -0.54742410799E+02  0.83554020471E+02  0.00000000000E+00 0.  1.
         12    1    3    3    0    0 -0.12714973848E+01  0.52175571091E+01 -0.12409070534E+03  0.12420685472E+03  0.00000000000E+00 0. -1.
        -11    1    4    4    0    0  0.44696600054E+02  0.57135228439E+02  0.16681488463E+03  0.18190499201E+03  0.00000000000E+00 0. -1.
         11    1    4    4    0    0  0.62105358762E+02 -0.26407658382E+02  0.98918714153E+02  0.11974703344E+03  0.00000000000E+00 0.  1.
         -2    1    1    2    0  502 -0.10708886019E+03 -0.99049122207E+02 -0.20252032451E+03  0.24958612627E+03  0.00000000000E+00 0.  1.
<scales pt_clust_5="13000.00000" pt_clust_6="13000.00000" pt_clust_7="13000.00000" pt_clust_8="13000.00000" pt_clust_9="142.35423"></scales>
<clustering>
<clus scale="   80.718">  5  6 -1 -1</clus>
<clus scale="   89.603">  7  8 -1 -1</clus>
<clus scale="  105.751">  1  5  2 -1</clus>
<clus scale="  142.354">  2  9  1 -1</clus>
<clus scale="  142.354">  2  5  1 -1</clus>
</clustering>
</event>
<event>
 9    2  0.9254368E-005  0.1286958E+03  0.7546771E-02  0.1232136E+00
          2   -1    0    0  502    0 -0.00000000000E+00  0.00000000000E+00  0.15388235369E+03  0.15388235369E+03  0.00000000000E+00 0. -1.
         21   -1    0    0  501  502  0.00000000000E+00 -0.00000000000E+00 -0.13460458677E+03  0.13460458677E+03  0.00000000000E+00 0. -1.
         23    2    1    2    0    0  0.79794362200E+02 -0.25277568567E+02  0.12781082670E+02  0.12330340625E+03  0.89634135284E+02 0.  0.
         24    2    1    2    0    0 -0.90575159869E+02  0.52487859073E+02 -0.99119635318E+01  0.13162955933E+03  0.79178652008E+02 0.  0.
        -11    1    4    4    0    0 -0.67036283838E+01  0.21819171686E+02 -0.32311171739E+02  0.39560418422E+02  0.00000000000E+00 0.  1.
         12    1    4    4    0    0 -0.83871531485E+02  0.30668687387E+02  0.22399208208E+02  0.92069140911E+02  0.00000000000E+00 0. -1.
        -13    1    3    3    0    0  0.47764892453E+02 -0.21465647169E+02 -0.36905859254E+02  0.64064821913E+02  0.00000000000E+00 0. -1.
         13    1    3    3    0    0  0.32029469747E+02 -0.38119213985E+01  0.49686941924E+02  0.59238584341E+02  0.00000000000E+00 0.  1.
          1    1    1    2  501    0  0.10780797669E+02 -0.27210290506E+02  0.16408647787E+02  0.33553974876E+02  0.00000000000E+00 0. -1.
<scales pt_clust_5="13000.00000" pt_clust_6="13000.00000" pt_clust_7="13000.00000" pt_clust_8="13000.00000" pt_clust_9="29.26818"></scales>
<clustering>
<clus scale="   29.268">  2  9  1 -1</clus>
<clus scale="   79.179">  5  6 -1 -1</clus>
<clus scale="   89.634">  7  8 -1 -1</clus>
<clus scale="  121.645">  2  5  1 -1</clus>
<clus scale="   29.268">  2  5  1 -1</clus>
</clustering>
</event>
<event>
 9    2  0.9254368E-005  0.1988255E+03  0.7546771E-02  0.1151656E+00
         21   -1    0    0  501  502  0.00000000000E+00  0.00000000000E+00  0.67701513836E+03  0.67701513836E+03  0.00000000000E+00 0. -1.
         -3   -1    0    0    0  501 -0.00000000000E+00 -0.00000000000E+00 -0.94237052821E+02  0.94237052821E+02  0.00000000000E+00 0.  1.
         23    2    1    2    0    0 -0.11677281675E+03  0.14836992939E+03  0.11474952133E+03  0.23852567177E+03  0.89875006367E+02 0.  0.
         24    2    1    2    0    0  0.70158191832E+02 -0.14620004908E+03  0.24283206991E+03  0.30274588396E+03  0.79943916860E+02 0.  0.
        -11    1    4    4    0    0  0.51881889429E+02 -0.70560175673E+02  0.66372007844E+02  0.10988954576E+03  0.00000000000E+00 0.  1.
         12    1    4    4    0    0  0.18276302402E+02 -0.75639873411E+02  0.17646006206E+03  0.19285633820E+03  0.00000000000E+00 0. -1.
        -13    1    3    3    0    0  0.62297407735E+01  0.25566178233E+02  0.43158269671E+02  0.50547753466E+02  0.00000000000E+00 0. -1.
         13    1    3    3    0    0 -0.12300255753E+03  0.12280375115E+03  0.71591251655E+02  0.18797791830E+03  0.00000000000E+00 0.  1.
         -4    1    1    2    0  502  0.46614624922E+02 -0.21698803024E+01  0.22519649431E+03  0.22998063546E+03  0.00000000000E+00 0.  1.
<scales pt_clust_5="13000.00000" pt_clust_6="13000.00000" pt_clust_7="13000.00000" pt_clust_8="13000.00000" pt_clust_9="46.66510"></scales>
<clustering>
<clus scale="   46.665">  1  9  2 -1</clus>
<clus scale="   79.944">  5  6 -1 -1</clus>
<clus scale="   89.875">  7  8 -1 -1</clus>
<clus scale="  194.538">  1  5  2 -1</clus>
<clus scale="   46.665">  1  5  2 -1</clus>
</clustering>
</event>
<event>
 9    2  0.9254368E-005  0.1662651E+03  0.7546771E-02  0.1183395E+00
         21   -1    0    0  501  502  0.00000000000E+00  0.00000000000E+00  0.91423135656E+02  0.91423135656E+02  0.00000000000E+00 0.  1.
          2   -1    0    0  502    0 -0.00000000000E+00 -0.00000000000E+00 -0.58959450834E+03  0.58959450834E+03  0.00000000000E+00 0. -1.
         23    2    1    2    0    0  0.11860263068E+03  0.33065943692E+02 -0.13278205781E+03  0.20278691083E+03  0.91277136730E+02 0.  0.
         24    2    1    2    0    0 -0.16669339145E+03  0.43352704115E+02 -0.14170044253E+03  0.23700626797E+03  0.80167399458E+02 0.  0.
        -11    1    4    4    0    0 -0.94215680135E+02  0.52813962090E+02 -0.11845939883E+03  0.16030763596E+03  0.00000000000E+00 0.  1.
         12    1    4    4    0    0 -0.72477711312E+02 -0.94612579754E+01 -0.23241043695E+02  0.76698632006E+02  0.00000000000E+00 0. -1.
        -13    1    3    3    0    0  0.85567722081E+02  0.45218242139E+02 -0.42152858790E+02  0.10556224698E+03  0.00000000000E+00 0.  1.
         13    1    3    3    0    0  0.33034908595E+02 -0.12152298447E+02 -0.90629199024E+02  0.97224663841E+02  0.00000000000E+00 0. -1.
          1    1    1    2  501    0  0.48090760772E+02 -0.76418647807E+02 -0.22368887234E+03  0.24122446521E+03  0.00000000000E+00 0. -1.
<scales pt_clust_5="13000.00000" pt_clust_6="13000.00000" pt_clust_7="13000.00000" pt_clust_8="13000.00000" pt_clust_9="90.29141"></scales>
<clustering>
<clus scale="   80.167">  5  6 -1 -1</clus>
<clus scale="   90.291">  1  9  2 -1</clus>
<clus scale="   91.277">  7  8 -1 -1</clus>
<clus scale="  160.435">  1  5  2 -1</clus>
<clus scale="   90.291">  1  5  2 -1</clus>
</clustering>
</event>
<event>
 9    2  0.9254368E-005  0.1270257E+03  0.7546771E-02  0.1234294E+00
          2   -1    0    0  502    0 -0.00000000000E+00  0.00000000000E+00  0.11157124981E+04  0.11157124981E+04  0.00000000000E+00 0. -1.
         21   -1    0    0  501  502  0.00000000000E+00 -0.00000000000E+00 -0.21985658520E+02  0.21985658520E+02  0.00000000000E+00 0.  1.
         24    2    1    2    0    0  0.90317130055E+02  0.16046072237E+02  0.50464392027E+03  0.51916991618E+03  0.80357048123E+02 0.  0.
         23    2    1    2    0    0 -0.90778727974E+02  0.31084449061E+02  0.32722538079E+03  0.35246270418E+03  0.89143073622E+02 0.  0.
        -11    1    3    3    0    0  0.13733225364E+02  0.39313434729E+02  0.15675586740E+03  0.16219293940E+03  0.00000000000E+00 0.  1.
         12    1    3    3    0    0  0.76583904691E+02 -0.23267362492E+02  0.34788805287E+03  0.35697697677E+03  0.00000000000E+00 0. -1.
        -11    1    4    4    0    0 -0.41431936564E+01 -0.26579215436E+02  0.67247641472E+02  0.72428351013E+02  0.00000000000E+00 0. -1.
         11    1    4    4    0    0 -0.86635534318E+02  0.57663664498E+02  0.25997773932E+03  0.28003435317E+03  0.00000000000E+00 0.  1.
          1    1    1    2  501    0  0.46159791905E+00 -0.47130521298E+02  0.26185753855E+03  0.26606553630E+03  0.00000000000E+00 0. -1.
<scales pt_clust_5="13000.00000" pt_clust_6="13000.00000" pt_clust_7="13000.00000" pt_clust_8="13000.00000" pt_clust_9="47.13281"></scales>
<clustering>
<clus scale="   47.133">  2  9  1 -1</clus>
<clus scale="   80.357">  5  6 -1 -1</clus>
<clus scale="   89.143">  7  8 -1 -1</clus>
<clus scale="  121.022">  1  5  2 -1</clus>
<clus scale="   47.133">  2  5  1 -1</clus>
</clustering>
</event>
<event>
 9    2  0.9254368E-005  0.6122075E+03  0.7546771E-02  0.9880398E-01
         21   -1    0    0  501  502  0.00000000000E+00  0.00000000000E+00  0.39823981615E+03  0.39823981615E+03  0.00000000000E+00 0.  1.
         -1   -1    0    0    0  501 -0.00000000000E+00 -0.00000000000E+00 -0.97555661121E+03  0.97555661121E+03  0.00000000000E+00 0.  1.
         24    2    1    2    0    0  0.19874799060E+03 -0.42433971072E+02 -0.36988639736E+03  0.42965528851E+03  0.80537657822E+02 0.  0.
         23    2    1    2    0    0  0.33413906809E+03 -0.63502998907E+02 -0.19090216846E+03  0.40057472958E+03  0.91295828844E+02 0.  0.
        -11    1    3    3    0    0  0.15979042187E+03 -0.28196294197E+02 -0.21527085370E+03  0.26957290365E+03  0.00000000000E+00 0.  1.
         12    1    3    3    0    0  0.38957568734E+02 -0.14237676875E+02 -0.15461554365E+03  0.16008238486E+03  0.00000000000E+00 0. -1.
        -11    1    4    4    0    0  0.17699276186E+03 -0.79720269622E+02 -0.10153786860E+03  0.21907007532E+03  0.00000000000E+00 0. -1.
         11    1    4    4    0    0  0.15714630623E+03  0.16217270715E+02 -0.89364299856E+02  0.18150465426E+03  0.00000000000E+00 0.  1.
         -2    1    1    2    0  502 -0.53288705869E+03  0.10593696998E+03 -0.16528229245E+02  0.54356640927E+03  0.00000000000E+00 0.  1.
<scales pt_clust_5="13000.00000" pt_clust_6="13000.00000" pt_clust_7="13000.00000" pt_clust_8="13000.00000" pt_clust_9="543.31506"></scales>
<clustering>
<clus scale="   80.538">  5  6 -1 -1</clus>
<clus scale="   91.296">  7  8 -1 -1</clus>
<clus scale="  195.587">  5  7 -1 -1</clus>
<clus scale="  543.315">  1  9  2 -1</clus>
<clus scale="  543.315">  1  5  2 -1</clus>
</clustering>
</event>
<event>
 9    2  0.9254368E-005  0.2735614E+03  0.7546771E-02  0.1124477E+00
         21   -1    0    0  501  502  0.00000000000E+00  0.00000000000E+00  0.77012923575E+02  0.77012923575E+02  0.00000000000E+00 0. -1.
          2   -1    0    0  502    0 -0.00000000000E+00 -0.00000000000E+00 -0.16536543863E+04  0.16536543863E+04  0.00000000000E+00 0. -1.
         23    2    1    2    0    0  0.10823919310E+03  0.31230225972E+02 -0.23862722342E+03  0.27881837345E+03  0.90031570452E+02 0.  0.
         24    2    1    2    0    0 -0.12194896839E+03 -0.26118557079E+03 -0.49906020437E+03  0.58184244721E+03  0.79938054222E+02 0.  0.
        -11    1    4    4    0    0  0.11616441618E+02 -0.21027102158E+02 -0.33361809860E+02  0.41110717558E+02  0.00000000000E+00 0.  1.
         12    1    4    4    0    0 -0.13356541001E+03 -0.24015846863E+03 -0.46569839451E+03  0.54073172966E+03  0.00000000000E+00 0. -1.
        -11    1    3    3    0    0  0.79828109677E+02 -0.19004675797E+02 -0.10500662729E+03  0.13326701231E+03  0.00000000000E+00 0. -1.
         11    1    3    3    0    0  0.28411083419E+02  0.50234901769E+02 -0.13362059614E+03  0.14555136114E+03  0.00000000000E+00 0.  1.
          1    1    1    2  501    0  0.13709775293E+02  0.22995534481E+03 -0.83895403493E+03  0.87000648921E+03  0.00000000000E+00 0. -1.
<scales pt_clust_5="13000.00000" pt_clust_6="13000.00000" pt_clust_7="13000.00000" pt_clust_8="13000.00000" pt_clust_9="261.62155"></scales>
<clustering>
<clus scale="   79.938">  5  6 -1 -1</clus>
<clus scale="   90.032">  7  8 -1 -1</clus>
<clus scale="  144.211">  2  7  1 -1</clus>
<clus scale="  261.622">  1  9  2 -1</clus>
<clus scale="  261.622">  1  5  2 -1</clus>
</clustering>
</event>
<event>
 9    2  0.9254368E-005  0.3622024E+03  0.7546771E-02  0.1057991E+00
          2   -1    0    0  502    0 -0.00000000000E+00  0.00000000000E+00  0.66970434715E+03  0.66970434715E+03  0.00000000000E+00 0. -1.
         21   -1    0    0  501  502  0.00000000000E+00 -0.00000000000E+00 -0.44977836154E+03  0.44977836154E+03  0.00000000000E+00 0. -1.
         24    2    1    2    0    0  0.25069571550E+03  0.17353349341E+03  0.16900011317E+03  0.35748293604E+03  0.79188359028E+02 0.  0.
         23    2    1    2    0    0 -0.21239106814E+03 -0.40590273727E+03  0.17132782579E+03  0.49750148934E+03  0.91035762489E+02 0.  0.
        -13    1    3    3    0    0  0.81705396397E+02  0.64915320004E+02  0.10145736854E+03  0.14554507275E+03  0.00000000000E+00 0.  1.
         14    1    3    3    0    0  0.16899031910E+03  0.10861817340E+03  0.67542744635E+02  0.21193786329E+03  0.00000000000E+00 0. -1.
        -13    1    4    4    0    0 -0.38785920239E+02 -0.13582075041E+03  0.20346718459E+02  0.14270813853E+03  0.00000000000E+00 0.  1.
         13    1    4    4    0    0 -0.17360514790E+03 -0.27008198686E+03  0.15098110733E+03  0.35479335081E+03  0.00000000000E+00 0. -1.
          1    1    1    2  501    0 -0.38304647358E+02  0.23236924387E+03 -0.12040195336E+03  0.26449828331E+03  0.00000000000E+00 0. -1.
<scales pt_clust_5="13000.00000" pt_clust_6="13000.00000" pt_clust_7="13000.00000" pt_clust_8="13000.00000" pt_clust_9="235.50523"></scales>
<clustering>
<clus scale="   79.188">  5  6 -1 -1</clus>
<clus scale="   91.036">  7  8 -1 -1</clus>
<clus scale="  235.505">  2  9  1 -1</clus>
<clus scale="  359.408">  1  5  2 -1</clus>
<clus scale="  235.505">  2  5  1 -1</clus>
</clustering>
</event>
<event>
 9    2  0.9254368E-005  0.1000655E+03  0.7546771E-02  0.1283434E+00
          2   -1    0    0  502    0 -0.00000000000E+00  0.00000000000E+00  0.28463826273E+03  0.28463826273E+03  0.00000000000E+00 0. -1.
         21   -1    0    0  501  502  0.00000000000E+00 -0.00000000000E+00 -0.18800228488E+03  0.18800228488E+03  0.00000000000E+00 0.  1.
         23    2    1    2    0    0 -0.33586259177E+02 -0.46438305083E+02  0.10230091897E+03  0.14648669143E+03  0.87797037313E+02 0.  0.
         24    2    1    2    0    0 -0.32313985716E+02  0.89034532483E+00 -0.14284592504E+03  0.16729517286E+03  0.80856231514E+02 0.  0.
        -11    1    4    4    0    0  0.25354500907E+02 -0.75194770740E+01 -0.64001537558E+02  0.69250199000E+02  0.00000000000E+00 0.  1.
         12    1    4    4    0    0 -0.57668486623E+02  0.84098223988E+01 -0.78844387481E+02  0.98044973861E+02  0.00000000000E+00 0. -1.
        -13    1    3    3    0    0 -0.62315949433E+01 -0.68759256818E+02  0.60765435156E+02  0.91973399869E+02  0.00000000000E+00 0.  1.
         13    1    3    3    0    0 -0.27354664234E+02  0.22320951735E+02  0.41535483811E+02  0.54513291564E+02  0.00000000000E+00 0. -1.
          1    1    1    2  501    0  0.65900244893E+02  0.45547959758E+02  0.13718098392E+03  0.15885868331E+03  0.00000000000E+00 0. -1.
<scales pt_clust_5="13000.00000" pt_clust_6="13000.00000" pt_clust_7="13000.00000" pt_clust_8="13000.00000" pt_clust_9="80.10908"></scales>
<clustering>
<clus scale="   80.109">  2  9  1 -1</clus>
<clus scale="   80.856">  5  6 -1 -1</clus>
<clus scale="   87.797">  7  8 -1 -1</clus>
<clus scale="   94.035">  2  5  1 -1</clus>
<clus scale="   80.109">  2  5  1 -1</clus>
</clustering>
</event>
<event>
 9    2  0.9254368E-005  0.1215063E+03  0.7546771E-02  0.1244545E+00
          2   -1    0    0  502    0 -0.00000000000E+00  0.00000000000E+00  0.46170540016E+03  0.46170540016E+03  0.00000000000E+00 0. -1.
         21   -1    0    0  501  502  0.00000000000E+00 -0.00000000000E+00 -0.57713361675E+02  0.57713361675E+02  0.00000000000E+00 0.  1.
         23    2    1    2    0    0  0.10872062121E+02 -0.54768799365E+02  0.12178771488E+03  0.16307174987E+03  0.92964105935E+02 0.  0.
         24    2    1    2    0    0 -0.66476055803E+02  0.93339465624E+02  0.13587884014E+03  0.19513086042E+03  0.80508829638E+02 0.  0.
        -11    1    4    4    0    0 -0.81024786979E+02  0.70012119302E+02  0.12726152697E+03  0.16631959957E+03  0.00000000000E+00 0.  1.
         12    1    4    4    0    0  0.14548731176E+02  0.23327346322E+02  0.86173131742E+01  0.28811260847E+02  0.00000000000E+00 0. -1.
        -13    1    3    3    0    0 -0.29220655207E+02 -0.98144009910E+01  0.89645280527E+02  0.94796864285E+02  0.00000000000E+00 0. -1.
         13    1    3    3    0    0  0.40092717327E+02 -0.44954398374E+02  0.32142434352E+02  0.68274885587E+02  0.00000000000E+00 0.  1.
          1    1    1    2  501    0  0.55603993683E+02 -0.38570666259E+02  0.14632548346E+03  0.16121615155E+03  0.00000000000E+00 0. -1.
<scales pt_clust_5="13000.00000" pt_clust_6="13000.00000" pt_clust_7="13000.00000" pt_clust_8="13000.00000" pt_clust_9="67.67204"></scales>
<clustering>
<clus scale="   67.672">  2  9  1 -1</clus>
<clus scale="   80.509">  5  6 -1 -1</clus>
<clus scale="   92.964">  7  8 -1 -1</clus>
<clus scale="  112.264">  2  5  1 -1</clus>
<clus scale="   67.672">  2  5  1 -1</clus>
</clustering>
</event>
<event>
 9    2  0.9254368E-005  0.1374955E+03  0.7546771E-02  0.1222754E+00
         21   -1    0    0  501  502  0.00000000000E+00  0.00000000000E+00  0.14238724097E+03  0.14238724097E+03  0.00000000000E+00 0.  1.
         -3   -1    0    0    0  501 -0.00000000000E+00 -0.00000000000E+00 -0.34578012637E+03  0.34578012637E+03  0.00000000000E+00 0.  1.
         24    2    1    2    0    0 -0.57659211146E+02  0.70328473874E+02 -0.72651307777E+01  0.12139368764E+03  0.80080999037E+02 0.  0.
         23    2    1    2    0    0  0.63426228955E+02  0.72258763425E+02 -0.11278425665E+02  0.13324926310E+03  0.91563900202E+02 0.  0.
        -11    1    3    3    0    0 -0.94585099110E+01  0.18831628075E+02 -0.38781702331E+02  0.44137445116E+02  0.00000000000E+00 0.  1.
         12    1    3    3    0    0 -0.48200701235E+02  0.51496845799E+02  0.31516571553E+02  0.77256242526E+02  0.00000000000E+00 0. -1.
        -13    1    4    4    0    0  0.18490703770E+02  0.58736666801E+02  0.32014292041E+02  0.69403292773E+02  0.00000000000E+00 0.  1.
         13    1    4    4    0    0  0.44935525185E+02  0.13522096623E+02 -0.43292717706E+02  0.63845970328E+02  0.00000000000E+00 0. -1.
         -4    1    1    2    0  502 -0.57670178091E+01 -0.14258723730E+03 -0.18484932895E+03  0.23352441660E+03  0.00000000000E+00 0.  1.
<scales pt_clust_5="13000.00000" pt_clust_6="13000.00000" pt_clust_7="13000.00000" pt_clust_8="13000.00000" pt_clust_9="102.57228"></scales>
<clustering>
<clus scale="   80.081">  5  6 -1 -1</clus>
<clus scale="   91.564">  7  8 -1 -1</clus>
<clus scale="  121.176">  2  5  1 -1</clus>
<clus scale="  102.572">  1  9  2 -1</clus>
<clus scale="  102.572">  1  5  2 -1</clus>
</clustering>
</event>
<event>
 9    2  0.9254368E-005  0.1208923E+03  0.7546771E-02  0.1245080E+00
          2   -1    0    0  502    0 -0.00000000000E+00  0.00000000000E+00  0.32192851047E+03  0.32192851047E+03  0.00000000000E+00 0. -1.
         21   -1    0    0  501  502  0.00000000000E+00 -0.00000000000E+00 -0.10567433948E+03  0.10567433948E+03  0.00000000000E+00 0. -1.
         23    2    1    2    0    0 -0.63626086743E+02 -0.66057771677E+02  0.18771795772E+03  0.22786071121E+03  0.90942640980E+02 0.  0.
         24    2    1    2    0    0  0.12337332624E+02  0.69784553042E+02  0.74987215082E+02  0.13044480281E+03  0.79816480342E+02 0.  0.
        -13    1    4    4    0    0  0.18931796829E+02  0.26396988086E+02 -0.10676742958E+02  0.34193665370E+02  0.00000000000E+00 0.  1.
         14    1    4    4    0    0 -0.65944642054E+01  0.43387564955E+02  0.85663958041E+02  0.96251137438E+02  0.00000000000E+00 0. -1.
        -13    1    3    3    0    0 -0.40575410878E+02 -0.86383961244E+02  0.16088285141E+03  0.18706107186E+03  0.00000000000E+00 0. -1.
         13    1    3    3    0    0 -0.23050675865E+02  0.20326189567E+02  0.26835106310E+02  0.40799639347E+02  0.00000000000E+00 0.  1.
          1    1    1    2  501    0  0.51288754119E+02 -0.37267813643E+01 -0.46451001813E+02  0.69297335936E+02  0.00000000000E+00 0. -1.
<scales pt_clust_5="13000.00000" pt_clust_6="13000.00000" pt_clust_7="13000.00000" pt_clust_8="13000.00000" pt_clust_9="51.42397"></scales>
<clustering>
<clus scale="   51.424">  2  9  1 -1</clus>
<clus scale="   79.816">  5  6 -1 -1</clus>
<clus scale="   90.943">  7  8 -1 -1</clus>
<clus scale="  112.761">  2  5  1 -1</clus>
<clus scale="   51.424">  2  5  1 -1</clus>
</clustering>
</event>
<event>
 9    2  0.9254368E-005  0.1785825E+03  0.7546771E-02  0.1172196E+00
          2   -1    0    0  502    0 -0.00000000000E+00  0.00000000000E+00  0.11963721081E+04  0.11963721081E+04  0.00000000000E+00 0. -1.
         21   -1    0    0  501  502  0.00000000000E+00 -0.00000000000E+00 -0.29659141374E+02  0.29659141374E+02  0.00000000000E+00 0.  1.
         24    2    1    2    0    0  0.16137092512E+03 -0.43152803458E+01  0.67056760423E+03  0.69301485771E+03  0.67449863209E+02 0.  0.
         23    2    1    2    0    0 -0.14040491372E+03  0.95507732949E+01  0.46838283094E+03  0.49783483156E+03  0.93017665673E+02 0.  0.
        -13    1    3    3    0    0  0.85696855865E+02 -0.26270062484E+02  0.44885567953E+03  0.45771769502E+03  0.00000000000E+00 0.  1.
         14    1    3    3    0    0  0.75674069252E+02  0.21954782138E+02  0.22171192470E+03  0.23529716269E+03  0.00000000000E+00 0. -1.
        -13    1    4    4    0    0 -0.93536652452E+01  0.32758852743E+02  0.12508345179E+03  0.12963989895E+03  0.00000000000E+00 0. -1.
         13    1    4    4    0    0 -0.13105124848E+03 -0.23208079448E+02  0.34329937914E+03  0.36819493261E+03  0.00000000000E+00 0.  1.
          1    1    1    2  501    0 -0.20966011394E+02 -0.52354929491E+01  0.27762531574E+02  0.35181560221E+02  0.00000000000E+00 0. -1.
<scales pt_clust_5="13000.00000" pt_clust_6="13000.00000" pt_clust_7="13000.00000" pt_clust_8="13000.00000" pt_clust_9="21.60981"></scales>
<clustering>
<clus scale="   21.610">  2  9  1 -1</clus>
<clus scale="   67.450">  5  6 -1 -1</clus>
<clus scale="   93.018">  7  8 -1 -1</clus>
<clus scale="  166.700">  1  5  2 -1</clus>
<clus scale="   21.610">  2  5  1 -1</clus>
</clustering>
</event>
<event>
 9    2  0.9254368E-005  0.1475026E+03  0.7546771E-02  0.1205611E+00
          2   -1    0    0  502    0 -0.00000000000E+00  0.00000000000E+00  0.23637709539E+03  0.23637709539E+03  0.00000000000E+00 0. -1.
         21   -1    0    0  501  502  0.00000000000E+00 -0.00000000000E+00 -0.16000655830E+03  0.16000655830E+03  0.00000000000E+00 0.  1.
         24    2    1    2    0    0  0.15924978567E+02 -0.11390329747E+03  0.13357062895E+03  0.19418978658E+03  0.81492295208E+02 0.  0.
         23    2    1    2    0    0 -0.44864089431E+02  0.10985852090E+03 -0.15067881317E+02  0.15092052588E+03  0.92023273960E+02 0.  0.
        -11    1    3    3    0    0 -0.22809549843E+02 -0.33153098973E+01  0.15066908590E+02  0.27536858540E+02  0.00000000000E+00 0.  1.
         12    1    3    3    0    0  0.38734528410E+02 -0.11058798757E+03  0.11850372036E+03  0.16665292804E+03  0.00000000000E+00 0. -1.
        -11    1    4    4    0    0  0.19589438745E+02  0.17213612620E+02  0.19860404147E+02  0.32779417668E+02  0.00000000000E+00 0. -1.
         11    1    4    4    0    0 -0.64453528176E+02  0.92644908278E+02 -0.34928285464E+02  0.11814110821E+03  0.00000000000E+00 0.  1.
          1    1    1    2  501    0  0.28939110864E+02  0.40447765693E+01 -0.42132210546E+02  0.51273341227E+02  0.00000000000E+00 0. -1.
<scales pt_clust_5="13000.00000" pt_clust_6="13000.00000" pt_clust_7="13000.00000" pt_clust_8="13000.00000" pt_clust_9="29.22041"></scales>
<clustering>
<clus scale="   29.220">  2  9  1 -1</clus>
<clus scale="   81.492">  5  6 -1 -1</clus>
<clus scale="   92.023">  7  8 -1 -1</clus>
<clus scale="  141.173">  1  5  2 -1</clus>
<clus scale="   29.220">  2  5  1 -1</clus>
</clustering>
</event>
<event>
 9    2  0.9254368E-005  0.1236768E+03  0.7546771E-02  0.1238961E+00
         21   -1    0    0  501  502  0.00000000000E+00  0.00000000000E+00  0.53227809413E+03  0.53227809413E+03  0.00000000000E+00 0.  1.
         -3   -1    0    0    0  501 -0.00000000000E+00 -0.00000000000E+00 -0.74204930985E+02  0.74204930985E+02  0.00000000000E+00 0.  1.
         24    2    1    2    0    0 -0.68338769406E+02 -0.50679975507E+02  0.20590809542E+02  0.11767669615E+03  0.78645890281E+02 0.  0.
         23    2    1    2    0    0  0.12369584176E+03  0.15364798145E+02  0.32882935017E+03  0.36185341499E+03  0.85278450460E+02 0.  0.
        -11    1    3    3    0    0 -0.65311710469E+02 -0.15889150558E+02  0.39500025281E+02  0.77963687875E+02  0.00000000000E+00 0.  1.
         12    1    3    3    0    0 -0.30270589371E+01 -0.34790824949E+02 -0.18909215740E+02  0.39713008276E+02  0.00000000000E+00 0. -1.
        -11    1    4    4    0    0  0.62914288864E+02  0.21996315308E+02  0.26584785863E+03  0.27407504368E+03  0.00000000000E+00 0. -1.
         11    1    4    4    0    0  0.60781552899E+02 -0.66315171634E+01  0.62981491544E+02  0.87778371310E+02  0.00000000000E+00 0.  1.
         -4    1    1    2    0  502 -0.55357072358E+02  0.35315177362E+02  0.10865300343E+03  0.12695291397E+03  0.00000000000E+00 0.  1.
<scales pt_clust_5="13000.00000" pt_clust_6="13000.00000" pt_clust_7="13000.00000" pt_clust_8="13000.00000" pt_clust_9="65.66253"></scales>
<clustering>
<clus scale="   65.663">  1  9  2 -1</clus>
<clus scale="   78.646">  5  6 -1 -1</clus>
<clus scale="   85.278">  7  8 -1 -1</clus>
<clus scale="  119.200">  2  5  1 -1</clus>
<clus scale="   65.663">  1  5  2 -1</clus>
</clustering>
</event>
<event>
 9    2  0.9254368E-005  0.1081492E+03  0.7546771E-02  0.1273356E+00
         21   -1    0    0  501  502  0.00000000000E+00  0.00000000000E+00  0.53564779391E+02  0.53564779391E+02  0.00000000000E+00 0. -1.
          2   -1    0    0  502    0 -0.00000000000E+00 -0.00000000000E+00 -0.50749879052E+03  0.50749879052E+03  0.00000000000E+00 0. -1.
         24    2    1    2    0    0 -0.44998960932E+02 -0.13394200160E+02 -0.22063730787E+03  0.23795129040E+03  0.75734298009E+02 0.  0.
         23    2    1    2    0    0  0.66339001642E+02 -0.23180539397E+02 -0.40833195728E+02  0.12604551255E+03  0.96342725801E+02 0.  0.
        -11    1    3    3    0    0 -0.20904198650E+02 -0.44568186852E+02 -0.13466842422E+03  0.14338372740E+03  0.00000000000E+00 0.  1.
         12    1    3    3    0    0 -0.24094762283E+02  0.31173986692E+02 -0.85968883644E+02  0.94567562995E+02  0.00000000000E+00 0. -1.
        -13    1    4    4    0    0  0.51167115816E+02 -0.46582334838E+02 -0.60503876408E+02  0.91916846770E+02  0.00000000000E+00 0.  1.
         13    1    4    4    0    0  0.15171885826E+02  0.23401795441E+02  0.19670680679E+02  0.34128665778E+02  0.00000000000E+00 0. -1.
          1    1    1    2  501    0 -0.21340040709E+02  0.36574739557E+02 -0.19246350753E+03  0.19706676696E+03  0.00000000000E+00 0. -1.
<scales pt_clust_5="13000.00000" pt_clust_6="13000.00000" pt_clust_7="13000.00000" pt_clust_8="13000.00000" pt_clust_9="42.34514"></scales>
<clustering>
<clus scale="   42.345">  1  9  2 -1</clus>
<clus scale="   75.734">  5  6 -1 -1</clus>
<clus scale="   90.277">  2  5  1 -1</clus>
<clus scale="   96.343">  7  8 -1 -1</clus>
<clus scale="   42.345">  1  5  2 -1</clus>
</clustering>
</event>
<event>
 9    2  0.9254368E-005  0.1901842E+03  0.7546771E-02  0.1159461E+00
         21   -1    0    0  501  502  0.00000000000E+00  0.00000000000E+00  0.12052614795E+03  0.12052614795E+03  0.00000000000E+00 0.  1.
          2   -1    0    0  502    0 -0.00000000000E+00 -0.00000000000E+00 -0.39984955762E+03  0.39984955762E+03  0.00000000000E+00 0. -1.
         24    2    1    2    0    0  0.17607646347E+03 -0.30203837130E+02 -0.22578546336E+03  0.29911148628E+03  0.81076587201E+02 0.  0.
         23    2    1    2    0    0 -0.14621385555E+03  0.10102017460E+02 -0.62699375771E+02  0.18411869069E+03  0.92130007198E+02 0.  0.
        -13    1    3    3    0    0  0.69942491546E+02  0.12752909309E+01 -0.34258720166E+02  0.77892479727E+02  0.00000000000E+00 0.  1.
         14    1    3    3    0    0  0.10613397192E+03 -0.31479128061E+02 -0.19152674320E+03  0.22121900655E+03  0.00000000000E+00 0. -1.
        -11    1    4    4    0    0 -0.56121190636E+02  0.47271329734E+02 -0.41787425813E+02  0.84441433013E+02  0.00000000000E+00 0.  1.
         11    1    4    4    0    0 -0.90092664915E+02 -0.37169312274E+02 -0.20911949958E+02  0.99677257674E+02  0.00000000000E+00 0. -1.
          1    1    1    2  501    0 -0.29862607916E+02  0.20101819671E+02  0.91614294610E+01  0.37145528606E+02  0.00000000000E+00 0. -1.
<scales pt_clust_5="13000.00000" pt_clust_6="13000.00000" pt_clust_7="13000.00000" pt_clust_8="13000.00000" pt_clust_9="35.99803"></scales>
<clustering>
<clus scale="   35.998">  1  9  2 -1</clus>
<clus scale="   81.077">  5  6 -1 -1</clus>
<clus scale="   92.130">  7  8 -1 -1</clus>
<clus scale="  185.082">  2  5  1 -1</clus>
<clus scale="   35.998">  1  5  2 -1</clus>
</clustering>
</event>
<event>
 9    2  0.9254368E-005  0.1223185E+03  0.7546771E-02  0.1242928E+00
          2   -1    0    0  502    0 -0.00000000000E+00  0.00000000000E+00  0.95628673687E+03  0.95628673687E+03  0.00000000000E+00 0. -1.
         21   -1    0    0  501  502  0.00000000000E+00 -0.00000000000E+00 -0.62613641246E+02  0.62613641246E+02  0.00000000000E+00 0.  1.
         24    2    1    2    0    0  0.59366421218E+02 -0.15823041096E+02  0.16801523788E+03  0.19592492335E+03  0.79891894674E+02 0.  0.
         23    2    1    2    0    0 -0.14829432080E+03 -0.13778112771E+02  0.12487783897E+03  0.21492855641E+03  0.91753843095E+02 0.  0.
        -11    1    3    3    0    0  0.54321758319E+02  0.53369066083E+01  0.44261406788E+02  0.70273808278E+02  0.00000000000E+00 0.  1.
         12    1    3    3    0    0  0.50446628986E+01 -0.21159947705E+02  0.12375383109E+03  0.12565111508E+03  0.00000000000E+00 0. -1.
        -11    1    4    4    0    0 -0.12815896785E+03 -0.37176607761E+02  0.12669371736E+03  0.18400575867E+03  0.00000000000E+00 0.  1.
         11    1    4    4    0    0 -0.20135352946E+02  0.23398494990E+02 -0.18158783834E+01  0.30922797744E+02  0.00000000000E+00 0. -1.
          1    1    1    2  501    0  0.88927899582E+02  0.29601153868E+02  0.60078001877E+03  0.60804689835E+03  0.00000000000E+00 0. -1.
<scales pt_clust_5="13000.00000" pt_clust_6="13000.00000" pt_clust_7="13000.00000" pt_clust_8="13000.00000" pt_clust_9="93.72517"></scales>
<clustering>
<clus scale="   79.892">  5  6 -1 -1</clus>
<clus scale="   91.754">  7  8 -1 -1</clus>
<clus scale="   93.725">  2  9  1 -1</clus>
<clus scale="  113.692">  1  5  2 -1</clus>
<clus scale="   93.725">  2  5  1 -1</clus>
</clustering>
</event>
<event>
 9    2  0.9254368E-005  0.1072050E+03  0.7546771E-02  0.1270316E+00
          2   -1    0    0  502    0 -0.00000000000E+00  0.00000000000E+00  0.87211601607E+02  0.87211601607E+02  0.00000000000E+00 0. -1.
         21   -1    0    0  501  502  0.00000000000E+00 -0.00000000000E+00 -0.26613190404E+03  0.26613190404E+03  0.00000000000E+00 0. -1.
         23    2    1    2    0    0  0.57167900924E+02  0.73262903279E+01 -0.76721647507E+02  0.13186233631E+03  0.90441257811E+02 0.  0.
         24    2    1    2    0    0 -0.46569612950E+02  0.61855840493E+02 -0.10299560745E+03  0.15148741200E+03  0.79658439526E+02 0.  0.
        -13    1    4    4    0    0  0.20542827723E+02  0.44419591509E+01 -0.10136706569E+02  0.23334343617E+02  0.00000000000E+00 0.  1.
         14    1    4    4    0    0 -0.67112440673E+02  0.57413881343E+02 -0.92858900876E+02  0.12815306838E+03  0.00000000000E+00 0. -1.
        -11    1    3    3    0    0  0.18894302897E+01  0.28210045289E+02 -0.66006470388E+02  0.71806898939E+02  0.00000000000E+00 0.  1.
         11    1    3    3    0    0  0.55278470634E+02 -0.20883754962E+02 -0.10715177118E+02  0.60055437369E+02  0.00000000000E+00 0. -1.
          1    1    1    2  501    0 -0.10598287974E+02 -0.69182130821E+02  0.79695252010E+00  0.69993757338E+02  0.00000000000E+00 0. -1.
<scales pt_clust_5="13000.00000" pt_clust_6="13000.00000" pt_clust_7="13000.00000" pt_clust_8="13000.00000" pt_clust_9="69.98926"></scales>
<clustering>
<clus scale="   69.989">  2  9  1 -1</clus>
<clus scale="   79.658">  5  6 -1 -1</clus>
<clus scale="   90.441">  7  8 -1 -1</clus>
<clus scale="   98.279">  2  5  1 -1</clus>
<clus scale="   69.989">  2  5  1 -1</clus>
</clustering>
</event>
<event>
 9    2  0.9254368E-005  0.2164334E+03  0.7546771E-02  0.1176981E+00
         21   -1    0    0  501  502  0.00000000000E+00  0.00000000000E+00  0.17120025317E+03  0.17120025317E+03  0.00000000000E+00 0. -1.
          2   -1    0    0  502    0 -0.00000000000E+00 -0.00000000000E+00 -0.40678465383E+03  0.40678465383E+03  0.00000000000E+00 0. -1.
         24    2    1    2    0    0 -0.96345061634E+01  0.23810561115E+02 -0.10070003646E+03  0.13114061841E+03  0.79984985625E+02 0.  0.
         23    2    1    2    0    0 -0.12321304119E+02  0.18862731845E+03 -0.31381849457E+02  0.20951607527E+03  0.84735385275E+02 0.  0.
        -13    1    3    3    0    0  0.25368126424E+02 -0.12787973019E+02 -0.16411928380E+02  0.32808923867E+02  0.00000000000E+00 0.  1.
         14    1    3    3    0    0 -0.35002632587E+02  0.36598534133E+02 -0.84288108079E+02  0.98331694546E+02  0.00000000000E+00 0. -1.
        -13    1    4    4    0    0 -0.30888138678E+02  0.17871411666E+03 -0.13443433838E+02  0.18186131672E+03  0.00000000000E+00 0. -1.
         13    1    4    4    0    0  0.18566834560E+02  0.99132017882E+01 -0.17938415619E+02  0.27654758545E+02  0.00000000000E+00 0.  1.
          1    1    1    2  501    0  0.21955810282E+02 -0.21243787957E+03 -0.10350251475E+03  0.23732821332E+03  0.00000000000E+00 0. -1.
<scales pt_clust_5="13000.00000" pt_clust_6="13000.00000" pt_clust_7="13000.00000" pt_clust_8="13000.00000" pt_clust_9="199.15660"></scales>
<clustering>
<clus scale="   79.985">  5  6 -1 -1</clus>
<clus scale="   84.008">  2  5  1 -1</clus>
<clus scale="   84.735">  7  8 -1 -1</clus>
<clus scale="  199.157">  1  9  2 -1</clus>
<clus scale="  199.157">  1  5  2 -1</clus>
</clustering>
</event>
<event>
 9    2  0.9254368E-005  0.8417463E+02  0.7546771E-02  0.1319778E+00
         21   -1    0    0  501  502  0.00000000000E+00  0.00000000000E+00  0.29948249210E+02  0.29948249210E+02  0.00000000000E+00 0.  1.
          2   -1    0    0  502    0 -0.00000000000E+00 -0.00000000000E+00 -0.39578478051E+03  0.39578478051E+03  0.00000000000E+00 0. -1.
         24    2    1    2    0    0 -0.23296046275E+01  0.60881397990E+01 -0.26401760377E+03  0.27622101730E+03  0.80933693817E+02 0.  0.
         23    2    1    2    0    0 -0.22259649294E+01  0.13598416221E+02 -0.63932401175E+02  0.10657365450E+03  0.84147014617E+02 0.  0.
        -11    1    3    3    0    0  0.28579909252E+02  0.24980102671E+02 -0.78450005701E+02  0.87150560163E+02  0.00000000000E+00 0.  1.
         12    1    3    3    0    0 -0.30909513880E+02 -0.18891962872E+02 -0.18556759807E+03  0.18907045714E+03  0.00000000000E+00 0. -1.
        -11    1    4    4    0    0  0.24087638049E+02 -0.60981440208E+01  0.91191986794E+01  0.26468121426E+02  0.00000000000E+00 0.  1.
         11    1    4    4    0    0 -0.26313602978E+02  0.19696560242E+02 -0.73051599854E+02  0.80105533069E+02  0.00000000000E+00 0. -1.
          1    1    1    2  501    0  0.45555695570E+01 -0.19686556020E+02 -0.37886526361E+02  0.42938357929E+02  0.00000000000E+00 0. -1.
<scales pt_clust_5="13000.00000" pt_clust_6="13000.00000" pt_clust_7="13000.00000" pt_clust_8="13000.00000" pt_clust_9="20.20678"></scales>
<clustering>
<clus scale="   20.207">  1  9  2 -1</clus>
<clus scale="   80.934">  5  6 -1 -1</clus>
<clus scale="   80.962">  2  5  1 -1</clus>
<clus scale="   84.147">  7  8 -1 -1</clus>
<clus scale="   20.207">  1  5  2 -1</clus>
</clustering>
</event>
<event>
 9    2  0.9254368E-005  0.1136076E+03  0.7546771E-02  0.1257353E+00
         -1   -1    0    0    0  501 -0.00000000000E+00  0.00000000000E+00  0.33273516494E+03  0.33273516494E+03  0.00000000000E+00 0.  1.
         21   -1    0    0  501  502  0.00000000000E+00 -0.00000000000E+00 -0.86864258215E+02  0.86864258215E+02  0.00000000000E+00 0.  1.
         23    2    1    2    0    0 -0.32795489491E+02 -0.46878307683E+02  0.88003389510E+02  0.13869018142E+03  0.90649048505E+02 0.  0.
         24    2    1    2    0    0 -0.21371814528E+02  0.10568833071E+03  0.44624851085E+02  0.14228522843E+03  0.81405965314E+02 0.  0.
        -11    1    4    4    0    0 -0.50936395506E+02  0.46652063618E+02  0.21993684654E+02  0.72488989451E+02  0.00000000000E+00 0.  1.
         12    1    4    4    0    0  0.29564580979E+02  0.59036267096E+02  0.22631166431E+02  0.69796238975E+02  0.00000000000E+00 0. -1.
        -11    1    3    3    0    0  0.22901958051E+02  0.11664951940E+02  0.14807703976E+02  0.29662078204E+02  0.00000000000E+00 0.  1.
         11    1    3    3    0    0 -0.55697447542E+02 -0.58543259623E+02  0.73195685535E+02  0.10902810322E+03  0.00000000000E+00 0. -1.
         -2    1    1    2    0  502  0.54167304019E+02 -0.58810023030E+02  0.11324266613E+03  0.13862401331E+03  0.00000000000E+00 0.  1.
<scales pt_clust_5="13000.00000" pt_clust_6="13000.00000" pt_clust_7="13000.00000" pt_clust_8="13000.00000" pt_clust_9="79.95450"></scales>
<clustering>
<clus scale="   79.954">  2  9  1 -1</clus>
<clus scale="   81.406">  5  6 -1 -1</clus>
<clus scale="   90.649">  7  8 -1 -1</clus>
<clus scale="  106.378">  2  5  1 -1</clus>
<clus scale="   79.954">  2  5  1 -1</clus>
</clustering>
</event>
<event>
 9    2  0.9254368E-005  0.1035204E+03  0.7546771E-02  0.1280256E+00
         21   -1    0    0  501  502  0.00000000000E+00  0.00000000000E+00  0.10600856635E+03  0.10600856635E+03  0.00000000000E+00 0. -1.
         -1   -1    0    0    0  501 -0.00000000000E+00 -0.00000000000E+00 -0.30904235534E+03  0.30904235534E+03  0.00000000000E+00 0.  1.
         23    2    1    2    0    0 -0.11706453712E+02 -0.47575146660E+02 -0.13139342290E+03  0.16849926227E+03  0.93420202122E+02 0.  0.
         24    2    1    2    0    0 -0.60441950103E+02  0.32013665420E+02  0.41038598030E+02  0.11185161923E+03  0.78412461316E+02 0.  0.
        -13    1    4    4    0    0  0.14946642227E+02  0.13857310609E+02  0.25706510967E+02  0.32806278016E+02  0.00000000000E+00 0.  1.
         14    1    4    4    0    0 -0.75388592330E+02  0.18156354811E+02  0.15332087062E+02  0.79045341211E+02  0.00000000000E+00 0. -1.
        -11    1    3    3    0    0  0.27610375566E+02 -0.49780035300E+02 -0.41767122981E+02  0.70603663613E+02  0.00000000000E+00 0.  1.
         11    1    3    3    0    0 -0.39316829279E+02  0.22048886401E+01 -0.89626299921E+02  0.97895598655E+02  0.00000000000E+00 0. -1.
         -2    1    1    2    0  502  0.72148403815E+02  0.15561481240E+02 -0.11267896412E+03  0.13470004019E+03  0.00000000000E+00 0.  1.
<scales pt_clust_5="13000.00000" pt_clust_6="13000.00000" pt_clust_7="13000.00000" pt_clust_8="13000.00000" pt_clust_9="73.80757"></scales>
<clustering>
<clus scale="   73.808">  1  9  2 -1</clus>
<clus scale="   78.412">  5  6 -1 -1</clus>
<clus scale="   90.209">  1  5  2 -1</clus>
<clus scale="   93.420">  7  8 -1 -1</clus>
<clus scale="   73.808">  1  5  2 -1</clus>
</clustering>
</event>
<event>
 9    2  0.9254368E-005  0.1039501E+03  0.7546771E-02  0.1276751E+00
         21   -1    0    0  501  502  0.00000000000E+00  0.00000000000E+00  0.26614585937E+02  0.26614585937E+02  0.00000000000E+00 0. -1.
          2   -1    0    0  502    0 -0.00000000000E+00 -0.00000000000E+00 -0.93486417253E+03  0.93486417253E+03  0.00000000000E+00 0. -1.
         23    2    1    2    0    0 -0.27305142448E+02  0.11985692986E+02 -0.28294646662E+03  0.29854749006E+03  0.90458129590E+02 0.  0.
         24    2    1    2    0    0  0.19201841008E+02 -0.99295610838E+02 -0.31419074116E+03  0.33969822941E+03  0.80316475284E+02 0.  0.
        -11    1    4    4    0    0 -0.49838441093E+01 -0.37171980344E+02 -0.30679169529E+02  0.48454166671E+02  0.00000000000E+00 0.  1.
         12    1    4    4    0    0  0.24185685117E+02 -0.62123630494E+02 -0.28351157163E+03  0.29124406274E+03  0.00000000000E+00 0. -1.
        -11    1    3    3    0    0 -0.44890442358E+02 -0.24615415105E+02 -0.19616380425E+03  0.20273457666E+03  0.00000000000E+00 0.  1.
         11    1    3    3    0    0  0.17585299910E+02  0.36601108091E+02 -0.86782662369E+02  0.95812913400E+02  0.00000000000E+00 0. -1.
          1    1    1    2  501    0  0.81033014406E+01  0.87309917852E+02 -0.31111237882E+03  0.32323303900E+03  0.00000000000E+00 0. -1.
<scales pt_clust_5="13000.00000" pt_clust_6="13000.00000" pt_clust_7="13000.00000" pt_clust_8="13000.00000" pt_clust_9="87.68519"></scales>
<clustering>
<clus scale="   80.316">  5  6 -1 -1</clus>
<clus scale="   87.685">  1  9  2 -1</clus>
<clus scale="   90.458">  7  8 -1 -1</clus>
<clus scale="   95.256">  1  5  2 -1</clus>
<clus scale="   87.685">  1  5  2 -1</clus>
</clustering>
</event>
<event>
 9    2  0.9254368E-005  0.1798769E+03  0.7546771E-02  0.1187560E+00
         21   -1    0    0  501  502  0.00000000000E+00  0.00000000000E+00  0.90768972333E+02  0.90768972333E+02  0.00000000000E+00 0.  1.
         -1   -1    0    0    0  501 -0.00000000000E+00 -0.00000000000E+00 -0.77752043026E+03  0.77752043026E+03  0.00000000000E+00 0.  1.
         23    2    1    2    0    0  0.67627372342E+02  0.24884099283E+02 -0.13508516251E+03  0.17771581776E+03  0.90234310921E+02 0.  0.
         24    2    1    2    0    0  0.26799578789E+02 -0.15882164471E+03 -0.94615742950E+02  0.20503169921E+03  0.84518202869E+02 0.  0.
        -11    1    4    4    0    0  0.50257200578E+02 -0.14750367237E+03 -0.80007770903E+02  0.17516952640E+03  0.00000000000E+00 0.  1.
         12    1    4    4    0    0 -0.23457621789E+02 -0.11317972335E+02 -0.14607972047E+02  0.29862172812E+02  0.00000000000E+00 0. -1.
        -13    1    3    3    0    0  0.31607142903E+02 -0.10602510584E+02 -0.12059198899E+03  0.12511535686E+03  0.00000000000E+00 0.  1.
         13    1    3    3    0    0  0.36020229440E+02  0.35486609866E+02 -0.14493173512E+02  0.52600460902E+02  0.00000000000E+00 0. -1.
         -2    1    1    2    0  502 -0.94426951131E+02  0.13393754543E+03 -0.45705055247E+03  0.48554188561E+03  0.00000000000E+00 0.  1.
<scales pt_clust_5="13000.00000" pt_clust_6="13000.00000" pt_clust_7="13000.00000" pt_clust_8="13000.00000" pt_clust_9="158.78417"></scales>
<clustering>
<clus scale="   84.518">  5  6 -1 -1</clus>
<clus scale="   90.234">  7  8 -1 -1</clus>
<clus scale="  115.477">  2  7  1 -1</clus>
<clus scale="  158.784">  1  9  2 -1</clus>
<clus scale="  158.784">  1  5  2 -1</clus>
</clustering>
</event>
<event>
 9    2  0.9254368E-005  0.1248565E+03  0.7546771E-02  0.1238550E+00
         21   -1    0    0  501  502  0.00000000000E+00  0.00000000000E+00  0.73645385483E+02  0.73645385483E+02  0.00000000000E+00 0.  1.
         -1   -1    0    0    0  501 -0.00000000000E+00 -0.00000000000E+00 -0.30511222613E+03  0.30511222613E+03  0.00000000000E+00 0.  1.
         23    2    1    2    0    0  0.10580159991E+02  0.96204075544E+02 -0.19670831939E+03  0.23728958670E+03  0.90802098557E+02 0.  0.
         24    2    1    2    0    0 -0.87096618879E+01 -0.61620459351E+02 -0.16197862678E+02  0.10217396278E+03  0.79399047183E+02 0.  0.
        -13    1    4    4    0    0  0.30249327488E+02 -0.42009654949E+02  0.78635320412E+01  0.52360940200E+02  0.00000000000E+00 0.  1.
         14    1    4    4    0    0 -0.38958989376E+02 -0.19610804402E+02 -0.24061394720E+02  0.49813022578E+02  0.00000000000E+00 0. -1.
        -11    1    3    3    0    0 -0.33240803599E+02  0.46214188470E+02 -0.13530552963E+03  0.14679335336E+03  0.00000000000E+00 0.  1.
         11    1    3    3    0    0  0.43820963590E+02  0.49989887074E+02 -0.61402789751E+02  0.90496233340E+02  0.00000000000E+00 0. -1.
         -2    1    1    2    0  502 -0.18704981030E+01 -0.34583616193E+02 -0.18560658578E+02  0.39294062134E+02  0.00000000000E+00 0.  1.
<scales pt_clust_5="13000.00000" pt_clust_6="13000.00000" pt_clust_7="13000.00000" pt_clust_8="13000.00000" pt_clust_9="34.63416"></scales>
<clustering>
<clus scale="   34.634">  1  9  2 -1</clus>
<clus scale="   79.399">  5  6 -1 -1</clus>
<clus scale="   90.802">  7  8 -1 -1</clus>
<clus scale="  116.826">  1  5  2 -1</clus>
<clus scale="   34.634">  1  5  2 -1</clus>
</clustering>
</event>
<event>
 9    2  0.9254368E-005  0.1182032E+03  0.7546771E-02  0.1258916E+00
          2   -1    0    0  502    0 -0.00000000000E+00  0.00000000000E+00  0.14510947501E+03  0.14510947501E+03  0.00000000000E+00 0. -1.
         21   -1    0    0  501  502  0.00000000000E+00 -0.00000000000E+00 -0.16474654122E+03  0.16474654122E+03  0.00000000000E+00 0. -1.
         23    2    1    2    0    0 -0.80591956411E+02 -0.27166037976E+00  0.18949870670E+02  0.13823267751E+03  0.11069795976E+03 0.  0.
         24    2    1    2    0    0 -0.76326342360E+00  0.31119712997E+01 -0.38209033659E+02  0.90217675695E+02  0.81664140344E+02 0.  0.
        -11    1    4    4    0    0 -0.39918807530E+02 -0.75351003816E+01 -0.24224589197E+02  0.47298199270E+02  0.00000000000E+00 0.  1.
         12    1    4    4    0    0  0.39155544106E+02  0.10647071681E+02 -0.13984444462E+02  0.42919476425E+02  0.00000000000E+00 0. -1.
        -11    1    3    3    0    0 -0.98905776839E+02 -0.24154144532E+02 -0.15395431028E+01  0.10182409137E+03  0.00000000000E+00 0. -1.
         11    1    3    3    0    0  0.18313820429E+02  0.23882484152E+02  0.20489413773E+02  0.36408586140E+02  0.00000000000E+00 0.  1.
          1    1    1    2  501    0  0.81355219834E+02 -0.28403109200E+01 -0.37790321975E+00  0.81405663017E+02  0.00000000000E+00 0. -1.
<scales pt_clust_5="13000.00000" pt_clust_6="13000.00000" pt_clust_7="13000.00000" pt_clust_8="13000.00000" pt_clust_9="81.40483"></scales>
<clustering>
<clus scale="   81.405">  2  9  1 -1</clus>
<clus scale="   81.664">  5  6 -1 -1</clus>
<clus scale="   91.581">  2  5  1 -1</clus>
<clus scale="  110.698">  7  8 -1 -1</clus>
<clus scale="   81.405">  2  5  1 -1</clus>
</clustering>
</event>
<event>
 9    2  0.9254368E-005  0.1589595E+03  0.7546771E-02  0.1191870E+00
         21   -1    0    0  501  502  0.00000000000E+00  0.00000000000E+00  0.99094829974E+02  0.99094829974E+02  0.00000000000E+00 0. -1.
          2   -1    0    0  502    0 -0.00000000000E+00 -0.00000000000E+00 -0.45715200889E+03  0.45715200889E+03  0.00000000000E+00 0. -1.
         24    2    1    2    0    0 -0.40458738354E+02 -0.14794329670E+03 -0.22454391033E+03  0.28376395163E+03  0.81104155452E+02 0.  0.
         23    2    1    2    0    0  0.76093658852E+02  0.79711197106E+02 -0.13177691302E+03  0.19548625156E+03  0.93303804216E+02 0.  0.
        -11    1    3    3    0    0 -0.16556285289E+02 -0.68427779807E+02 -0.17110601132E+03  0.18502361671E+03  0.00000000000E+00 0.  1.
         12    1    3    3    0    0 -0.23902453065E+02 -0.79515516896E+02 -0.53437899014E+02  0.98740334923E+02  0.00000000000E+00 0. -1.
        -13    1    4    4    0    0  0.67154747138E+02  0.35293002128E+02 -0.25634673402E+02  0.80078040328E+02  0.00000000000E+00 0. -1.
         13    1    4    4    0    0  0.89389117143E+01  0.44418194978E+02 -0.10614223962E+03  0.11540821123E+03  0.00000000000E+00 0.  1.
          1    1    1    2  501    0 -0.35634920498E+02  0.68232099597E+02 -0.17363555636E+01  0.76996635673E+02  0.00000000000E+00 0. -1.
<scales pt_clust_5="13000.00000" pt_clust_6="13000.00000" pt_clust_7="13000.00000" pt_clust_8="13000.00000" pt_clust_9="76.97705"></scales>
<clustering>
<clus scale="   76.977">  1  9  2 -1</clus>
<clus scale="   81.104">  5  6 -1 -1</clus>
<clus scale="   93.304">  7  8 -1 -1</clus>
<clus scale="  152.120">  2  5  1 -1</clus>
<clus scale="   76.977">  1  5  2 -1</clus>
</clustering>
</event>
<event>
 9    2  0.9254368E-005  0.1092929E+03  0.7546771E-02  0.1265689E+00
         21   -1    0    0  501  502  0.00000000000E+00  0.00000000000E+00  0.36032500851E+02  0.36032500851E+02  0.00000000000E+00 0.  1.
          2   -1    0    0  502    0 -0.00000000000E+00 -0.00000000000E+00 -0.53863041493E+03  0.53863041493E+03  0.00000000000E+00 0. -1.
         24    2    1    2    0    0  0.46643610421E+02  0.26294224683E+01 -0.20473991633E+03  0.22529846282E+03  0.81599165167E+02 0.  0.
         23    2    1    2    0    0 -0.74484793072E+02 -0.12191604805E+02 -0.29722743640E+03  0.31992019393E+03  0.91149119057E+02 0.  0.
        -13    1    3    3    0    0  0.47219938272E+02 -0.30961252539E+02 -0.94820923427E+02  0.11035999841E+03  0.00000000000E+00 0.  1.
         14    1    3    3    0    0 -0.57632785030E+00  0.33590675007E+02 -0.10991899290E+03  0.11493846441E+03  0.00000000000E+00 0. -1.
        -11    1    4    4    0    0 -0.43045158288E+02 -0.51505284610E+02 -0.18879335528E+03  0.20037118304E+03  0.00000000000E+00 0. -1.
         11    1    4    4    0    0 -0.31439634784E+02  0.39313679805E+02 -0.10843408112E+03  0.11954901089E+03  0.00000000000E+00 0.  1.
          1    1    1    2  501    0  0.27841182651E+02  0.95621823370E+01 -0.63056134975E+00  0.29444259034E+02  0.00000000000E+00 0. -1.
<scales pt_clust_5="13000.00000" pt_clust_6="13000.00000" pt_clust_7="13000.00000" pt_clust_8="13000.00000" pt_clust_9="29.43751"></scales>
<clustering>
<clus scale="   29.438">  1  9  2 -1</clus>
<clus scale="   81.599">  5  6 -1 -1</clus>
<clus scale="   91.149">  7  8 -1 -1</clus>
<clus scale="  101.465">  2  5  1 -1</clus>
<clus scale="   29.438">  1  5  2 -1</clus>
</clustering>
</event>
<event>
 9    2  0.9254368E-005  0.1970498E+03  0.7546771E-02  0.1172174E+00
         21   -1    0    0  501  502  0.00000000000E+00  0.00000000000E+00  0.46582152032E+03  0.46582152032E+03  0.00000000000E+00 0. -1.
          2   -1    0    0  502    0 -0.00000000000E+00 -0.00000000000E+00 -0.33995080720E+03  0.33995080720E+03  0.00000000000E+00 0. -1.
         24    2    1    2    0    0  0.18992392537E+02 -0.94643021794E+02  0.23322615943E+03  0.26421041722E+03  0.78068499260E+02 0.  0.
         23    2    1    2    0    0  0.15834220041E+03  0.68095345644E+02 -0.24695977586E+03  0.31431379525E+03  0.89971120169E+02 0.  0.
        -11    1    3    3    0    0  0.19889980872E+02  0.80422805147E+01  0.41144759147E+02  0.46402379468E+02  0.00000000000E+00 0.  1.
         12    1    3    3    0    0 -0.89758833488E+00 -0.10268530231E+03  0.19208140029E+03  0.21780803776E+03  0.00000000000E+00 0. -1.
        -13    1    4    4    0    0  0.82505581221E+02  0.23425787652E+02 -0.51725144056E+02  0.10015702166E+03  0.00000000000E+00 0.  1.
         13    1    4    4    0    0  0.75836619189E+02  0.44669557992E+02 -0.19523463180E+03  0.21415677359E+03  0.00000000000E+00 0. -1.
          1    1    1    2  501    0 -0.17733459295E+03  0.26547676150E+02  0.13960432954E+03  0.22724811504E+03  0.00000000000E+00 0. -1.
<scales pt_clust_5="13000.00000" pt_clust_6="13000.00000" pt_clust_7="13000.00000" pt_clust_8="13000.00000" pt_clust_9="175.31069"></scales>
<clustering>
<clus scale="   78.068">  5  6 -1 -1</clus>
<clus scale="   89.971">  7  8 -1 -1</clus>
<clus scale="  124.148">  2  5  1 -1</clus>
<clus scale="  175.311">  1  9  2 -1</clus>
<clus scale="  175.311">  1  5  2 -1</clus>
</clustering>
</event>
<event>
 9    2  0.9254368E-005  0.1710121E+03  0.7546771E-02  0.1202134E+00
         21   -1    0    0  501  502  0.00000000000E+00  0.00000000000E+00  0.44661357119E+03  0.44661357119E+03  0.00000000000E+00 0. -1.
          2   -1    0    0  502    0 -0.00000000000E+00 -0.00000000000E+00 -0.21155055928E+03  0.21155055928E+03  0.00000000000E+00 0. -1.
         24    2    1    2    0    0  0.42286089427E+01  0.55569260414E+02 -0.67174053714E+02  0.11851943685E+03  0.80179047024E+02 0.  0.
         23    2    1    2    0    0 -0.86275436375E+02  0.51366009907E+02 -0.54002192896E+02  0.15875987739E+03  0.11048322921E+03 0.  0.
        -13    1    3    3    0    0  0.51431404087E+01  0.33929281230E+02  0.12063093913E+02  0.36375352271E+02  0.00000000000E+00 0.  1.
         14    1    3    3    0    0 -0.91453146603E+00  0.21639979183E+02 -0.79237147627E+02  0.82144084576E+02  0.00000000000E+00 0. -1.
        -11    1    4    4    0    0 -0.98692072724E+02  0.73104307190E+02 -0.36203773038E+02  0.12804326663E+03  0.00000000000E+00 0. -1.
         11    1    4    4    0    0  0.12416636349E+02 -0.21738297283E+02 -0.17798419858E+02  0.30716610757E+02  0.00000000000E+00 0.  1.
          1    1    1    2  501    0  0.82046827433E+02 -0.10693527032E+03  0.35623925852E+03  0.38088481624E+03  0.00000000000E+00 0. -1.
<scales pt_clust_5="13000.00000" pt_clust_6="13000.00000" pt_clust_7="13000.00000" pt_clust_8="13000.00000" pt_clust_9="130.53192"></scales>
<clustering>
<clus scale="   80.179">  5  6 -1 -1</clus>
<clus scale="   97.645">  2  5  1 -1</clus>
<clus scale="  110.483">  7  8 -1 -1</clus>
<clus scale="  130.532">  1  9  2 -1</clus>
<clus scale="  130.532">  1  5  2 -1</clus>
</clustering>
</event>
<event>
 9    2  0.9254368E-005  0.1836299E+03  0.7546771E-02  0.1165614E+00
         21   -1    0    0  501  502  0.00000000000E+00  0.00000000000E+00  0.26556866172E+03  0.26556866172E+03  0.00000000000E+00 0. -1.
          2   -1    0    0  502    0 -0.00000000000E+00 -0.00000000000E+00 -0.25107151258E+03  0.25107151258E+03  0.00000000000E+00 0. -1.
         23    2    1    2    0    0 -0.14001928286E+03  0.49287317653E+02 -0.26895866740E+02  0.17614308609E+03  0.90930522256E+02 0.  0.
         24    2    1    2    0    0  0.19558566609E+03  0.44152003830E+02  0.72218888528E+02  0.22749813171E+03  0.79603265324E+02 0.  0.
        -13    1    4    4    0    0  0.26766308929E+02  0.20376481560E+02  0.42889722098E+02  0.54508389777E+02  0.00000000000E+00 0.  1.
         14    1    4    4    0    0  0.16881935716E+03  0.23775522270E+02  0.29329166430E+02  0.17298974193E+03  0.00000000000E+00 0. -1.
        -13    1    3    3    0    0 -0.71551132166E+02  0.11366755671E+02  0.30986917829E+02  0.78796933476E+02  0.00000000000E+00 0.  1.
         13    1    3    3    0    0 -0.68468150690E+02  0.37920561982E+02 -0.57882784569E+02  0.97346152617E+02  0.00000000000E+00 0. -1.
          1    1    1    2  501    0 -0.55566383231E+02 -0.93439321483E+02 -0.30825872642E+02  0.11299895649E+03  0.00000000000E+00 0. -1.
<scales pt_clust_5="13000.00000" pt_clust_6="13000.00000" pt_clust_7="13000.00000" pt_clust_8="13000.00000" pt_clust_9="108.71312"></scales>
<clustering>
<clus scale="   79.603">  5  6 -1 -1</clus>
<clus scale="   90.931">  7  8 -1 -1</clus>
<clus scale="  108.713">  1  9  2 -1</clus>
<clus scale="  178.293">  1  5  2 -1</clus>
<clus scale="  108.713">  1  5  2 -1</clus>
</clustering>
</event>
<event>
 9    2  0.9254368E-005  0.1058434E+03  0.7546771E-02  0.1272111E+00
          2   -1    0    0  502    0 -0.00000000000E+00  0.00000000000E+00  0.76152518810E+03  0.76152518810E+03  0.00000000000E+00 0. -1.
         21   -1    0    0  501  502  0.00000000000E+00 -0.00000000000E+00 -0.22257455876E+02  0.22257455876E+02  0.00000000000E+00 0. -1.
         23    2    1    2    0    0  0.26575871541E+02  0.34825750756E+02  0.24784068325E+03  0.26699866557E+03  0.89130091860E+02 0.  0.
         24    2    1    2    0    0 -0.33063081210E+02 -0.65967495311E+02  0.24382372775E+03  0.26714564637E+03  0.80448172038E+02 0.  0.
        -11    1    4    4    0    0 -0.35694909371E+02 -0.11611875832E+02  0.34911143835E+02  0.51261585805E+02  0.00000000000E+00 0.  1.
         12    1    4    4    0    0  0.26318281612E+01 -0.54355619479E+02  0.20891258392E+03  0.21588406057E+03  0.00000000000E+00 0. -1.
        -11    1    3    3    0    0  0.36729999384E+02  0.19173741639E+00  0.21527643458E+03  0.21838743761E+03  0.00000000000E+00 0.  1.
         11    1    3    3    0    0 -0.10154127843E+02  0.34634013340E+02  0.32564248672E+02  0.48611227960E+02  0.00000000000E+00 0. -1.
          1    1    1    2  501    0  0.64872096690E+01  0.31141744555E+02  0.24760332122E+03  0.24963833204E+03  0.00000000000E+00 0. -1.
<scales pt_clust_5="13000.00000" pt_clust_6="13000.00000" pt_clust_7="13000.00000" pt_clust_8="13000.00000" pt_clust_9="31.81027"></scales>
<clustering>
<clus scale="   31.810">  2  9  1 -1</clus>
<clus scale="   80.448">  5  6 -1 -1</clus>
<clus scale="   89.130">  7  8 -1 -1</clus>
<clus scale="   98.644">  2  5  1 -1</clus>
<clus scale="   31.810">  2  5  1 -1</clus>
</clustering>
</event>
<event>
 9    2  0.9254368E-005  0.1713126E+03  0.7546771E-02  0.1202834E+00
          4   -1    0    0  502    0 -0.00000000000E+00  0.00000000000E+00  0.21577901722E+03  0.21577901722E+03  0.00000000000E+00 0. -1.
         21   -1    0    0  501  502  0.00000000000E+00 -0.00000000000E+00 -0.52602782595E+03  0.52602782595E+03  0.00000000000E+00 0. -1.
         24    2    1    2    0    0 -0.50651582982E+02  0.19339324055E+02  0.14596412324E+03  0.17452522152E+03  0.78828518705E+02 0.  0.
         23    2    1    2    0    0 -0.94404132101E+02  0.50374242332E+02 -0.90345519693E+02  0.16758160265E+03  0.92041165634E+02 0.  0.
        -11    1    3    3    0    0 -0.25142741828E+02 -0.18416195262E+02  0.11570267018E+03  0.11982663144E+03  0.00000000000E+00 0.  1.
         12    1    3    3    0    0 -0.25508841154E+02  0.37755519317E+02  0.30261453052E+02  0.54698590080E+02  0.00000000000E+00 0. -1.
        -13    1    4    4    0    0 -0.50047446780E+02 -0.70859853888E+01  0.14327377442E+01  0.50566894858E+02  0.00000000000E+00 0.  1.
         13    1    4    4    0    0 -0.44356685321E+02  0.57460227721E+02 -0.91778257437E+02  0.11701470780E+03  0.00000000000E+00 0. -1.
          3    1    1    2  501    0  0.14505571508E+03 -0.69713566387E+02 -0.36586741227E+03  0.39970001899E+03  0.00000000000E+00 0. -1.
<scales pt_clust_5="13000.00000" pt_clust_6="13000.00000" pt_clust_7="13000.00000" pt_clust_8="13000.00000" pt_clust_9="144.48675"></scales>
<clustering>
<clus scale="   78.829">  5  6 -1 -1</clus>
<clus scale="   92.041">  7  8 -1 -1</clus>
<clus scale="   95.674">  1  5  2 -1</clus>
<clus scale="  144.487">  2  9  1 -1</clus>
<clus scale="  144.487">  2  5  1 -1</clus>
</clustering>
</event>
<event>
 9    2  0.9254368E-005  0.1429069E+03  0.7546771E-02  0.1210981E+00
         21   -1    0    0  501  502  0.00000000000E+00  0.00000000000E+00  0.40224032923E+03  0.40224032923E+03  0.00000000000E+00 0.  1.
         -1   -1    0    0    0  501 -0.00000000000E+00 -0.00000000000E+00 -0.29609025628E+03  0.29609025628E+03  0.00000000000E+00 0.  1.
         24    2    1    2    0    0  0.12198649827E+03  0.10844712693E+02 -0.17617948761E+03  0.22968476482E+03  0.81960757562E+02 0.  0.
         23    2    1    2    0    0 -0.92836723413E+02  0.26293032350E+02 -0.44162521843E+02  0.13875795891E+03  0.89406163439E+02 0.  0.
        -13    1    3    3    0    0  0.36620658389E+02  0.42005979491E+02 -0.55875900119E+02  0.78915721805E+02  0.00000000000E+00 0.  1.
         14    1    3    3    0    0  0.85365839882E+02 -0.31161266798E+02 -0.12030358749E+03  0.15076904301E+03  0.00000000000E+00 0. -1.
        -13    1    4    4    0    0 -0.37285048950E+02  0.53720071363E+02 -0.52587384335E+01  0.65602402946E+02  0.00000000000E+00 0. -1.
         13    1    4    4    0    0 -0.55551674464E+02 -0.27427039013E+02 -0.38903783410E+02  0.73155555964E+02  0.00000000000E+00 0.  1.
         -2    1    1    2    0  502 -0.29149774857E+02 -0.37137745043E+02  0.32649208240E+03  0.32988786178E+03  0.00000000000E+00 0.  1.
<scales pt_clust_5="13000.00000" pt_clust_6="13000.00000" pt_clust_7="13000.00000" pt_clust_8="13000.00000" pt_clust_9="47.21145"></scales>
<clustering>
<clus scale="   47.211">  1  9  2 -1</clus>
<clus scale="   81.961">  5  6 -1 -1</clus>
<clus scale="   89.406">  7  8 -1 -1</clus>
<clus scale="  138.371">  2  5  1 -1</clus>
<clus scale="   47.211">  1  5  2 -1</clus>
</clustering>
</event>
<event>
 9    2  0.9254368E-005  0.1302966E+03  0.7546771E-02  0.1249031E+00
          2   -1    0    0  502    0 -0.00000000000E+00  0.00000000000E+00  0.10634494267E+04  0.10634494267E+04  0.00000000000E+00 0. -1.
         21   -1    0    0  501  502  0.00000000000E+00 -0.00000000000E+00 -0.24639882631E+02  0.24639882631E+02  0.00000000000E+00 0. -1.
         24    2    1    2    0    0  0.16163234093E+02 -0.80122999644E+01  0.25808901647E+03  0.27116731658E+03  0.81217769449E+02 0.  0.
         23    2    1    2    0    0  0.67443740477E+02  0.54568455129E+02  0.59334950399E+03  0.60652830874E+03  0.91030659650E+02 0.  0.
        -11    1    3    3    0    0  0.12430809576E+02 -0.31910025273E+02  0.44196625128E+02  0.55911684042E+02  0.00000000000E+00 0.  1.
         12    1    3    3    0    0  0.37324245169E+01  0.23897725308E+02  0.21389239134E+03  0.21525563254E+03  0.00000000000E+00 0. -1.
        -13    1    4    4    0    0  0.67241429424E+02 -0.25908420359E+01  0.36366031941E+03  0.36983367912E+03  0.00000000000E+00 0.  1.
         13    1    4    4    0    0  0.20231105290E+00  0.57159297165E+02  0.22968918458E+03  0.23669462963E+03  0.00000000000E+00 0. -1.
          1    1    1    2  501    0 -0.83606974570E+02 -0.46556155164E+02  0.18737102361E+03  0.21039368400E+03  0.00000000000E+00 0. -1.
<scales pt_clust_5="13000.00000" pt_clust_6="13000.00000" pt_clust_7="13000.00000" pt_clust_8="13000.00000" pt_clust_9="93.22351"></scales>
<clustering>
<clus scale="   81.218">  5  6 -1 -1</clus>
<clus scale="   83.197">  1  5  2 -1</clus>
<clus scale="   91.031">  7  8 -1 -1</clus>
<clus scale="   93.224">  2  9  1 -1</clus>
<clus scale="   93.224">  2  5  1 -1</clus>
</clustering>
</event>
<event>
 9    2  0.9254368E-005  0.1084145E+03  0.7546771E-02  0.1271651E+00
         21   -1    0    0  501  502  0.00000000000E+00  0.00000000000E+00  0.25034372287E+03  0.25034372287E+03  0.00000000000E+00 0. -1.
          4   -1    0    0  502    0 -0.00000000000E+00 -0.00000000000E+00 -0.75876377422E+02  0.75876377422E+02  0.00000000000E+00 0. -1.
         23    2    1    2    0    0 -0.36772770725E+02  0.25236944085E+02  0.31901042402E+02  0.10986414985E+03  0.95201443806E+02 0.  0.
         24    2    1    2    0    0  0.73775838032E+02 -0.44734768421E+01  0.13702572318E+03  0.17356522029E+03  0.76719949219E+02 0.  0.
        -11    1    4    4    0    0  0.22641184636E+02  0.24408550272E+02  0.11921900113E+02  0.35362865699E+02  0.00000000000E+00 0.  1.
         12    1    4    4    0    0  0.51134653395E+02 -0.28882027114E+02  0.12510382306E+03  0.13820235459E+03  0.00000000000E+00 0. -1.
        -11    1    3    3    0    0 -0.36495889541E+02 -0.28987705587E+02  0.30347363184E+02  0.55616539633E+02  0.00000000000E+00 0.  1.
         11    1    3    3    0    0 -0.27688118404E+00  0.54224649672E+02  0.15536792179E+01  0.54247610218E+02  0.00000000000E+00 0. -1.
          3    1    1    2  501    0 -0.37003067307E+02 -0.20763467242E+02  0.55405798704E+01  0.42790730157E+02  0.00000000000E+00 0. -1.
<scales pt_clust_5="13000.00000" pt_clust_6="13000.00000" pt_clust_7="13000.00000" pt_clust_8="13000.00000" pt_clust_9="42.43054"></scales>
<clustering>
<clus scale="   42.431">  1  9  2 -1</clus>
<clus scale="   76.720">  5  6 -1 -1</clus>
<clus scale="   92.609">  1  5  2 -1</clus>
<clus scale="   95.201">  7  8 -1 -1</clus>
<clus scale="   42.431">  1  5  2 -1</clus>
</clustering>
</event>
<event>
 9    2  0.9254368E-005  0.1501329E+03  0.7546771E-02  0.1201663E+00
         21   -1    0    0  501  502  0.00000000000E+00  0.00000000000E+00  0.38401564471E+03  0.38401564471E+03  0.00000000000E+00 0.  1.
          2   -1    0    0  502    0 -0.00000000000E+00 -0.00000000000E+00 -0.12502520601E+03  0.12502520601E+03  0.00000000000E+00 0. -1.
         23    2    1    2    0    0  0.11691244427E+03  0.37846835989E+02 -0.39383925803E+02  0.15631408282E+03  0.88216190451E+02 0.  0.
         24    2    1    2    0    0 -0.11971761396E+03  0.67260004852E+00  0.26468300901E+03  0.30147519851E+03  0.80606703034E+02 0.  0.
        -13    1    4    4    0    0 -0.59341907835E+02 -0.39688265520E+02  0.12130363467E+03  0.14075223703E+03  0.00000000000E+00 0.  1.
         14    1    4    4    0    0 -0.60375706126E+02  0.40360865568E+02  0.14337937435E+03  0.16072296148E+03  0.00000000000E+00 0. -1.
        -11    1    3    3    0    0  0.77379637997E+01  0.37959265227E+02 -0.25216947190E+02  0.46224196325E+02  0.00000000000E+00 0.  1.
         11    1    3    3    0    0  0.10917448047E+03 -0.11242923767E+00 -0.14166978612E+02  0.11008988650E+03  0.00000000000E+00 0. -1.
          1    1    1    2  501    0  0.28051696935E+01 -0.38519436038E+02  0.33691355487E+02  0.51251569383E+02  0.00000000000E+00 0. -1.
<scales pt_clust_5="13000.00000" pt_clust_6="13000.00000" pt_clust_7="13000.00000" pt_clust_8="13000.00000" pt_clust_9="38.62144"></scales>
<clustering>
<clus scale="   38.621">  1  9  2 -1</clus>
<clus scale="   80.607">  5  6 -1 -1</clus>
<clus scale="   88.216">  7  8 -1 -1</clus>
<clus scale="  145.792">  1  5  2 -1</clus>
<clus scale="   38.621">  1  5  2 -1</clus>
</clustering>
</event>
<event>
 9    2  0.9254368E-005  0.1235871E+03  0.7546771E-02  0.1240281E+00
          2   -1    0    0  502    0 -0.00000000000E+00  0.00000000000E+00  0.79083080321E+02  0.79083080321E+02  0.00000000000E+00 0. -1.
         21   -1    0    0  501  502  0.00000000000E+00 -0.00000000000E+00 -0.60581982405E+03  0.60581982405E+03  0.00000000000E+00 0. -1.
         24    2    1    2    0    0  0.36692504386E+02  0.53503337366E+02 -0.11270233363E+03  0.15362818318E+03  0.81797650781E+02 0.  0.
         23    2    1    2    0    0 -0.36974641604E+02 -0.14000089963E+03 -0.41030220135E+03  0.44469621773E+03  0.91866498856E+02 0.  0.
        -13    1    3    3    0    0  0.37394188040E+02  0.61397445529E+02 -0.12188037917E+03  0.14150193795E+03  0.00000000000E+00 0.  1.
         14    1    3    3    0    0 -0.70168365351E+00 -0.78941081622E+01  0.91780455344E+01  0.12126245233E+02  0.00000000000E+00 0. -1.
        -13    1    4    4    0    0 -0.27230382675E+01 -0.63651228359E+02 -0.71737955376E+02  0.95943879693E+02  0.00000000000E+00 0.  1.
         13    1    4    4    0    0 -0.34251603337E+02 -0.76349671270E+02 -0.33856424598E+03  0.34875233804E+03  0.00000000000E+00 0. -1.
          1    1    1    2  501    0  0.28213721782E+00  0.86497562263E+02 -0.37322087407E+01  0.86578503457E+02  0.00000000000E+00 0. -1.
<scales pt_clust_5="13000.00000" pt_clust_6="13000.00000" pt_clust_7="13000.00000" pt_clust_8="13000.00000" pt_clust_9="86.49807"></scales>
<clustering>
<clus scale="   81.798">  5  6 -1 -1</clus>
<clus scale="   86.498">  2  9  1 -1</clus>
<clus scale="   91.866">  7  8 -1 -1</clus>
<clus scale="  116.298">  1  5  2 -1</clus>
<clus scale="   86.498">  2  5  1 -1</clus>
</clustering>
</event>
<event>
 9    2  0.9254368E-005  0.1261414E+03  0.7546771E-02  0.1236961E+00
         21   -1    0    0  501  502  0.00000000000E+00  0.00000000000E+00  0.22712904095E+03  0.22712904095E+03  0.00000000000E+00 0.  1.
         -1   -1    0    0    0  501 -0.00000000000E+00 -0.00000000000E+00 -0.99543564792E+02  0.99543564792E+02  0.00000000000E+00 0.  1.
         23    2    1    2    0    0 -0.76499207539E+02  0.80081389273E+01  0.46935561723E+02  0.12931443571E+03  0.92752451643E+02 0.  0.
         24    2    1    2    0    0  0.94662574137E+02  0.37339811456E+02  0.70915171776E+02  0.14754743118E+03  0.79912567208E+02 0.  0.
        -11    1    4    4    0    0  0.97498200872E+02  0.91946697674E+01  0.67752963888E+02  0.11908360610E+03  0.00000000000E+00 0.  1.
         12    1    4    4    0    0 -0.28356267345E+01  0.28145141688E+02  0.31622078887E+01  0.28463825083E+02  0.00000000000E+00 0. -1.
        -11    1    3    3    0    0 -0.72395354367E+02  0.34197044142E+02  0.59719215002E+02  0.99884482291E+02  0.00000000000E+00 0.  1.
         11    1    3    3    0    0 -0.41038531722E+01 -0.26188905214E+02 -0.12783653279E+02  0.29429953421E+02  0.00000000000E+00 0. -1.
         -2    1    1    2    0  502 -0.18163366598E+02 -0.45347950383E+02  0.97347426568E+01  0.49810738849E+02  0.00000000000E+00 0.  1.
<scales pt_clust_5="13000.00000" pt_clust_6="13000.00000" pt_clust_7="13000.00000" pt_clust_8="13000.00000" pt_clust_9="48.85025"></scales>
<clustering>
<clus scale="   48.850">  1  9  2 -1</clus>
<clus scale="   79.913">  5  6 -1 -1</clus>
<clus scale="   92.752">  7  8 -1 -1</clus>
<clus scale="  117.024">  1  5  2 -1</clus>
<clus scale="   48.850">  1  5  2 -1</clus>
</clustering>
</event>
<event>
 9    2  0.9254368E-005  0.1078234E+03  0.7546771E-02  0.1269527E+00
         21   -1    0    0  501  502  0.00000000000E+00  0.00000000000E+00  0.72235965083E+02  0.72235965083E+02  0.00000000000E+00 0.  1.
          2   -1    0    0  502    0 -0.00000000000E+00 -0.00000000000E+00 -0.51877265297E+03  0.51877265297E+03  0.00000000000E+00 0. -1.
         24    2    1    2    0    0 -0.32978647847E+02  0.47965576152E+02 -0.34907890771E+03  0.36281883386E+03  0.79957080242E+02 0.  0.
         23    2    1    2    0    0  0.75165616004E+02 -0.25504342055E+01 -0.11353819888E+03  0.16415186367E+03  0.91643533307E+02 0.  0.
        -13    1    3    3    0    0 -0.26524013052E+02  0.20898690658E+02 -0.39392954742E+02  0.51885291007E+02  0.00000000000E+00 0.  1.
         14    1    3    3    0    0 -0.64546347949E+01  0.27066885494E+02 -0.30968595297E+03  0.31093354285E+03  0.00000000000E+00 0. -1.
        -13    1    4    4    0    0  0.12600361830E+01 -0.21800249616E+02  0.56856879666E+01  0.22564698583E+02  0.00000000000E+00 0.  1.
         13    1    4    4    0    0  0.73905579821E+02  0.19249815410E+02 -0.11922388685E+03  0.14158716508E+03  0.00000000000E+00 0. -1.
          1    1    1    2  501    0 -0.42186968157E+02 -0.45415141946E+02  0.16080418705E+02  0.64037920531E+02  0.00000000000E+00 0. -1.
<scales pt_clust_5="13000.00000" pt_clust_6="13000.00000" pt_clust_7="13000.00000" pt_clust_8="13000.00000" pt_clust_9="61.98609"></scales>
<clustering>
<clus scale="   61.986">  1  9  2 -1</clus>
<clus scale="   79.957">  5  6 -1 -1</clus>
<clus scale="   91.644">  7  8 -1 -1</clus>
<clus scale="   98.084">  2  5  1 -1</clus>
<clus scale="   61.986">  1  5  2 -1</clus>
</clustering>
</event>
<event>
 9    2  0.9254368E-005  0.1078302E+03  0.7546771E-02  0.1269310E+00
         21   -1    0    0  501  502  0.00000000000E+00  0.00000000000E+00  0.16206935325E+03  0.16206935325E+03  0.00000000000E+00 0.  1.
          2   -1    0    0  502    0 -0.00000000000E+00 -0.00000000000E+00 -0.42195740855E+03  0.42195740855E+03  0.00000000000E+00 0. -1.
         23    2    1    2    0    0  0.26643955155E+02  0.49850939685E+02 -0.21901974885E+03  0.24364261437E+03  0.90537597816E+02 0.  0.
         24    2    1    2    0    0 -0.10379240091E+03 -0.32724557379E+02  0.10752568134E+03  0.17225927936E+03  0.79168984065E+02 0.  0.
        -11    1    4    4    0    0 -0.87085328026E+02  0.82132526645E+01  0.53856367191E+02  0.10272205296E+03  0.00000000000E+00 0.  1.
         12    1    4    4    0    0 -0.16707072883E+02 -0.40937810044E+02  0.53669314144E+02  0.69537226406E+02  0.00000000000E+00 0. -1.
        -11    1    3    3    0    0 -0.13503512356E+02  0.62914127558E+02 -0.13885003064E+03  0.15303549687E+03  0.00000000000E+00 0. -1.
         11    1    3    3    0    0  0.40147467511E+02 -0.13063187873E+02 -0.80169718208E+02  0.90607117505E+02  0.00000000000E+00 0.  1.
          1    1    1    2  501    0  0.77148445755E+02 -0.17126382305E+02 -0.14839398778E+03  0.16812486807E+03  0.00000000000E+00 0. -1.
<scales pt_clust_5="13000.00000" pt_clust_6="13000.00000" pt_clust_7="13000.00000" pt_clust_8="13000.00000" pt_clust_9="79.02659"></scales>
<clustering>
<clus scale="   79.027">  1  9  2 -1</clus>
<clus scale="   79.169">  5  6 -1 -1</clus>
<clus scale="   90.538">  7  8 -1 -1</clus>
<clus scale="   98.479">  1  5  2 -1</clus>
<clus scale="   79.027">  1  5  2 -1</clus>
</clustering>
</event>
<event>
 9    2  0.9254368E-005  0.2144119E+03  0.7546771E-02  0.1173112E+00
         -1   -1    0    0    0  501 -0.00000000000E+00  0.00000000000E+00  0.55504680418E+02  0.55504680418E+02  0.00000000000E+00 0.  1.
         21   -1    0    0  501  502  0.00000000000E+00 -0.00000000000E+00 -0.11846460274E+04  0.11846460274E+04  0.00000000000E+00 0.  1.
         23    2    1    2    0    0 -0.22189391457E+02  0.20225458709E+01 -0.26227944085E+03  0.27872666740E+03  0.91660188965E+02 0.  0.
         24    2    1    2    0    0  0.18789284405E+03 -0.92251270259E+02 -0.43135370043E+03  0.48680181787E+03  0.84237623981E+02 0.  0.
        -11    1    4    4    0    0  0.16044007197E+03 -0.10084685027E+03 -0.32102387284E+03  0.37278335644E+03  0.00000000000E+00 0.  1.
         12    1    4    4    0    0  0.27452772078E+02  0.85955800131E+01 -0.11032982759E+03  0.11401846142E+03  0.00000000000E+00 0. -1.
        -13    1    3    3    0    0 -0.56848745180E+02 -0.19185834172E+01 -0.12949848388E+03  0.14144015737E+03  0.00000000000E+00 0.  1.
         13    1    3    3    0    0  0.34659353723E+02  0.39411292881E+01 -0.13278095697E+03  0.13728651003E+03  0.00000000000E+00 0. -1.
         -2    1    1    2    0  502 -0.16570345259E+03  0.90228724388E+02 -0.43550820566E+03  0.47462222252E+03  0.00000000000E+00 0.  1.
<scales pt_clust_5="13000.00000" pt_clust_6="13000.00000" pt_clust_7="13000.00000" pt_clust_8="13000.00000" pt_clust_9="197.17126"></scales>
<clustering>
<clus scale="   84.238">  5  6 -1 -1</clus>
<clus scale="   91.660">  7  8 -1 -1</clus>
<clus scale="   94.330">  1  7  2 -1</clus>
<clus scale="  197.171">  2  9  1 -1</clus>
<clus scale="  197.171">  2  5  1 -1</clus>
</clustering>
</event>
<event>
 9    2  0.9254368E-005  0.1212941E+03  0.7546771E-02  0.1244545E+00
          2   -1    0    0  502    0 -0.00000000000E+00  0.00000000000E+00  0.64721942117E+03  0.64721942117E+03  0.00000000000E+00 0. -1.
         21   -1    0    0  501  502  0.00000000000E+00 -0.00000000000E+00 -0.79942160998E+02  0.79942160998E+02  0.00000000000E+00 0. -1.
         24    2    1    2    0    0 -0.74908038796E+02  0.29553516302E+02  0.57336981412E+03  0.58458974594E+03  0.80669713672E+02 0.  0.
         23    2    1    2    0    0  0.65487147766E+02 -0.17240213753E+01 -0.60459002917E+01  0.11319095550E+03  0.92109178286E+02 0.  0.
        -13    1    3    3    0    0 -0.16164460929E+01  0.39911356409E+02  0.19583520846E+03  0.19986735137E+03  0.00000000000E+00 0.  1.
         14    1    3    3    0    0 -0.73291592703E+02 -0.10357840107E+02  0.37753460566E+03  0.38472239457E+03  0.00000000000E+00 0. -1.
        -13    1    4    4    0    0  0.71716387502E+02  0.30426446897E+02 -0.14789885553E+02  0.79295331652E+02  0.00000000000E+00 0. -1.
         13    1    4    4    0    0 -0.62292397363E+01 -0.32150468272E+02  0.87439852616E+01  0.33895623848E+02  0.00000000000E+00 0.  1.
          1    1    1    2  501    0  0.94208910306E+01 -0.27829494926E+02 -0.46653664543E-01  0.29380880726E+02  0.00000000000E+00 0. -1.
<scales pt_clust_5="13000.00000" pt_clust_6="13000.00000" pt_clust_7="13000.00000" pt_clust_8="13000.00000" pt_clust_9="29.38084"></scales>
<clustering>
<clus scale="   29.381">  2  9  1 -1</clus>
<clus scale="   80.670">  5  6 -1 -1</clus>
<clus scale="   92.109">  7  8 -1 -1</clus>
<clus scale="  112.853">  1  5  2 -1</clus>
<clus scale="   29.381">  2  5  1 -1</clus>
</clustering>
</event>
<event>
 9    2  0.9254368E-005  0.4935810E+03  0.7546771E-02  0.1015577E+00
         21   -1    0    0  501  502  0.00000000000E+00  0.00000000000E+00  0.37088403616E+03  0.37088403616E+03  0.00000000000E+00 0. -1.
          2   -1    0    0  502    0 -0.00000000000E+00 -0.00000000000E+00 -0.18496160808E+04  0.18496160808E+04  0.00000000000E+00 0. -1.
         23    2    1    2    0    0 -0.12284143984E+03 -0.51737571814E+03 -0.15047702727E+04  0.15985148513E+04  0.90269060131E+02 0.  0.
         24    2    1    2    0    0  0.21608452016E+03  0.26473260050E+03 -0.26020298192E+01  0.35116598770E+03  0.80838794765E+02 0.  0.
        -13    1    4    4    0    0  0.51800037842E+02  0.12554654909E+03 -0.30308725960E+01  0.13584684795E+03  0.00000000000E+00 0.  1.
         14    1    4    4    0    0  0.16428448232E+03  0.13918605141E+03  0.42884277683E+00  0.21531913975E+03  0.00000000000E+00 0. -1.
        -13    1    3    3    0    0 -0.70514925992E+02 -0.43421691018E+03 -0.11865145958E+04  0.12654380925E+04  0.00000000000E+00 0. -1.
         13    1    3    3    0    0 -0.52326513850E+02 -0.83158807957E+02 -0.31825567688E+03  0.33307675881E+03  0.00000000000E+00 0.  1.
          1    1    1    2  501    0 -0.93243080318E+02  0.25264311764E+03  0.28640257916E+02  0.27081927791E+03  0.00000000000E+00 0. -1.
<scales pt_clust_5="13000.00000" pt_clust_6="13000.00000" pt_clust_7="13000.00000" pt_clust_8="13000.00000" pt_clust_9="269.30061"></scales>
<clustering>
<clus scale="   80.839">  5  6 -1 -1</clus>
<clus scale="   90.269">  7  8 -1 -1</clus>
<clus scale="  269.301">  1  9  2 -1</clus>
<clus scale="  491.944">  1  5  2 -1</clus>
<clus scale="  269.301">  1  5  2 -1</clus>
</clustering>
</event>
<event>
 9    2  0.9254368E-005  0.1285737E+03  0.7546771E-02  0.1248084E+00
         -3   -1    0    0    0  501 -0.00000000000E+00  0.00000000000E+00  0.45970492499E+03  0.45970492499E+03  0.00000000000E+00 0.  1.
         21   -1    0    0  501  502  0.00000000000E+00 -0.00000000000E+00 -0.10974702472E+03  0.10974702472E+03  0.00000000000E+00 0.  1.
         24    2    1    2    0    0  0.87298130100E+01 -0.35090980173E+02  0.33444544390E+03  0.34589125220E+03  0.80494825198E+02 0.  0.
         23    2    1    2    0    0 -0.40834013240E+02 -0.64197919939E+02  0.12877026439E+02  0.11917721773E+03  0.90821813757E+02 0.  0.
        -11    1    3    3    0    0 -0.24952959583E+01 -0.51816839838E+02  0.30955151688E+03  0.31386836890E+03  0.00000000000E+00 0.  1.
         12    1    3    3    0    0  0.11225108968E+02  0.16725859665E+02  0.24893927018E+02  0.32022883307E+02  0.00000000000E+00 0. -1.
        -13    1    4    4    0    0  0.26582444181E+02 -0.37459252785E+02  0.60944317427E+01  0.46335343487E+02  0.00000000000E+00 0. -1.
         13    1    4    4    0    0 -0.67416457421E+02 -0.26738667154E+02  0.67825946959E+01  0.72841874243E+02  0.00000000000E+00 0.  1.
         -4    1    1    2    0  502  0.32104200230E+02  0.99288900111E+02  0.26354299366E+01  0.10438347977E+03  0.00000000000E+00 0.  1.
<scales pt_clust_5="13000.00000" pt_clust_6="13000.00000" pt_clust_7="13000.00000" pt_clust_8="13000.00000" pt_clust_9="91.00887"></scales>
<clustering>
<clus scale="   80.495">  5  6 -1 -1</clus>
<clus scale="   88.244">  1  5  2 -1</clus>
<clus scale="   90.822">  7  8 -1 -1</clus>
<clus scale="   91.009">  2  9  1 -1</clus>
<clus scale="   91.009">  2  5  1 -1</clus>
</clustering>
</event>
<event>
 9    2  0.9254368E-005  0.9049480E+02  0.7546771E-02  0.1313249E+00
         -3   -1    0    0    0  501 -0.00000000000E+00  0.00000000000E+00  0.15414855998E+03  0.15414855998E+03  0.00000000000E+00 0.  1.
         21   -1    0    0  501  502  0.00000000000E+00 -0.00000000000E+00 -0.12839659782E+03  0.12839659782E+03  0.00000000000E+00 0. -1.
         24    2    1    2    0    0 -0.69946635857E+01  0.43248675200E+01  0.90351811493E+02  0.11653492925E+03  0.73138977963E+02 0.  0.
         23    2    1    2    0    0 -0.16096249784E+02  0.38630149559E+02 -0.23770580179E+02  0.10240713906E+03  0.90392499334E+02 0.  0.
        -13    1    3    3    0    0 -0.16397891415E+02  0.27086553722E+02  0.85845187669E+02  0.91498461634E+02  0.00000000000E+00 0.  1.
         14    1    3    3    0    0  0.94032278298E+01 -0.22761686202E+02  0.45066238240E+01  0.25036467616E+02  0.00000000000E+00 0. -1.
        -13    1    4    4    0    0 -0.47456848221E+02  0.16254479652E+02  0.10030195371E+02  0.51156283788E+02  0.00000000000E+00 0.  1.
         13    1    4    4    0    0  0.31360598437E+02  0.22375669907E+02 -0.33800775550E+02  0.51250855270E+02  0.00000000000E+00 0. -1.
         -4    1    1    2    0  502  0.23090913370E+02 -0.42955017079E+02 -0.40829269164E+02  0.63603089492E+02  0.00000000000E+00 0.  1.
<scales pt_clust_5="13000.00000" pt_clust_6="13000.00000" pt_clust_7="13000.00000" pt_clust_8="13000.00000" pt_clust_9="48.76806"></scales>
<clustering>
<clus scale="   48.768">  2  9  1 -1</clus>
<clus scale="   73.139">  5  6 -1 -1</clus>
<clus scale="   73.265">  1  5  2 -1</clus>
<clus scale="   90.392">  7  8 -1 -1</clus>
<clus scale="   48.768">  2  5  1 -1</clus>
</clustering>
</event>
<event>
 9    2  0.9254368E-005  0.1217330E+03  0.7546771E-02  0.1242811E+00
          2   -1    0    0  502    0 -0.00000000000E+00  0.00000000000E+00  0.37432632677E+03  0.37432632677E+03  0.00000000000E+00 0. -1.
         21   -1    0    0  501  502  0.00000000000E+00 -0.00000000000E+00 -0.12100832346E+03  0.12100832346E+03  0.00000000000E+00 0. -1.
         24    2    1    2    0    0  0.26696918149E+02 -0.54614628207E+02  0.13514508371E+03  0.16842858839E+03  0.80053186576E+02 0.  0.
         23    2    1    2    0    0  0.95674768076E+00  0.13549255824E+03  0.16353688142E+03  0.23013905387E+03  0.88659595231E+02 0.  0.
        -13    1    3    3    0    0 -0.10551698306E+02 -0.17619474875E+02  0.10681962172E+03  0.10877598916E+03  0.00000000000E+00 0.  1.
         14    1    3    3    0    0  0.37248616455E+02 -0.36995153332E+02  0.28325461991E+02  0.59652599230E+02  0.00000000000E+00 0. -1.
        -11    1    4    4    0    0  0.37407892872E+02  0.54424261285E+02  0.10385894758E+03  0.12307734015E+03  0.00000000000E+00 0.  1.
         11    1    4    4    0    0 -0.36451145191E+02  0.81068296957E+02  0.59677933832E+02  0.10706171372E+03  0.00000000000E+00 0. -1.
          1    1    1    2  501    0 -0.27653665830E+02 -0.80877930035E+02 -0.45363961821E+02  0.96767007976E+02  0.00000000000E+00 0. -1.
<scales pt_clust_5="13000.00000" pt_clust_6="13000.00000" pt_clust_7="13000.00000" pt_clust_8="13000.00000" pt_clust_9="85.47494"></scales>
<clustering>
<clus scale="   80.053">  5  6 -1 -1</clus>
<clus scale="   85.475">  2  9  1 -1</clus>
<clus scale="   88.660">  7  8 -1 -1</clus>
<clus scale="  115.615">  1  5  2 -1</clus>
<clus scale="   85.475">  2  5  1 -1</clus>
</clustering>
</event>
<event>
 9    2  0.9254368E-005  0.9499116E+02  0.7546771E-02  0.1297417E+00
          2   -1    0    0  502    0 -0.00000000000E+00  0.00000000000E+00  0.43391852849E+02  0.43391852849E+02  0.00000000000E+00 0. -1.
         21   -1    0    0  501  502  0.00000000000E+00 -0.00000000000E+00 -0.33283726400E+03  0.33283726400E+03  0.00000000000E+00 0.  1.
         24    2    1    2    0    0 -0.18532451815E+02  0.22974787295E+02 -0.10443396054E+03  0.13450646549E+03  0.79462220725E+02 0.  0.
         23    2    1    2    0    0  0.36877930629E+02  0.65882838634E+00 -0.18779596508E+03  0.21167505739E+03  0.90435554944E+02 0.  0.
        -13    1    3    3    0    0  0.24779299969E+02 -0.51032700509E+01 -0.64377971418E+02  0.69170660515E+02  0.00000000000E+00 0.  1.
         14    1    3    3    0    0 -0.43311751784E+02  0.28078057346E+02 -0.40055989118E+02  0.65335804970E+02  0.00000000000E+00 0. -1.
        -11    1    4    4    0    0 -0.25402956992E+02 -0.19618780686E+02 -0.65632941091E+02  0.73060863229E+02  0.00000000000E+00 0. -1.
         11    1    4    4    0    0  0.62280887621E+02  0.20277609072E+02 -0.12216302399E+03  0.13861419416E+03  0.00000000000E+00 0.  1.
          1    1    1    2  501    0 -0.18345478814E+02 -0.23633615682E+02  0.27845144602E+01  0.30047593978E+02  0.00000000000E+00 0. -1.
<scales pt_clust_5="13000.00000" pt_clust_6="13000.00000" pt_clust_7="13000.00000" pt_clust_8="13000.00000" pt_clust_9="29.91831"></scales>
<clustering>
<clus scale="   29.918">  2  9  1 -1</clus>
<clus scale="   79.462">  5  6 -1 -1</clus>
<clus scale="   84.611">  1  5  2 -1</clus>
<clus scale="   90.436">  7  8 -1 -1</clus>
<clus scale="   29.918">  2  5  1 -1</clus>
</clustering>
</event>
<event>
 9    2  0.9254368E-005  0.1106180E+03  0.7546771E-02  0.1263115E+00
         -1   -1    0    0    0  501 -0.00000000000E+00  0.00000000000E+00  0.37319558549E+03  0.37319558549E+03  0.00000000000E+00 0.  1.
         21   -1    0    0  501  502  0.00000000000E+00 -0.00000000000E+00 -0.11180806651E+03  0.11180806651E+03  0.00000000000E+00 0.  1.
         23    2    1    2    0    0  0.43728275080E+02 -0.56933388922E+02  0.28923994758E+03  0.31180080150E+03  0.91686529674E+02 0.  0.
         24    2    1    2    0    0 -0.35667585454E+02 -0.20053535054E+02 -0.27252766883E+02  0.95792768633E+02  0.82214477432E+02 0.  0.
        -13    1    4    4    0    0 -0.56701512988E+02  0.57259127705E+01 -0.25612171499E+02  0.62480644852E+02  0.00000000000E+00 0.  1.
         14    1    4    4    0    0  0.21033927534E+02 -0.25779447825E+02 -0.16405953833E+01  0.33312123782E+02  0.00000000000E+00 0. -1.
        -11    1    3    3    0    0  0.82912712922E+01  0.25434408896E+02  0.69394195750E+02  0.74372096510E+02  0.00000000000E+00 0. -1.
         11    1    3    3    0    0  0.35437003788E+02 -0.82367797818E+02  0.21984575183E+03  0.23742870499E+03  0.00000000000E+00 0.  1.
         -2    1    1    2    0  502 -0.80606896262E+01  0.76986923976E+02 -0.59966171946E+00  0.77410081868E+02  0.00000000000E+00 0.  1.
<scales pt_clust_5="13000.00000" pt_clust_6="13000.00000" pt_clust_7="13000.00000" pt_clust_8="13000.00000" pt_clust_9="77.40776"></scales>
<clustering>
<clus scale="   77.408">  2  9  1 -1</clus>
<clus scale="   82.214">  5  6 -1 -1</clus>
<clus scale="   91.687">  7  8 -1 -1</clus>
<clus scale="  102.904">  2  5  1 -1</clus>
<clus scale="   77.408">  2  5  1 -1</clus>
</clustering>
</event>
<event>
 9    2  0.9254368E-005  0.1036342E+03  0.7546771E-02  0.1276483E+00
         21   -1    0    0  501  502  0.00000000000E+00  0.00000000000E+00  0.21367279225E+03  0.21367279225E+03  0.00000000000E+00 0.  1.
          2   -1    0    0  502    0 -0.00000000000E+00 -0.00000000000E+00 -0.45059281720E+03  0.45059281720E+03  0.00000000000E+00 0. -1.
         23    2    1    2    0    0 -0.20448075665E+02 -0.49338235679E+02 -0.39030623271E+03  0.40368460976E+03  0.88147169890E+02 0.  0.
         24    2    1    2    0    0  0.50266642834E+02  0.72806524644E+02  0.17883924895E+03  0.21488893429E+03  0.79788794341E+02 0.  0.
        -13    1    4    4    0    0  0.65870836435E+02  0.76774359504E+02  0.13895265002E+03  0.17187526965E+03  0.00000000000E+00 0.  1.
         14    1    4    4    0    0 -0.15604193601E+02 -0.39678348608E+01  0.39886598929E+02  0.43013664637E+02  0.00000000000E+00 0. -1.
        -11    1    3    3    0    0 -0.44957279519E+02 -0.46004145761E+02 -0.35372374456E+03  0.35952472220E+03  0.00000000000E+00 0. -1.
         11    1    3    3    0    0  0.24509203854E+02 -0.33340899179E+01 -0.36582488152E+02  0.44159887552E+02  0.00000000000E+00 0.  1.
          1    1    1    2  501    0 -0.29818567169E+02 -0.23468288965E+02 -0.25453041183E+02  0.45692065399E+02  0.00000000000E+00 0. -1.
<scales pt_clust_5="13000.00000" pt_clust_6="13000.00000" pt_clust_7="13000.00000" pt_clust_8="13000.00000" pt_clust_9="37.94613"></scales>
<clustering>
<clus scale="   37.946">  1  9  2 -1</clus>
<clus scale="   79.789">  5  6 -1 -1</clus>
<clus scale="   88.147">  7  8 -1 -1</clus>
<clus scale="   96.625">  1  5  2 -1</clus>
<clus scale="   37.946">  1  5  2 -1</clus>
</clustering>
</event>
<event>
 9    2  0.9254368E-005  0.2103666E+03  0.7546771E-02  0.1165460E+00
          2   -1    0    0  502    0 -0.00000000000E+00  0.00000000000E+00  0.28810799051E+04  0.28810799051E+04  0.00000000000E+00 0. -1.
         21   -1    0    0  501  502  0.00000000000E+00 -0.00000000000E+00 -0.64093364971E+02  0.64093364971E+02  0.00000000000E+00 0.  1.
         24    2    1    2    0    0  0.51787726498E+02  0.71152846095E+02  0.70454568374E+03  0.71452614399E+03  0.80114254930E+02 0.  0.
         23    2    1    2    0    0  0.11286697885E+02  0.18145610122E+03  0.15565053672E+03  0.25661115416E+03  0.92566131181E+02 0.  0.
        -11    1    3    3    0    0  0.24053503278E+02  0.61718721634E+02  0.23755224691E+03  0.24661476361E+03  0.00000000000E+00 0.  1.
         12    1    3    3    0    0  0.27734223220E+02  0.94341244601E+01  0.46699343683E+03  0.46791138038E+03  0.00000000000E+00 0. -1.
        -11    1    4    4    0    0 -0.35681962991E+01  0.11692988898E+03  0.14990326006E+03  0.19014814840E+03  0.00000000000E+00 0. -1.
         11    1    4    4    0    0  0.14854894184E+02  0.64526212235E+02  0.57472766607E+01  0.66463005767E+02  0.00000000000E+00 0.  1.
          1    1    1    2  501    0 -0.63074424383E+02 -0.25260894731E+03  0.19567903196E+04  0.19740359719E+04  0.00000000000E+00 0. -1.
<scales pt_clust_5="13000.00000" pt_clust_6="13000.00000" pt_clust_7="13000.00000" pt_clust_8="13000.00000" pt_clust_9="188.90642"></scales>
<clustering>
<clus scale="   80.114">  5  6 -1 -1</clus>
<clus scale="   92.566">  7  8 -1 -1</clus>
<clus scale="  119.008">  1  5  2 -1</clus>
<clus scale="  188.906">  2  9  1 -1</clus>
<clus scale="  188.906">  2  5  1 -1</clus>
</clustering>
</event>
<event>
 9    2  0.9254368E-005  0.1431458E+03  0.7546771E-02  0.1211004E+00
         21   -1    0    0  501  502  0.00000000000E+00  0.00000000000E+00  0.18150364686E+03  0.18150364686E+03  0.00000000000E+00 0.  1.
         -1   -1    0    0    0  501 -0.00000000000E+00 -0.00000000000E+00 -0.31701702789E+03  0.31701702789E+03  0.00000000000E+00 0.  1.
         24    2    1    2    0    0  0.41131649233E+02  0.90905425529E+02 -0.10333903626E+03  0.16475782014E+03  0.80688127518E+02 0.  0.
         23    2    1    2    0    0 -0.11400934310E+02 -0.17036752216E+03  0.66099989318E+02  0.20393225364E+03  0.89800231486E+02 0.  0.
        -11    1    3    3    0    0  0.30568559308E+02  0.97261890114E+02 -0.56995149380E+02  0.11680222232E+03  0.00000000000E+00 0.  1.
         12    1    3    3    0    0  0.10563089925E+02 -0.63564645849E+01 -0.46343886877E+02  0.47955597813E+02  0.00000000000E+00 0. -1.
        -11    1    4    4    0    0 -0.65736639986E+01 -0.14922850058E+03  0.17099716106E+02  0.15034879026E+03  0.00000000000E+00 0.  1.
         11    1    4    4    0    0 -0.48272703113E+01 -0.21139021585E+02  0.49000273212E+02  0.53583463373E+02  0.00000000000E+00 0. -1.
         -2    1    1    2    0  502 -0.29730714923E+02  0.79462096631E+02 -0.98274334090E+02  0.12983060098E+03  0.00000000000E+00 0.  1.
<scales pt_clust_5="13000.00000" pt_clust_6="13000.00000" pt_clust_7="13000.00000" pt_clust_8="13000.00000" pt_clust_9="84.84190"></scales>
<clustering>
<clus scale="   80.688">  5  6 -1 -1</clus>
<clus scale="   84.842">  1  9  2 -1</clus>
<clus scale="   89.800">  7  8 -1 -1</clus>
<clus scale="  137.613">  2  5  1 -1</clus>
<clus scale="   84.842">  1  5  2 -1</clus>
</clustering>
</event>
<event>
 9    2  0.9254368E-005  0.1047762E+03  0.7546771E-02  0.1275466E+00
          2   -1    0    0  502    0 -0.00000000000E+00  0.00000000000E+00  0.12334781490E+04  0.12334781490E+04  0.00000000000E+00 0. -1.
         21   -1    0    0  501  502  0.00000000000E+00 -0.00000000000E+00 -0.20177961401E+02  0.20177961401E+02  0.00000000000E+00 0. -1.
         24    2    1    2    0    0 -0.30212653505E+02  0.28923212316E+02  0.98179555797E+03  0.98656893387E+03  0.87443621742E+02 0.  0.
         23    2    1    2    0    0  0.99471119760E+01 -0.83343937588E+01  0.14038918371E+03  0.17150152851E+03  0.97648575111E+02 0.  0.
        -11    1    3    3    0    0 -0.56669199220E+01 -0.22891362875E+02  0.93610085781E+02  0.96534846743E+02  0.00000000000E+00 0.  1.
         12    1    3    3    0    0 -0.24545733583E+02  0.51814575192E+02  0.88818547219E+03  0.89003408712E+03  0.00000000000E+00 0. -1.
        -13    1    4    4    0    0  0.39253433412E+02 -0.38492285143E+02  0.93937894869E+02  0.10884308036E+03  0.00000000000E+00 0.  1.
         13    1    4    4    0    0 -0.29306321436E+02  0.30157891384E+02  0.46451288840E+02  0.62658448144E+02  0.00000000000E+00 0. -1.
          1    1    1    2  501    0  0.20265541529E+02 -0.20588818558E+02  0.91115445896E+02  0.95585648001E+02  0.00000000000E+00 0. -1.
<scales pt_clust_5="13000.00000" pt_clust_6="13000.00000" pt_clust_7="13000.00000" pt_clust_8="13000.00000" pt_clust_9="28.88930"></scales>
<clustering>
<clus scale="   28.889">  2  9  1 -1</clus>
<clus scale="   87.444">  5  6 -1 -1</clus>
<clus scale="   95.337">  1  5  2 -1</clus>
<clus scale="   97.649">  7  8 -1 -1</clus>
<clus scale="   28.889">  2  5  1 -1</clus>
</clustering>
</event>
<event>
 9    2  0.9254368E-005  0.2396879E+03  0.7546771E-02  0.1150286E+00
         21   -1    0    0  501  502  0.00000000000E+00  0.00000000000E+00  0.26380041356E+03  0.26380041356E+03  0.00000000000E+00 0.  1.
          2   -1    0    0  502    0 -0.00000000000E+00 -0.00000000000E+00 -0.43520456517E+03  0.43520456517E+03  0.00000000000E+00 0. -1.
         23    2    1    2    0    0 -0.34806930093E+02 -0.57768942743E+02  0.86565609596E+02  0.14369777397E+03  0.92772152880E+02 0.  0.
         24    2    1    2    0    0 -0.39011533350E+02 -0.19831491610E+03 -0.68814496989E+02  0.22849254432E+03  0.81379986067E+02 0.  0.
        -13    1    4    4    0    0  0.25001522301E+02 -0.48972000996E+02 -0.23596562000E+02  0.59834193712E+02  0.00000000000E+00 0.  1.
         14    1    4    4    0    0 -0.64013055651E+02 -0.14934291510E+03 -0.45217934988E+02  0.16865835061E+03  0.00000000000E+00 0. -1.
        -11    1    3    3    0    0 -0.48473669612E+02 -0.27810204294E+01  0.11941430537E+02  0.50000284834E+02  0.00000000000E+00 0. -1.
         11    1    3    3    0    0  0.13666739518E+02 -0.54987922313E+02  0.74624179059E+02  0.93697489132E+02  0.00000000000E+00 0.  1.
          1    1    1    2  501    0  0.73818463443E+02  0.25608385884E+03 -0.18915526421E+03  0.32681466045E+03  0.00000000000E+00 0. -1.
<scales pt_clust_5="13000.00000" pt_clust_6="13000.00000" pt_clust_7="13000.00000" pt_clust_8="13000.00000" pt_clust_9="225.44983"></scales>
<clustering>
<clus scale="   81.380">  5  6 -1 -1</clus>
<clus scale="   92.772">  7  8 -1 -1</clus>
<clus scale="  114.697">  2  7  1 -1</clus>
<clus scale="  225.450">  1  9  2 -1</clus>
<clus scale="  225.450">  1  5  2 -1</clus>
</clustering>
</event>
<event>
 9    2  0.9254368E-005  0.9371955E+02  0.7546771E-02  0.1301251E+00
         21   -1    0    0  501  502  0.00000000000E+00  0.00000000000E+00  0.65499845290E+02  0.65499845290E+02  0.00000000000E+00 0. -1.
          2   -1    0    0  502    0 -0.00000000000E+00 -0.00000000000E+00 -0.60452929018E+03  0.60452929018E+03  0.00000000000E+00 0. -1.
         24    2    1    2    0    0 -0.18033512553E+02 -0.51784777004E+01 -0.44410927850E+03  0.45169276759E+03  0.80257590558E+02 0.  0.
         23    2    1    2    0    0  0.14007662217E+02 -0.20390823530E+02 -0.13819019577E+03  0.16791522074E+03  0.92124865612E+02 0.  0.
        -11    1    3    3    0    0 -0.20580388037E+02  0.19139790304E+02 -0.54527011385E+02  0.61343939515E+02  0.00000000000E+00 0.  1.
         12    1    3    3    0    0  0.25468754837E+01 -0.24318268005E+02 -0.38958226711E+03  0.39034882808E+03  0.00000000000E+00 0. -1.
        -11    1    4    4    0    0  0.47009946041E+02  0.12548498006E+02 -0.66626708583E+02  0.82501624988E+02  0.00000000000E+00 0. -1.
         11    1    4    4    0    0 -0.33002283824E+02 -0.32939321536E+02 -0.71563487190E+02  0.85413595754E+02  0.00000000000E+00 0.  1.
          1    1    1    2  501    0  0.40258503363E+01  0.25569301230E+02  0.43270029377E+02  0.50421147137E+02  0.00000000000E+00 0. -1.
<scales pt_clust_5="13000.00000" pt_clust_6="13000.00000" pt_clust_7="13000.00000" pt_clust_8="13000.00000" pt_clust_9="25.88429"></scales>
<clustering>
<clus scale="   25.884">  1  9  2 -1</clus>
<clus scale="   80.258">  5  6 -1 -1</clus>
<clus scale="   82.083">  2  5  1 -1</clus>
<clus scale="   92.125">  7  8 -1 -1</clus>
<clus scale="   25.884">  1  5  2 -1</clus>
</clustering>
</event>
<event>
 9    2  0.9254368E-005  0.1588849E+03  0.7546771E-02  0.1215580E+00
          2   -1    0    0  502    0 -0.00000000000E+00  0.00000000000E+00  0.28207788217E+03  0.28207788217E+03  0.00000000000E+00 0. -1.
         21   -1    0    0  501  502  0.00000000000E+00 -0.00000000000E+00 -0.16167379816E+03  0.16167379816E+03  0.00000000000E+00 0. -1.
         24    2    1    2    0    0  0.23261290208E+02 -0.36278870295E+02  0.11133616867E+03  0.14399347764E+03  0.80505497314E+02 0.  0.
         23    2    1    2    0    0  0.78056212562E+02  0.11229321846E+03 -0.31168220162E+02  0.16685837540E+03  0.90375440582E+02 0.  0.
        -13    1    3    3    0    0 -0.28152361262E+02  0.21326372531E+00  0.31103418372E+02  0.41952634726E+02  0.00000000000E+00 0.  1.
         14    1    3    3    0    0  0.51413651471E+02 -0.36492134021E+02  0.80232750296E+02  0.10204084292E+03  0.00000000000E+00 0. -1.
        -13    1    4    4    0    0  0.21336509617E+02  0.13357175409E+02  0.28603124055E+02  0.38102486576E+02  0.00000000000E+00 0.  1.
         13    1    4    4    0    0  0.56719702946E+02  0.98936043049E+02 -0.59771344217E+02  0.12875588882E+03  0.00000000000E+00 0. -1.
          1    1    1    2  501    0 -0.10131750277E+03 -0.76014348163E+02  0.40236135509E+02  0.13289982729E+03  0.00000000000E+00 0. -1.
<scales pt_clust_5="13000.00000" pt_clust_6="13000.00000" pt_clust_7="13000.00000" pt_clust_8="13000.00000" pt_clust_9="130.67794"></scales>
<clustering>
<clus scale="   80.505">  5  6 -1 -1</clus>
<clus scale="   90.375">  7  8 -1 -1</clus>
<clus scale="   91.315">  1  5  2 -1</clus>
<clus scale="  130.678">  2  9  1 -1</clus>
<clus scale="  130.678">  2  5  1 -1</clus>
</clustering>
</event>
<event>
 9    2  0.9254368E-005  0.1232374E+03  0.7546771E-02  0.1241966E+00
          2   -1    0    0  502    0 -0.00000000000E+00  0.00000000000E+00  0.10835803955E+04  0.10835803955E+04  0.00000000000E+00 0. -1.
         21   -1    0    0  501  502  0.00000000000E+00 -0.00000000000E+00 -0.19960629549E+02  0.19960629549E+02  0.00000000000E+00 0.  1.
         24    2    1    2    0    0  0.77769327486E+02 -0.40315065753E+02  0.55133551227E+03  0.56363299089E+03  0.77704108663E+02 0.  0.
         23    2    1    2    0    0 -0.47016658182E+02  0.61724941916E+02  0.28007929348E+03  0.30469907810E+03  0.91523674317E+02 0.  0.
        -11    1    3    3    0    0  0.91563547816E+02 -0.22232946874E+02  0.45420568354E+03  0.46387605044E+03  0.00000000000E+00 0.  1.
         12    1    3    3    0    0 -0.13794220330E+02 -0.18082118879E+02  0.97129828730E+02  0.99756940445E+02  0.00000000000E+00 0. -1.
        -11    1    4    4    0    0 -0.53035559106E+02  0.54638436719E+00  0.85258026470E+02  0.10040916364E+03  0.00000000000E+00 0.  1.
         11    1    4    4    0    0  0.60189009238E+01  0.61178557549E+02  0.19482126701E+03  0.20428991446E+03  0.00000000000E+00 0. -1.
          1    1    1    2  501    0 -0.30752669303E+02 -0.21409876163E+02  0.23220496016E+03  0.23520895602E+03  0.00000000000E+00 0. -1.
<scales pt_clust_5="13000.00000" pt_clust_6="13000.00000" pt_clust_7="13000.00000" pt_clust_8="13000.00000" pt_clust_9="37.47147"></scales>
<clustering>
<clus scale="   37.471">  2  9  1 -1</clus>
<clus scale="   77.704">  5  6 -1 -1</clus>
<clus scale="   91.524">  7  8 -1 -1</clus>
<clus scale="  113.353">  1  5  2 -1</clus>
<clus scale="   37.471">  2  5  1 -1</clus>
</clustering>
</event>
<event>
 9    2  0.9254368E-005  0.1019443E+03  0.7546771E-02  0.1281357E+00
         -1   -1    0    0    0  501 -0.00000000000E+00  0.00000000000E+00  0.14098010229E+03  0.14098010229E+03  0.00000000000E+00 0.  1.
         21   -1    0    0  501  502  0.00000000000E+00 -0.00000000000E+00 -0.38609616843E+03  0.38609616843E+03  0.00000000000E+00 0.  1.
         24    2    1    2    0    0 -0.13934638731E+02  0.49006729989E+02  0.10399072029E+03  0.14104076321E+03  0.80514552966E+02 0.  0.
         23    2    1    2    0    0 -0.16577592429E+02 -0.98203157700E+01 -0.12186789793E+03  0.15343266196E+03  0.91206041669E+02 0.  0.
        -11    1    3    3    0    0 -0.26072471041E+02  0.55028835352E+02  0.11037846796E+03  0.12606090852E+03  0.00000000000E+00 0.  1.
         12    1    3    3    0    0  0.12137832310E+02 -0.60221053633E+01 -0.63877476741E+01  0.14979854690E+02  0.00000000000E+00 0. -1.
        -13    1    4    4    0    0 -0.51285353484E+02 -0.44910778501E+01 -0.42913385486E+02  0.67021757035E+02  0.00000000000E+00 0.  1.
         13    1    4    4    0    0  0.34707761054E+02 -0.53292379199E+01 -0.78954512447E+02  0.86410904925E+02  0.00000000000E+00 0. -1.
         -2    1    1    2    0  502  0.30512231161E+02 -0.39186414219E+02 -0.22723888850E+03  0.23260284554E+03  0.00000000000E+00 0.  1.
<scales pt_clust_5="13000.00000" pt_clust_6="13000.00000" pt_clust_7="13000.00000" pt_clust_8="13000.00000" pt_clust_9="49.66459"></scales>
<clustering>
<clus scale="   49.665">  2  9  1 -1</clus>
<clus scale="   80.515">  5  6 -1 -1</clus>
<clus scale="   91.206">  7  8 -1 -1</clus>
<clus scale="   92.502">  1  5  2 -1</clus>
<clus scale="   49.665">  2  5  1 -1</clus>
</clustering>
</event>
<event>
 9    2  0.9254368E-005  0.1867947E+03  0.7546771E-02  0.1189284E+00
          4   -1    0    0  502    0 -0.00000000000E+00  0.00000000000E+00  0.90448931479E+02  0.90448931479E+02  0.00000000000E+00 0. -1.
         21   -1    0    0  501  502  0.00000000000E+00 -0.00000000000E+00 -0.68757470666E+03  0.68757470666E+03  0.00000000000E+00 0. -1.
         23    2    1    2    0    0 -0.24836721888E+02 -0.31542594662E+02 -0.62127764180E+02  0.11709289017E+03  0.90769421144E+02 0.  0.
         24    2    1    2    0    0 -0.10411671655E+03 -0.11556013381E+03 -0.35165855531E+03  0.39282338510E+03  0.80324573879E+02 0.  0.
        -13    1    4    4    0    0 -0.51529348146E+02 -0.10950036248E+02 -0.15768826569E+03  0.16625512368E+03  0.00000000000E+00 0.  1.
         14    1    4    4    0    0 -0.52587368407E+02 -0.10461009756E+03 -0.19397028961E+03  0.22656826142E+03  0.00000000000E+00 0. -1.
        -11    1    3    3    0    0 -0.56685433203E+02 -0.33190425765E+02 -0.31399001855E+02  0.72806181175E+02  0.00000000000E+00 0. -1.
         11    1    3    3    0    0  0.31848711315E+02  0.16478311026E+01 -0.30728762326E+02  0.44286708997E+02  0.00000000000E+00 0.  1.
          3    1    1    2  501    0  0.12895343844E+03  0.14710272847E+03 -0.18333945569E+03  0.26810736287E+03  0.00000000000E+00 0. -1.
<scales pt_clust_5="13000.00000" pt_clust_6="13000.00000" pt_clust_7="13000.00000" pt_clust_8="13000.00000" pt_clust_9="168.64236"></scales>
<clustering>
<clus scale="   80.325">  5  6 -1 -1</clus>
<clus scale="   90.769">  7  8 -1 -1</clus>
<clus scale="   99.252">  1  7  2 -1</clus>
<clus scale="  168.642">  2  9  1 -1</clus>
<clus scale="  168.642">  2  5  1 -1</clus>
</clustering>
</event>
<event>
 9    2  0.9254368E-005  0.1306664E+03  0.7546771E-02  0.1228581E+00
         21   -1    0    0  501  502  0.00000000000E+00  0.00000000000E+00  0.35702434594E+02  0.35702434594E+02  0.00000000000E+00 0. -1.
          2   -1    0    0  502    0 -0.00000000000E+00 -0.00000000000E+00 -0.10110419309E+04  0.10110419309E+04  0.00000000000E+00 0. -1.
         24    2    1    2    0    0 -0.60122050506E+02 -0.52439880948E+02 -0.35872346993E+03  0.37677047701E+03  0.83119566860E+02 0.  0.
         23    2    1    2    0    0  0.74321953206E+02  0.11041201861E+03 -0.24367531032E+03  0.29228726750E+03  0.91321537977E+02 0.  0.
        -13    1    3    3    0    0  0.19981109074E+02 -0.41439028985E+01 -0.88302967409E+02  0.90630186496E+02  0.00000000000E+00 0.  1.
         14    1    3    3    0    0 -0.80103159579E+02 -0.48295978050E+02 -0.27042050252E+03  0.28614029051E+03  0.00000000000E+00 0. -1.
        -13    1    4    4    0    0  0.86261376642E+02  0.72225712145E+02 -0.13078893044E+03  0.17252050000E+03  0.00000000000E+00 0. -1.
         13    1    4    4    0    0 -0.11939423437E+02  0.38186306469E+02 -0.11288637988E+03  0.11976676750E+03  0.00000000000E+00 0.  1.
          1    1    1    2  501    0 -0.14199902700E+02 -0.57972137665E+02 -0.37294071608E+03  0.37768662101E+03  0.00000000000E+00 0. -1.
<scales pt_clust_5="13000.00000" pt_clust_6="13000.00000" pt_clust_7="13000.00000" pt_clust_8="13000.00000" pt_clust_9="59.68592"></scales>
<clustering>
<clus scale="   59.686">  1  9  2 -1</clus>
<clus scale="   83.120">  5  6 -1 -1</clus>
<clus scale="   91.322">  7  8 -1 -1</clus>
<clus scale="  125.072">  2  5  1 -1</clus>
<clus scale="   59.686">  1  5  2 -1</clus>
</clustering>
</event>
<event>
 9    2  0.9254368E-005  0.1642294E+03  0.7546771E-02  0.1204457E+00
          2   -1    0    0  502    0 -0.00000000000E+00  0.00000000000E+00  0.29267559709E+03  0.29267559709E+03  0.00000000000E+00 0. -1.
         21   -1    0    0  501  502  0.00000000000E+00 -0.00000000000E+00 -0.25044827673E+03  0.25044827673E+03  0.00000000000E+00 0.  1.
         24    2    1    2    0    0  0.12563307522E+02  0.64684502054E+02  0.13197348615E+03  0.16855766202E+03  0.81564470676E+02 0.  0.
         23    2    1    2    0    0  0.78755724402E+02  0.93087747422E+02 -0.11537157390E+03  0.19047952071E+03  0.90022524401E+02 0.  0.
        -11    1    3    3    0    0 -0.18220127236E+02 -0.11069983407E+02  0.15999965624E+02  0.26655514797E+02  0.00000000000E+00 0.  1.
         12    1    3    3    0    0  0.30783434758E+02  0.75754485461E+02  0.11597352052E+03  0.14190214722E+03  0.00000000000E+00 0. -1.
        -13    1    4    4    0    0  0.53128719523E+02  0.10083501386E+03 -0.11740681972E+03  0.16362983278E+03  0.00000000000E+00 0.  1.
         13    1    4    4    0    0  0.25627004879E+02 -0.77472664403E+01  0.20352458206E+01  0.26849687930E+02  0.00000000000E+00 0. -1.
          1    1    1    2  501    0 -0.91319031925E+02 -0.15777224948E+03  0.25625408114E+02  0.18408669109E+03  0.00000000000E+00 0. -1.
<scales pt_clust_5="13000.00000" pt_clust_6="13000.00000" pt_clust_7="13000.00000" pt_clust_8="13000.00000" pt_clust_9="137.35818"></scales>
<clustering>
<clus scale="   81.564">  5  6 -1 -1</clus>
<clus scale="   90.023">  7  8 -1 -1</clus>
<clus scale="  104.856">  1  5  2 -1</clus>
<clus scale="  137.358">  2  9  1 -1</clus>
<clus scale="  137.358">  2  5  1 -1</clus>
</clustering>
</event>
<event>
 9    2  0.9254368E-005  0.1051578E+03  0.7546771E-02  0.1276263E+00
         -3   -1    0    0    0  501 -0.00000000000E+00  0.00000000000E+00  0.80330588405E+03  0.80330588405E+03  0.00000000000E+00 0.  1.
         21   -1    0    0  501  502  0.00000000000E+00 -0.00000000000E+00 -0.21243021202E+02  0.21243021202E+02  0.00000000000E+00 0. -1.
         24    2    1    2    0    0 -0.49974967232E+02 -0.58247108582E+01  0.58516610905E+03  0.59286957884E+03  0.80892136377E+02 0.  0.
         23    2    1    2    0    0  0.27290287400E+02  0.47278198170E+01  0.14985059297E+03  0.17943816335E+03  0.94740393640E+02 0.  0.
        -11    1    3    3    0    0 -0.71750575118E+02 -0.90080224066E+01  0.41025655585E+03  0.41658100187E+03  0.00000000000E+00 0.  1.
         12    1    3    3    0    0  0.21775607887E+02  0.31833115485E+01  0.17490955320E+03  0.17628857697E+03  0.00000000000E+00 0. -1.
        -13    1    4    4    0    0  0.50965317977E+02  0.27785192607E+02  0.59017959567E+02  0.82780433172E+02  0.00000000000E+00 0. -1.
         13    1    4    4    0    0 -0.23675030577E+02 -0.23057372790E+02  0.90832633399E+02  0.96657730177E+02  0.00000000000E+00 0.  1.
         -4    1    1    2    0  502  0.22684679832E+02  0.10968910412E+01  0.47046160829E+02  0.52241163059E+02  0.00000000000E+00 0.  1.
<scales pt_clust_5="13000.00000" pt_clust_6="13000.00000" pt_clust_7="13000.00000" pt_clust_8="13000.00000" pt_clust_9="22.71118"></scales>
<clustering>
<clus scale="   22.711">  2  9  1 -1</clus>
<clus scale="   80.892">  5  6 -1 -1</clus>
<clus scale="   92.876">  1  5  2 -1</clus>
<clus scale="   94.740">  7  8 -1 -1</clus>
<clus scale="   22.711">  2  5  1 -1</clus>
</clustering>
</event>
<event>
 9    2  0.9254368E-005  0.1056530E+03  0.7546771E-02  0.1274380E+00
         21   -1    0    0  501  502  0.00000000000E+00  0.00000000000E+00  0.18895781914E+02  0.18895781914E+02  0.00000000000E+00 0. -1.
          4   -1    0    0  502    0 -0.00000000000E+00 -0.00000000000E+00 -0.89506111698E+03  0.89506111698E+03  0.00000000000E+00 0. -1.
         24    2    1    2    0    0 -0.32260080120E+02 -0.55336956264E+02 -0.52000973302E+03  0.52988171514E+03  0.79130386789E+02 0.  0.
         23    2    1    2    0    0  0.28474000711E+02  0.23328681334E+02 -0.32323631772E+03  0.33800411537E+03  0.91706427380E+02 0.  0.
        -11    1    3    3    0    0  0.20758287574E+02 -0.14704481033E+02 -0.61834019238E+02  0.66862352640E+02  0.00000000000E+00 0.  1.
         12    1    3    3    0    0 -0.53018367694E+02 -0.40632475231E+02 -0.45817571378E+03  0.46301936250E+03  0.00000000000E+00 0. -1.
        -13    1    4    4    0    0  0.58086521272E+02  0.45084899926E+01 -0.14351946591E+03  0.15489418172E+03  0.00000000000E+00 0. -1.
         13    1    4    4    0    0 -0.29612520561E+02  0.18820191341E+02 -0.17971685180E+03  0.18310993364E+03  0.00000000000E+00 0.  1.
          3    1    1    2  501    0  0.37860794088E+01  0.32008274930E+02 -0.32919284332E+02  0.46071068386E+02  0.00000000000E+00 0. -1.
<scales pt_clust_5="13000.00000" pt_clust_6="13000.00000" pt_clust_7="13000.00000" pt_clust_8="13000.00000" pt_clust_9="32.23141"></scales>
<clustering>
<clus scale="   32.231">  1  9  2 -1</clus>
<clus scale="   79.130">  5  6 -1 -1</clus>
<clus scale="   91.706">  7  8 -1 -1</clus>
<clus scale="   94.943">  2  5  1 -1</clus>
<clus scale="   32.231">  1  5  2 -1</clus>
</clustering>
</event>
<event>
 9    2  0.9254368E-005  0.9508963E+02  0.7546771E-02  0.1301306E+00
         21   -1    0    0  501  502  0.00000000000E+00  0.00000000000E+00  0.99785277548E+02  0.99785277548E+02  0.00000000000E+00 0. -1.
          2   -1    0    0  502    0 -0.00000000000E+00 -0.00000000000E+00 -0.38921373905E+03  0.38921373905E+03  0.00000000000E+00 0. -1.
         24    2    1    2    0    0  0.49442829310E+01 -0.88610560519E+01 -0.28426361519E+03  0.29504940161E+03  0.78392488277E+02 0.  0.
         23    2    1    2    0    0  0.29770797098E+01 -0.30703622023E+02 -0.66888573013E+02  0.12020729216E+03  0.94995455047E+02 0.  0.
        -11    1    3    3    0    0 -0.33404146191E+02 -0.80568660792E+01 -0.77763160776E+02  0.85016817440E+02  0.00000000000E+00 0.  1.
         12    1    3    3    0    0  0.38348429122E+02 -0.80418997273E+00 -0.20650045442E+03  0.21003258417E+03  0.00000000000E+00 0. -1.
        -13    1    4    4    0    0  0.42478797852E+02 -0.40641116710E+02 -0.44461962489E+02  0.73708986852E+02  0.00000000000E+00 0. -1.
         13    1    4    4    0    0 -0.39501718142E+02  0.99374946875E+01 -0.22426610524E+02  0.46498305307E+02  0.00000000000E+00 0.  1.
          1    1    1    2  501    0 -0.79213626407E+01  0.39564678075E+02  0.61723726709E+02  0.73742322828E+02  0.00000000000E+00 0. -1.
<scales pt_clust_5="13000.00000" pt_clust_6="13000.00000" pt_clust_7="13000.00000" pt_clust_8="13000.00000" pt_clust_9="40.34987"></scales>
<clustering>
<clus scale="   40.350">  1  9  2 -1</clus>
<clus scale="   78.392">  5  6 -1 -1</clus>
<clus scale="   78.507">  2  5  1 -1</clus>
<clus scale="   94.995">  7  8 -1 -1</clus>
<clus scale="   40.350">  1  5  2 -1</clus>
</clustering>
</event>
<event>
 9    2  0.9254368E-005  0.2057649E+03  0.7546771E-02  0.1145994E+00
         21   -1    0    0  501  502  0.00000000000E+00  0.00000000000E+00  0.72482911802E+02  0.72482911802E+02  0.00000000000E+00 0. -1.
          2   -1    0    0  502    0 -0.00000000000E+00 -0.00000000000E+00 -0.80809396866E+03  0.80809396866E+03  0.00000000000E+00 0. -1.
         23    2    1    2    0    0  0.19543368373E+03 -0.33723542528E+02 -0.55225772503E+03  0.59393671817E+03  0.91872891999E+02 0.  0.
         24    2    1    2    0    0 -0.15072271019E+03  0.37307738876E+02 -0.13578970088E+03  0.22126266916E+03  0.80056999398E+02 0.  0.
        -13    1    4    4    0    0 -0.12551688006E+03  0.25802477599E+02 -0.14361422488E+03  0.19247155794E+03  0.00000000000E+00 0.  1.
         14    1    4    4    0    0 -0.25205830131E+02  0.11505261278E+02  0.78245239934E+01  0.28791111222E+02  0.00000000000E+00 0. -1.
        -11    1    3    3    0    0  0.50087574005E+02 -0.81273022669E+01 -0.27701438373E+03  0.28162348430E+03  0.00000000000E+00 0.  1.
         11    1    3    3    0    0  0.14534610972E+03 -0.25596240261E+02 -0.27524334129E+03  0.31231323387E+03  0.00000000000E+00 0. -1.
          1    1    1    2  501    0 -0.44710973541E+02 -0.35841963489E+01 -0.47563630948E+02  0.65377493126E+02  0.00000000000E+00 0. -1.
<scales pt_clust_5="13000.00000" pt_clust_6="13000.00000" pt_clust_7="13000.00000" pt_clust_8="13000.00000" pt_clust_9="44.85440"></scales>
<clustering>
<clus scale="   44.854">  1  9  2 -1</clus>
<clus scale="   80.057">  5  6 -1 -1</clus>
<clus scale="   91.873">  7  8 -1 -1</clus>
<clus scale="  200.768">  1  5  2 -1</clus>
<clus scale="   44.854">  1  5  2 -1</clus>
</clustering>
</event>
<event>
 9    2  0.9254368E-005  0.1628821E+03  0.7546771E-02  0.1201550E+00
         21   -1    0    0  501  502  0.00000000000E+00  0.00000000000E+00  0.10586030710E+03  0.10586030710E+03  0.00000000000E+00 0. -1.
          2   -1    0    0  502    0 -0.00000000000E+00 -0.00000000000E+00 -0.45421747203E+03  0.45421747203E+03  0.00000000000E+00 0. -1.
         24    2    1    2    0    0  0.69125886806E+02  0.37609537320E+02 -0.44076392368E+02  0.12264198573E+03  0.83099114168E+02 0.  0.
         23    2    1    2    0    0  0.34711923352E+02  0.10105185898E+03 -0.13269315255E+03  0.19360883635E+03  0.91981046717E+02 0.  0.
        -13    1    3    3    0    0  0.36029184573E+02 -0.24843579647E+02 -0.16433357763E+02  0.46747843138E+02  0.00000000000E+00 0.  1.
         14    1    3    3    0    0  0.33096702233E+02  0.62453116967E+02 -0.27643034604E+02  0.75894142592E+02  0.00000000000E+00 0. -1.
        -11    1    4    4    0    0  0.51489274123E+02  0.23369511907E+02 -0.30805327979E+02  0.64391363306E+02  0.00000000000E+00 0. -1.
         11    1    4    4    0    0 -0.16777350771E+02  0.77682347068E+02 -0.10188782457E+03  0.12921747305E+03  0.00000000000E+00 0.  1.
          1    1    1    2  501    0 -0.10383781016E+03 -0.13866139630E+03 -0.17158762001E+03  0.24382695705E+03  0.00000000000E+00 0. -1.
<scales pt_clust_5="13000.00000" pt_clust_6="13000.00000" pt_clust_7="13000.00000" pt_clust_8="13000.00000" pt_clust_9="134.42498"></scales>
<clustering>
<clus scale="   83.099">  5  6 -1 -1</clus>
<clus scale="   91.981">  7  8 -1 -1</clus>
<clus scale="  114.448">  2  5  1 -1</clus>
<clus scale="  134.425">  1  9  2 -1</clus>
<clus scale="  134.425">  1  5  2 -1</clus>
</clustering>
</event>
<event>
 9    2  0.9254368E-005  0.9223394E+02  0.7546771E-02  0.1302862E+00
         21   -1    0    0  501  502  0.00000000000E+00  0.00000000000E+00  0.23617158305E+03  0.23617158305E+03  0.00000000000E+00 0. -1.
          2   -1    0    0  502    0 -0.00000000000E+00 -0.00000000000E+00 -0.26569294979E+03  0.26569294979E+03  0.00000000000E+00 0. -1.
         24    2    1    2    0    0 -0.21090668582E+01  0.15720439481E+02 -0.14544139781E+03  0.16744849966E+03  0.81450717996E+02 0.  0.
         23    2    1    2    0    0  0.60516763489E+02  0.20754493728E+02 -0.73516233743E+02  0.13285220160E+03  0.90288665803E+02 0.  0.
        -11    1    3    3    0    0 -0.92003893542E+01 -0.24571334060E+02 -0.11072986526E+03  0.11379587287E+03  0.00000000000E+00 0.  1.
         12    1    3    3    0    0  0.70913224960E+01  0.40291773542E+02 -0.34711532551E+02  0.53652626794E+02  0.00000000000E+00 0. -1.
        -13    1    4    4    0    0  0.34090107723E+02  0.21294643831E+02  0.13113642798E+02  0.42279604160E+02  0.00000000000E+00 0. -1.
         13    1    4    4    0    0  0.26426655766E+02 -0.54015010276E+00 -0.86629876541E+02  0.90572597437E+02  0.00000000000E+00 0.  1.
          1    1    1    2  501    0 -0.58407696631E+02 -0.36474933210E+02  0.18943626481E+03  0.20156383158E+03  0.00000000000E+00 0. -1.
<scales pt_clust_5="13000.00000" pt_clust_6="13000.00000" pt_clust_7="13000.00000" pt_clust_8="13000.00000" pt_clust_9="68.86131"></scales>
<clustering>
<clus scale="   68.861">  1  9  2 -1</clus>
<clus scale="   81.451">  5  6 -1 -1</clus>
<clus scale="   83.602">  2  5  1 -1</clus>
<clus scale="   90.289">  7  8 -1 -1</clus>
<clus scale="   68.861">  1  5  2 -1</clus>
</clustering>
</event>
<event>
 9    2  0.9254368E-005  0.3538052E+03  0.7546771E-02  0.1061064E+00
         21   -1    0    0  501  502  0.00000000000E+00  0.00000000000E+00  0.67604011803E+02  0.67604011803E+02  0.00000000000E+00 0.  1.
          2   -1    0    0  502    0 -0.00000000000E+00 -0.00000000000E+00 -0.17054485656E+04  0.17054485656E+04  0.00000000000E+00 0. -1.
         24    2    1    2    0    0 -0.64403959389E+02  0.21383690065E+03 -0.42319756274E+03  0.48522266319E+03  0.80441069755E+02 0.  0.
         23    2    1    2    0    0 -0.55581640889E+02  0.47521609678E+02 -0.18121276324E+03  0.21512719751E+03  0.89966790301E+02 0.  0.
        -11    1    3    3    0    0 -0.70274830840E+02  0.21595144245E+03 -0.42145121481E+03  0.47874283682E+03  0.00000000000E+00 0.  1.
         12    1    3    3    0    0  0.58708714511E+01 -0.21145418064E+01 -0.17463479294E+01  0.64798263662E+01  0.00000000000E+00 0. -1.
        -13    1    4    4    0    0 -0.57907534635E+02 -0.77216415282E+01 -0.11397210690E+03  0.12807243055E+03  0.00000000000E+00 0.  1.
         13    1    4    4    0    0  0.23258937456E+01  0.55243251207E+02 -0.67240656331E+02  0.87054766954E+02  0.00000000000E+00 0. -1.
          1    1    1    2  501    0  0.11998560028E+03 -0.26135851032E+03 -0.10334342278E+04  0.10727027167E+04  0.00000000000E+00 0. -1.
<scales pt_clust_5="13000.00000" pt_clust_6="13000.00000" pt_clust_7="13000.00000" pt_clust_8="13000.00000" pt_clust_9="287.58459"></scales>
<clustering>
<clus scale="   80.441">  5  6 -1 -1</clus>
<clus scale="   89.967">  7  8 -1 -1</clus>
<clus scale="  101.393">  5  7 -1 -1</clus>
<clus scale="  287.585">  1  9  2 -1</clus>
<clus scale="  287.585">  1  5  2 -1</clus>
</clustering>
</event>
<event>
 9    2  0.9254368E-005  0.9817080E+02  0.7546771E-02  0.1289623E+00
         21   -1    0    0  501  502  0.00000000000E+00  0.00000000000E+00  0.29038616755E+02  0.29038616755E+02  0.00000000000E+00 0. -1.
          2   -1    0    0  502    0 -0.00000000000E+00 -0.00000000000E+00 -0.52420621652E+03  0.52420621652E+03  0.00000000000E+00 0. -1.
         24    2    1    2    0    0 -0.11172663398E+02 -0.38313700774E+02 -0.33877292951E+03  0.35112668258E+03  0.83247110320E+02 0.  0.
         23    2    1    2    0    0  0.42075394290E+01  0.53523603230E+01 -0.12424865183E+03  0.15555282650E+03  0.93341326344E+02 0.  0.
        -11    1    3    3    0    0 -0.26121082372E+02  0.50533902572E+01 -0.35283366421E+02  0.44190085352E+02  0.00000000000E+00 0.  1.
         12    1    3    3    0    0  0.14948418975E+02 -0.43367091031E+02 -0.30348956309E+03  0.30693659722E+03  0.00000000000E+00 0. -1.
        -13    1    4    4    0    0 -0.19190804636E+02  0.39319575472E+02 -0.96173616410E+02  0.10565831956E+03  0.00000000000E+00 0.  1.
         13    1    4    4    0    0  0.23398344065E+02 -0.33967215149E+02 -0.28075035415E+02  0.49894506947E+02  0.00000000000E+00 0. -1.
          1    1    1    2  501    0  0.69651239686E+01  0.32961340451E+02 -0.32146018434E+02  0.46565324195E+02  0.00000000000E+00 0. -1.
<scales pt_clust_5="13000.00000" pt_clust_6="13000.00000" pt_clust_7="13000.00000" pt_clust_8="13000.00000" pt_clust_9="33.68921"></scales>
<clustering>
<clus scale="   33.689">  1  9  2 -1</clus>
<clus scale="   83.247">  5  6 -1 -1</clus>
<clus scale="   88.628">  2  5  1 -1</clus>
<clus scale="   93.341">  7  8 -1 -1</clus>
<clus scale="   33.689">  1  5  2 -1</clus>
</clustering>
</event>
<event>
 9    2  0.9254368E-005  0.1083054E+03  0.7546771E-02  0.1267839E+00
         -1   -1    0    0    0  501 -0.00000000000E+00  0.00000000000E+00  0.12214207156E+03  0.12214207156E+03  0.00000000000E+00 0.  1.
         21   -1    0    0  501  502  0.00000000000E+00 -0.00000000000E+00 -0.23380785794E+03  0.23380785794E+03  0.00000000000E+00 0.  1.
         23    2    1    2    0    0 -0.38909192962E+02  0.24447197122E+02 -0.10453332388E+02  0.10234077857E+03  0.90844769004E+02 0.  0.
         24    2    1    2    0    0  0.84029067782E+02 -0.48558446310E+02 -0.14065567706E+03  0.18901098311E+03  0.80760914480E+02 0.  0.
        -13    1    4    4    0    0  0.98235520352E+02 -0.30856728075E+02 -0.12189147143E+03  0.15956154278E+03  0.00000000000E+00 0.  1.
         14    1    4    4    0    0 -0.14206452570E+02 -0.17701718235E+02 -0.18764205627E+02  0.29449440332E+02  0.00000000000E+00 0. -1.
        -13    1    3    3    0    0 -0.22867612125E+02  0.56458996146E+02 -0.21927914714E+02  0.64740863246E+02  0.00000000000E+00 0.  1.
         13    1    3    3    0    0 -0.16041580837E+02 -0.32011799024E+02  0.11474582326E+02  0.37599915320E+02  0.00000000000E+00 0. -1.
         -2    1    1    2    0  502 -0.45119874819E+02  0.24111249188E+02  0.39443223056E+02  0.64598167823E+02  0.00000000000E+00 0.  1.
<scales pt_clust_5="13000.00000" pt_clust_6="13000.00000" pt_clust_7="13000.00000" pt_clust_8="13000.00000" pt_clust_9="51.15817"></scales>
<clustering>
<clus scale="   51.158">  2  9  1 -1</clus>
<clus scale="   80.761">  5  6 -1 -1</clus>
<clus scale="   90.845">  7  8 -1 -1</clus>
<clus scale="   99.998">  2  5  1 -1</clus>
<clus scale="   51.158">  2  5  1 -1</clus>
</clustering>
</event>
<event>
 9    2  0.9254368E-005  0.1401565E+03  0.7546771E-02  0.1215191E+00
         21   -1    0    0  501  502  0.00000000000E+00  0.00000000000E+00  0.76370617184E+02  0.76370617184E+02  0.00000000000E+00 0.  1.
          2   -1    0    0  502    0 -0.00000000000E+00 -0.00000000000E+00 -0.38845942256E+03  0.38845942256E+03  0.00000000000E+00 0. -1.
         24    2    1    2    0    0  0.79267327518E+02  0.96927453943E+02 -0.22784669489E+03  0.27199833503E+03  0.79942087440E+02 0.  0.
         23    2    1    2    0    0 -0.35943308176E+02 -0.66432465891E+02 -0.40263445149E+02  0.12397650918E+03  0.89687434380E+02 0.  0.
        -11    1    3    3    0    0  0.44368937787E+02  0.10213449934E+03 -0.15280615537E+03  0.18907612148E+03  0.00000000000E+00 0.  1.
         12    1    3    3    0    0  0.34898389731E+02 -0.52070453937E+01 -0.75040539528E+02  0.82922213551E+02  0.00000000000E+00 0. -1.
        -13    1    4    4    0    0 -0.19663585114E+02 -0.87906427875E+02 -0.34220092197E+02  0.96359801532E+02  0.00000000000E+00 0.  1.
         13    1    4    4    0    0 -0.16279723063E+02  0.21473961984E+02 -0.60433529521E+01  0.27616707646E+02  0.00000000000E+00 0. -1.
          1    1    1    2  501    0 -0.43324019342E+02 -0.30494988052E+02 -0.43978665337E+02  0.68855195541E+02  0.00000000000E+00 0. -1.
<scales pt_clust_5="13000.00000" pt_clust_6="13000.00000" pt_clust_7="13000.00000" pt_clust_8="13000.00000" pt_clust_9="52.98033"></scales>
<clustering>
<clus scale="   52.980">  1  9  2 -1</clus>
<clus scale="   79.942">  5  6 -1 -1</clus>
<clus scale="   89.687">  7  8 -1 -1</clus>
<clus scale="  134.130">  2  5  1 -1</clus>
<clus scale="   52.980">  1  5  2 -1</clus>
</clustering>
</event>
<event>
 9    2  0.9254368E-005  0.9293014E+02  0.7546771E-02  0.1303416E+00
          2   -1    0    0  502    0 -0.00000000000E+00  0.00000000000E+00  0.35188980059E+03  0.35188980059E+03  0.00000000000E+00 0. -1.
         21   -1    0    0  501  502  0.00000000000E+00 -0.00000000000E+00 -0.32911918870E+02  0.32911918870E+02  0.00000000000E+00 0.  1.
         24    2    1    2    0    0 -0.23683361126E+01 -0.22506795438E+02  0.21382946145E+03  0.22901975848E+03  0.78834296689E+02 0.  0.
         23    2    1    2    0    0 -0.10427133019E+02  0.56213147501E+01  0.73383996186E+02  0.11760052405E+03  0.91128195847E+02 0.  0.
        -11    1    3    3    0    0  0.32008688159E+02 -0.14191245666E+02  0.16531121904E+03  0.16897853920E+03  0.00000000000E+00 0.  1.
         12    1    3    3    0    0 -0.34377024271E+02 -0.83155497720E+01  0.48518242407E+02  0.60041219275E+02  0.00000000000E+00 0. -1.
        -13    1    4    4    0    0  0.25837016866E+02  0.29970461082E+02  0.60078050424E+02  0.71938530155E+02  0.00000000000E+00 0.  1.
         13    1    4    4    0    0 -0.36264149885E+02 -0.24349146332E+02  0.13305945761E+02  0.45661993896E+02  0.00000000000E+00 0. -1.
          1    1    1    2  501    0  0.12795469131E+02  0.16885480687E+02  0.31764424085E+02  0.38181436927E+02  0.00000000000E+00 0. -1.
<scales pt_clust_5="13000.00000" pt_clust_6="13000.00000" pt_clust_7="13000.00000" pt_clust_8="13000.00000" pt_clust_9="21.18594"></scales>
<clustering>
<clus scale="   21.186">  2  9  1 -1</clus>
<clus scale="   78.834">  5  6 -1 -1</clus>
<clus scale="   80.911">  1  5  2 -1</clus>
<clus scale="   91.128">  7  8 -1 -1</clus>
<clus scale="   21.186">  2  5  1 -1</clus>
</clustering>
</event>
<event>
 9    2  0.9254368E-005  0.1211921E+03  0.7546771E-02  0.1244818E+00
         21   -1    0    0  501  502  0.00000000000E+00  0.00000000000E+00  0.18520029255E+03  0.18520029255E+03  0.00000000000E+00 0.  1.
         -1   -1    0    0    0  501 -0.00000000000E+00 -0.00000000000E+00 -0.12245285633E+03  0.12245285633E+03  0.00000000000E+00 0.  1.
         24    2    1    2    0    0  0.64479929276E+02  0.35388353575E+02  0.11328153153E+02  0.10924815154E+03  0.79980214514E+02 0.  0.
         23    2    1    2    0    0 -0.53777220025E+02 -0.78896090187E+02  0.70114542655E+02  0.14985621917E+03  0.91783739801E+02 0.  0.
        -11    1    3    3    0    0  0.13003161360E+02 -0.25616620577E+02  0.83603854084E+00  0.28740083778E+02  0.00000000000E+00 0.  1.
         12    1    3    3    0    0  0.51476767916E+02  0.61004974152E+02  0.10492114612E+02  0.80508067766E+02  0.00000000000E+00 0. -1.
        -11    1    4    4    0    0  0.38407190601E+01 -0.21686717675E+02 -0.19151631849E+02  0.29186466879E+02  0.00000000000E+00 0. -1.
         11    1    4    4    0    0 -0.57617939085E+02 -0.57209372512E+02  0.89266174503E+02  0.12066975229E+03  0.00000000000E+00 0.  1.
         -2    1    1    2    0  502 -0.10702709251E+02  0.43507736611E+02 -0.18695259593E+02  0.48548778168E+02  0.00000000000E+00 0.  1.
<scales pt_clust_5="13000.00000" pt_clust_6="13000.00000" pt_clust_7="13000.00000" pt_clust_8="13000.00000" pt_clust_9="44.80483"></scales>
<clustering>
<clus scale="   44.805">  1  9  2 -1</clus>
<clus scale="   79.980">  5  6 -1 -1</clus>
<clus scale="   91.784">  7  8 -1 -1</clus>
<clus scale="  112.517">  2  5  1 -1</clus>
<clus scale="   44.805">  1  5  2 -1</clus>
</clustering>
</event>
<event>
 9    2  0.9254368E-005  0.1290594E+03  0.7546771E-02  0.1248018E+00
          2   -1    0    0  502    0 -0.00000000000E+00  0.00000000000E+00  0.52996482942E+03  0.52996482942E+03  0.00000000000E+00 0. -1.
         21   -1    0    0  501  502  0.00000000000E+00 -0.00000000000E+00 -0.12350998844E+03  0.12350998844E+03  0.00000000000E+00 0. -1.
         24    2    1    2    0    0  0.32618453129E+02  0.10157508839E+02 -0.24995217095E+02  0.90871517688E+02  0.80409784099E+02 0.  0.
         23    2    1    2    0    0 -0.17071795566E+02 -0.98681124024E+02  0.45058284844E+03  0.47071101173E+03  0.92274280338E+02 0.  0.
        -13    1    3    3    0    0  0.87341730635E+00  0.41399665996E+02 -0.20202690839E+02  0.46074330375E+02  0.00000000000E+00 0.  1.
         14    1    3    3    0    0  0.31745035823E+02 -0.31242157157E+02 -0.47925262559E+01  0.44797187313E+02  0.00000000000E+00 0. -1.
        -11    1    4    4    0    0 -0.49954676265E+02 -0.39420133042E+02  0.15697804208E+03  0.16938572037E+03  0.00000000000E+00 0.  1.
         11    1    4    4    0    0  0.32882880699E+02 -0.59260990982E+02  0.29360480636E+03  0.30132529136E+03  0.00000000000E+00 0. -1.
          1    1    1    2  501    0 -0.15546657563E+02  0.88523615186E+02 -0.19132790367E+02  0.91892288437E+02  0.00000000000E+00 0. -1.
<scales pt_clust_5="13000.00000" pt_clust_6="13000.00000" pt_clust_7="13000.00000" pt_clust_8="13000.00000" pt_clust_9="90.23180"></scales>
<clustering>
<clus scale="   80.410">  5  6 -1 -1</clus>
<clus scale="   87.366">  1  5  2 -1</clus>
<clus scale="   90.232">  2  9  1 -1</clus>
<clus scale="   92.274">  7  8 -1 -1</clus>
<clus scale="   90.232">  2  5  1 -1</clus>
</clustering>
</event>
<event>
 9    2  0.9254368E-005  0.1021679E+03  0.7546771E-02  0.1280117E+00
         21   -1    0    0  501  502  0.00000000000E+00  0.00000000000E+00  0.63927947018E+02  0.63927947018E+02  0.00000000000E+00 0. -1.
          2   -1    0    0  502    0 -0.00000000000E+00 -0.00000000000E+00 -0.41289103780E+03  0.41289103780E+03  0.00000000000E+00 0. -1.
         24    2    1    2    0    0  0.13117199888E+02 -0.33945562559E+02 -0.25746616802E+03  0.27286646788E+03  0.82721940661E+02 0.  0.
         23    2    1    2    0    0 -0.93208191560E+01  0.88216905698E+02 -0.68602454056E+02  0.14492754011E+03  0.91807380196E+02 0.  0.
        -11    1    3    3    0    0 -0.27766278787E+02 -0.34102548087E+02 -0.85976755090E+02  0.96570970998E+02  0.00000000000E+00 0.  1.
         12    1    3    3    0    0  0.40883478675E+02  0.15698552792E+00 -0.17148941293E+03  0.17629549688E+03  0.00000000000E+00 0. -1.
        -13    1    4    4    0    0 -0.24160960761E+02 -0.10656851255E+02 -0.23076566044E+02  0.35069194515E+02  0.00000000000E+00 0.  1.
         13    1    4    4    0    0  0.14840141605E+02  0.98873756954E+02 -0.45525888012E+02  0.10985834559E+03  0.00000000000E+00 0. -1.
          1    1    1    2  501    0 -0.37963807323E+01 -0.54271343140E+02 -0.22894468708E+02  0.59024976834E+02  0.00000000000E+00 0. -1.
<scales pt_clust_5="13000.00000" pt_clust_6="13000.00000" pt_clust_7="13000.00000" pt_clust_8="13000.00000" pt_clust_9="54.40396"></scales>
<clustering>
<clus scale="   54.404">  1  9  2 -1</clus>
<clus scale="   82.722">  5  6 -1 -1</clus>
<clus scale="   91.807">  7  8 -1 -1</clus>
<clus scale="   94.088">  2  5  1 -1</clus>
<clus scale="   54.404">  1  5  2 -1</clus>
</clustering>
</event>
<event>
 9    2  0.9254368E-005  0.1095696E+03  0.7546771E-02  0.1268127E+00
          4   -1    0    0  502    0 -0.00000000000E+00  0.00000000000E+00  0.23560999722E+03  0.23560999722E+03  0.00000000000E+00 0. -1.
         21   -1    0    0  501  502  0.00000000000E+00 -0.00000000000E+00 -0.19680773363E+03  0.19680773363E+03  0.00000000000E+00 0.  1.
         24    2    1    2    0    0 -0.21167784906E+02  0.60065330917E+02  0.16903328576E+03  0.19732734679E+03  0.79434948227E+02 0.  0.
         23    2    1    2    0    0 -0.45002730029E+02  0.13317109782E+01 -0.71316435252E+02  0.12729862949E+03  0.95351392069E+02 0.  0.
        -11    1    3    3    0    0 -0.10673161896E+02  0.77292545535E+02  0.10939634060E+03  0.13437117740E+03  0.00000000000E+00 0.  1.
         12    1    3    3    0    0 -0.10494623010E+02 -0.17227214618E+02  0.59636945163E+02  0.62956169388E+02  0.00000000000E+00 0. -1.
        -13    1    4    4    0    0 -0.31284693696E+02 -0.18627674539E+02  0.13697856541E+02  0.38901845614E+02  0.00000000000E+00 0. -1.
         13    1    4    4    0    0 -0.13718036333E+02  0.19959385517E+02 -0.85014291792E+02  0.88396783878E+02  0.00000000000E+00 0.  1.
          3    1    1    2  501    0  0.66170514934E+02 -0.61397041895E+02 -0.58914586926E+02  0.10779175457E+03  0.00000000000E+00 0. -1.
<scales pt_clust_5="13000.00000" pt_clust_6="13000.00000" pt_clust_7="13000.00000" pt_clust_8="13000.00000" pt_clust_9="90.26701"></scales>
<clustering>
<clus scale="   79.435">  5  6 -1 -1</clus>
<clus scale="   90.267">  2  9  1 -1</clus>
<clus scale="   95.351">  7  8 -1 -1</clus>
<clus scale="   96.039">  1  5  2 -1</clus>
<clus scale="   90.267">  2  5  1 -1</clus>
</clustering>
</event>
<event>
 9    2  0.9254368E-005  0.9232432E+02  0.7546771E-02  0.1304859E+00
         -3   -1    0    0    0  501 -0.00000000000E+00  0.00000000000E+00  0.87177020571E+02  0.87177020571E+02  0.00000000000E+00 0.  1.
         21   -1    0    0  501  502  0.00000000000E+00 -0.00000000000E+00 -0.17718356068E+03  0.17718356068E+03  0.00000000000E+00 0.  1.
         24    2    1    2    0    0 -0.61950920886E+01 -0.37376566978E+01  0.24665810772E+02  0.83838504255E+02  0.79800647436E+02 0.  0.
         23    2    1    2    0    0  0.15739380392E+02 -0.20913912062E+02 -0.44145340392E+02  0.10520373600E+03  0.91836241092E+02 0.  0.
        -13    1    3    3    0    0  0.24344152219E+02  0.22934512155E+02 -0.46999941775E+01  0.33774539824E+02  0.00000000000E+00 0.  1.
         14    1    3    3    0    0 -0.30539244308E+02 -0.26672168853E+02  0.29365804949E+02  0.50063964431E+02  0.00000000000E+00 0. -1.
        -11    1    4    4    0    0  0.21299264983E+02 -0.55219137349E+02 -0.36770559340E+02  0.69677010933E+02  0.00000000000E+00 0.  1.
         11    1    4    4    0    0 -0.55598845903E+01  0.34305225287E+02 -0.73747810527E+01  0.35526725071E+02  0.00000000000E+00 0. -1.
         -4    1    1    2    0  502 -0.95442883037E+01  0.24651568759E+02 -0.70527010485E+02  0.75318340990E+02  0.00000000000E+00 0.  1.
<scales pt_clust_5="13000.00000" pt_clust_6="13000.00000" pt_clust_7="13000.00000" pt_clust_8="13000.00000" pt_clust_9="26.43470"></scales>
<clustering>
<clus scale="   26.435">  2  9  1 -1</clus>
<clus scale="   79.801">  5  6 -1 -1</clus>
<clus scale="   80.362">  1  5  2 -1</clus>
<clus scale="   91.836">  7  8 -1 -1</clus>
<clus scale="   26.435">  2  5  1 -1</clus>
</clustering>
</event>
<event>
 9    2  0.9254368E-005  0.1245528E+03  0.7546771E-02  0.1238326E+00
         21   -1    0    0  501  502  0.00000000000E+00  0.00000000000E+00  0.16269111856E+03  0.16269111856E+03  0.00000000000E+00 0. -1.
          2   -1    0    0  502    0 -0.00000000000E+00 -0.00000000000E+00 -0.14182328798E+03  0.14182328798E+03  0.00000000000E+00 0. -1.
         23    2    1    2    0    0 -0.59861486135E+02  0.68131412011E+02 -0.30870005600E+02  0.13174855538E+03  0.90440244217E+02 0.  0.
         24    2    1    2    0    0  0.30167613969E+02 -0.76693861294E+02  0.40956325988E+01  0.11597834246E+03  0.81499499513E+02 0.  0.
        -13    1    4    4    0    0  0.36999851690E+02 -0.45088503753E+02  0.37615738307E+02  0.69403933348E+02  0.00000000000E+00 0.  1.
         14    1    4    4    0    0 -0.68322377213E+01 -0.31605357541E+02 -0.33520105708E+02  0.46574409113E+02  0.00000000000E+00 0. -1.
        -11    1    3    3    0    0 -0.75312707525E+02  0.31118745253E+02 -0.58500065183E+00  0.81490627968E+02  0.00000000000E+00 0. -1.
         11    1    3    3    0    0  0.15451221390E+02  0.37012666758E+02 -0.30285004948E+02  0.50257927412E+02  0.00000000000E+00 0.  1.
          1    1    1    2  501    0  0.29693872166E+02  0.85624492827E+01  0.47642203579E+02  0.56787508695E+02  0.00000000000E+00 0. -1.
<scales pt_clust_5="13000.00000" pt_clust_6="13000.00000" pt_clust_7="13000.00000" pt_clust_8="13000.00000" pt_clust_9="30.90375"></scales>
<clustering>
<clus scale="   30.904">  1  9  2 -1</clus>
<clus scale="   81.499">  5  6 -1 -1</clus>
<clus scale="   90.440">  7  8 -1 -1</clus>
<clus scale="  118.221">  1  5  2 -1</clus>
<clus scale="   30.904">  1  5  2 -1</clus>
</clustering>
</event>
<event>
 9    2  0.9254368E-005  0.1871309E+03  0.7546771E-02  0.1176419E+00
         21   -1    0    0  501  502  0.00000000000E+00  0.00000000000E+00  0.93451751371E+02  0.93451751371E+02  0.00000000000E+00 0. -1.
          2   -1    0    0  502    0 -0.00000000000E+00 -0.00000000000E+00 -0.84246009577E+03  0.84246009577E+03  0.00000000000E+00 0. -1.
         24    2    1    2    0    0  0.94683783428E+02 -0.43830437853E+02 -0.43102482962E+02  0.13851245678E+03  0.80260516562E+02 0.  0.
         23    2    1    2    0    0  0.11845147744E+03  0.46837779130E+02 -0.31307726712E+03  0.35046540414E+03  0.92650387207E+02 0.  0.
        -13    1    3    3    0    0  0.23820885432E+02 -0.54886372567E+02 -0.22048459520E+02  0.63765845431E+02  0.00000000000E+00 0.  1.
         14    1    3    3    0    0  0.70862897996E+02  0.11055934714E+02 -0.21054023441E+02  0.74746611347E+02  0.00000000000E+00 0. -1.
        -11    1    4    4    0    0  0.23734756706E+02 -0.18577745980E+02 -0.21599635407E+02  0.37081202398E+02  0.00000000000E+00 0.  1.
         11    1    4    4    0    0  0.94716720735E+02  0.65415525109E+02 -0.29147763171E+03  0.31338420174E+03  0.00000000000E+00 0. -1.
          1    1    1    2  501    0 -0.21313526087E+03 -0.30073412770E+01 -0.39282859432E+03  0.44693398622E+03  0.00000000000E+00 0. -1.
<scales pt_clust_5="13000.00000" pt_clust_6="13000.00000" pt_clust_7="13000.00000" pt_clust_8="13000.00000" pt_clust_9="162.58508"></scales>
<clustering>
<clus scale="   80.261">  5  6 -1 -1</clus>
<clus scale="   92.650">  7  8 -1 -1</clus>
<clus scale="  131.635">  2  5  1 -1</clus>
<clus scale="  162.585">  1  9  2 -1</clus>
<clus scale="  162.585">  1  5  2 -1</clus>
</clustering>
</event>
<event>
 9    2  0.9254368E-005  0.1470542E+03  0.7546771E-02  0.1206181E+00
          2   -1    0    0  502    0 -0.00000000000E+00  0.00000000000E+00  0.15774977851E+04  0.15774977851E+04  0.00000000000E+00 0. -1.
         21   -1    0    0  501  502  0.00000000000E+00 -0.00000000000E+00 -0.34922638392E+02  0.34922638392E+02  0.00000000000E+00 0. -1.
         24    2    1    2    0    0  0.18412457188E+01  0.11670555332E+03  0.13408955351E+04  0.13483802740E+04  0.80653275093E+02 0.  0.
         23    2    1    2    0    0 -0.27275846288E+02 -0.10452603144E+03  0.15782993846E+03  0.21190519490E+03  0.91235185730E+02 0.  0.
        -13    1    3    3    0    0  0.21783086142E+02  0.46746631804E+02  0.26155261660E+03  0.26658867507E+03  0.00000000000E+00 0.  1.
         14    1    3    3    0    0 -0.19941840423E+02  0.69958921515E+02  0.10793429185E+04  0.10817915989E+04  0.00000000000E+00 0. -1.
        -11    1    4    4    0    0 -0.50395427836E+02 -0.63560389211E+02  0.52699274180E+02  0.96730738250E+02  0.00000000000E+00 0. -1.
         11    1    4    4    0    0  0.23119581547E+02 -0.40965642226E+02  0.10513066428E+03  0.11517445665E+03  0.00000000000E+00 0.  1.
          1    1    1    2  501    0  0.25434600570E+02 -0.12179521883E+02  0.43849673176E+02  0.52134954657E+02  0.00000000000E+00 0. -1.
<scales pt_clust_5="13000.00000" pt_clust_6="13000.00000" pt_clust_7="13000.00000" pt_clust_8="13000.00000" pt_clust_9="28.20035"></scales>
<clustering>
<clus scale="   28.200">  2  9  1 -1</clus>
<clus scale="   80.653">  5  6 -1 -1</clus>
<clus scale="   91.235">  7  8 -1 -1</clus>
<clus scale="  140.734">  1  5  2 -1</clus>
<clus scale="   28.200">  2  5  1 -1</clus>
</clustering>
</event>
<event>
 9    2  0.9254368E-005  0.2355892E+03  0.7546771E-02  0.1147227E+00
         -1   -1    0    0    0  501 -0.00000000000E+00  0.00000000000E+00  0.14583807097E+04  0.14583807097E+04  0.00000000000E+00 0.  1.
         21   -1    0    0  501  502  0.00000000000E+00 -0.00000000000E+00 -0.67032772047E+02  0.67032772047E+02  0.00000000000E+00 0.  1.
         23    2    1    2    0    0 -0.36438506897E+02  0.83387315972E+02  0.16850258497E+03  0.21275477454E+03  0.92683675464E+02 0.  0.
         24    2    1    2    0    0 -0.70848218757E+02 -0.22094891224E+03  0.43071631820E+03  0.50154709865E+03  0.11043121604E+03 0.  0.
        -13    1    4    4    0    0 -0.89929332971E+02 -0.18847484245E+03  0.30010406545E+03  0.36561250151E+03  0.00000000000E+00 0.  1.
         14    1    4    4    0    0  0.19081114214E+02 -0.32474069788E+02  0.13061225276E+03  0.13593459714E+03  0.00000000000E+00 0. -1.
        -13    1    3    3    0    0  0.16259441016E+02  0.27676254859E+02  0.54356877063E+01  0.32555970359E+02  0.00000000000E+00 0.  1.
         13    1    3    3    0    0 -0.52697947913E+02  0.55711061113E+02  0.16306689726E+03  0.18019880418E+03  0.00000000000E+00 0. -1.
         -2    1    1    2    0  502  0.10728672565E+03  0.13756159627E+03  0.79212903444E+03  0.81111160852E+03  0.00000000000E+00 0.  1.
<scales pt_clust_5="13000.00000" pt_clust_6="13000.00000" pt_clust_7="13000.00000" pt_clust_8="13000.00000" pt_clust_9="208.10395"></scales>
<clustering>
<clus scale="   92.684">  7  8 -1 -1</clus>
<clus scale="  110.431">  5  6 -1 -1</clus>
<clus scale="  129.890">  1  7  2 -1</clus>
<clus scale="  208.104">  2  9  1 -1</clus>
<clus scale="  208.104">  2  5  1 -1</clus>
</clustering>
</event>
<event>
 9    2  0.9254368E-005  0.1392157E+03  0.7546771E-02  0.1228712E+00
         21   -1    0    0  501  502  0.00000000000E+00  0.00000000000E+00  0.71004698181E+02  0.71004698181E+02  0.00000000000E+00 0.  1.
          2   -1    0    0  502    0 -0.00000000000E+00 -0.00000000000E+00 -0.88560131672E+03  0.88560131672E+03  0.00000000000E+00 0. -1.
         24    2    1    2    0    0  0.10473859193E+02 -0.62435202892E+02 -0.35915422999E+03  0.37366926621E+03  0.81419305437E+02 0.  0.
         23    2    1    2    0    0  0.26851653033E+02 -0.93971464718E+02 -0.39340817674E+02  0.13684622333E+03  0.87335797090E+02 0.  0.
        -13    1    3    3    0    0 -0.27428679887E+02 -0.58987518412E+02 -0.23044642140E+03  0.23945231873E+03  0.00000000000E+00 0.  1.
         14    1    3    3    0    0  0.37902539079E+02 -0.34476844802E+01 -0.12870780860E+03  0.13421694748E+03  0.00000000000E+00 0. -1.
        -13    1    4    4    0    0  0.57992904642E+02 -0.49736590787E+02 -0.29298539484E+02  0.81824873161E+02  0.00000000000E+00 0.  1.
         13    1    4    4    0    0 -0.31141251609E+02 -0.44234873931E+02 -0.10042278190E+02  0.55021350172E+02  0.00000000000E+00 0. -1.
          1    1    1    2  501    0 -0.37325512225E+02  0.15640666761E+03 -0.41610157087E+03  0.44609052536E+03  0.00000000000E+00 0. -1.
<scales pt_clust_5="13000.00000" pt_clust_6="13000.00000" pt_clust_7="13000.00000" pt_clust_8="13000.00000" pt_clust_9="108.41353"></scales>
<clustering>
<clus scale="   81.419">  5  6 -1 -1</clus>
<clus scale="   87.336">  7  8 -1 -1</clus>
<clus scale="  103.136">  2  5  1 -1</clus>
<clus scale="  108.414">  1  9  2 -1</clus>
<clus scale="  108.414">  1  5  2 -1</clus>
</clustering>
</event>
<event>
 9    2  0.9254368E-005  0.1209909E+03  0.7546771E-02  0.1245752E+00
         21   -1    0    0  501  502  0.00000000000E+00  0.00000000000E+00  0.10177120766E+03  0.10177120766E+03  0.00000000000E+00 0.  1.
         -3   -1    0    0    0  501 -0.00000000000E+00 -0.00000000000E+00 -0.21571443745E+03  0.21571443745E+03  0.00000000000E+00 0.  1.
         23    2    1    2    0    0  0.91068044081E+01 -0.62201040254E+02 -0.31164925644E+02  0.11788897966E+03  0.94734659129E+02 0.  0.
         24    2    1    2    0    0 -0.62774196477E+02  0.70657519397E+02 -0.42165115373E+02  0.13176502008E+03  0.81553901012E+02 0.  0.
        -11    1    4    4    0    0 -0.62385644340E+02  0.86576319024E+02 -0.27690916176E+02  0.11024615401E+03  0.00000000000E+00 0.  1.
         12    1    4    4    0    0 -0.38855213788E+00 -0.15918799627E+02 -0.14474199197E+02  0.21518866065E+02  0.00000000000E+00 0. -1.
        -13    1    3    3    0    0  0.45074810620E+02 -0.10708827382E+02  0.29289538457E+01  0.46421937777E+02  0.00000000000E+00 0. -1.
         13    1    3    3    0    0 -0.35968006212E+02 -0.51492212873E+02 -0.34093879489E+02  0.71467041886E+02  0.00000000000E+00 0.  1.
         -4    1    1    2    0  502  0.53667392069E+02 -0.84564791428E+01 -0.40613188779E+02  0.67831645371E+02  0.00000000000E+00 0.  1.
<scales pt_clust_5="13000.00000" pt_clust_6="13000.00000" pt_clust_7="13000.00000" pt_clust_8="13000.00000" pt_clust_9="54.32959"></scales>
<clustering>
<clus scale="   54.330">  1  9  2 -1</clus>
<clus scale="   81.554">  5  6 -1 -1</clus>
<clus scale="   94.735">  7  8 -1 -1</clus>
<clus scale="  110.974">  1  5  2 -1</clus>
<clus scale="   54.330">  1  5  2 -1</clus>
</clustering>
</event>
<event>
 9    2  0.9254368E-005  0.1318132E+03  0.7546771E-02  0.1227782E+00
          2   -1    0    0  502    0 -0.00000000000E+00  0.00000000000E+00  0.13806247037E+04  0.13806247037E+04  0.00000000000E+00 0. -1.
         21   -1    0    0  501  502  0.00000000000E+00 -0.00000000000E+00 -0.42230185966E+02  0.42230185966E+02  0.00000000000E+00 0. -1.
         24    2    1    2    0    0 -0.19569925219E+02 -0.95407395099E+02  0.72914818167E+03  0.74004840657E+03  0.80802352840E+02 0.  0.
         23    2    1    2    0    0 -0.56094294159E+02  0.81227832577E+02  0.10119128209E+03  0.16895234819E+03  0.92523995623E+02 0.  0.
        -13    1    3    3    0    0  0.10561602688E+02 -0.44202696882E+02  0.12535187703E+03  0.13333611266E+03  0.00000000000E+00 0.  1.
         14    1    3    3    0    0 -0.30131527907E+02 -0.51204698217E+02  0.60379630464E+03  0.60671229391E+03  0.00000000000E+00 0. -1.
        -11    1    4    4    0    0  0.20010511300E+02  0.84452387533E+01  0.44119030605E+02  0.49175517096E+02  0.00000000000E+00 0.  1.
         11    1    4    4    0    0 -0.76104805460E+02  0.72782593824E+02  0.57072251486E+02  0.11977683110E+03  0.00000000000E+00 0. -1.
          1    1    1    2  501    0  0.75664219378E+02  0.14179562522E+02  0.50805505397E+03  0.51385413490E+03  0.00000000000E+00 0. -1.
<scales pt_clust_5="13000.00000" pt_clust_6="13000.00000" pt_clust_7="13000.00000" pt_clust_8="13000.00000" pt_clust_9="76.98143"></scales>
<clustering>
<clus scale="   76.981">  2  9  1 -1</clus>
<clus scale="   80.802">  5  6 -1 -1</clus>
<clus scale="   92.524">  7  8 -1 -1</clus>
<clus scale="  123.867">  1  5  2 -1</clus>
<clus scale="   76.981">  2  5  1 -1</clus>
</clustering>
</event>
<event>
 9    2  0.9254368E-005  0.1634162E+03  0.7546771E-02  0.1210810E+00
          2   -1    0    0  502    0 -0.00000000000E+00  0.00000000000E+00  0.17760627876E+03  0.17760627876E+03  0.00000000000E+00 0. -1.
         21   -1    0    0  501  502  0.00000000000E+00 -0.00000000000E+00 -0.34601339929E+03  0.34601339929E+03  0.00000000000E+00 0. -1.
         24    2    1    2    0    0  0.23876772649E+02  0.51305962598E+02  0.81546488418E+02  0.12359604313E+03  0.73646113496E+02 0.  0.
         23    2    1    2    0    0 -0.10492658175E+03  0.71113104511E+02 -0.75718244363E+02  0.17217837643E+03  0.88574711924E+02 0.  0.
        -13    1    3    3    0    0  0.37056169887E+02  0.11555942429E+02  0.90249572931E+01  0.39851592017E+02  0.00000000000E+00 0.  1.
         14    1    3    3    0    0 -0.13179397238E+02  0.39750020170E+02  0.72521531125E+02  0.83744451110E+02  0.00000000000E+00 0. -1.
        -11    1    4    4    0    0 -0.26341167039E+02 -0.11355944050E+02  0.91669706615E+01  0.30113915344E+02  0.00000000000E+00 0.  1.
         11    1    4    4    0    0 -0.78585414706E+02  0.82469048561E+02 -0.84885215024E+02  0.14206446109E+03  0.00000000000E+00 0. -1.
          1    1    1    2  501    0  0.81049809096E+02 -0.12241906711E+03 -0.17423536458E+03  0.22784525849E+03  0.00000000000E+00 0. -1.
<scales pt_clust_5="13000.00000" pt_clust_6="13000.00000" pt_clust_7="13000.00000" pt_clust_8="13000.00000" pt_clust_9="137.32946"></scales>
<clustering>
<clus scale="   73.646">  5  6 -1 -1</clus>
<clus scale="   88.575">  7  8 -1 -1</clus>
<clus scale="   92.877">  1  5  2 -1</clus>
<clus scale="  137.329">  2  9  1 -1</clus>
<clus scale="  137.329">  2  5  1 -1</clus>
</clustering>
</event>
<event>
 9    2  0.9254368E-005  0.1532137E+03  0.7546771E-02  0.1210677E+00
          2   -1    0    0  502    0 -0.00000000000E+00  0.00000000000E+00  0.11677325383E+03  0.11677325383E+03  0.00000000000E+00 0. -1.
         21   -1    0    0  501  502  0.00000000000E+00 -0.00000000000E+00 -0.60096217486E+03  0.60096217486E+03  0.00000000000E+00 0. -1.
         23    2    1    2    0    0 -0.40718593463E+02  0.54470488814E+02  0.35008353519E+02  0.11831094471E+03  0.90259940266E+02 0.  0.
         24    2    1    2    0    0 -0.97398875597E+02 -0.32813267498E+02 -0.13675320823E+03  0.19222805183E+03  0.87675153021E+02 0.  0.
        -13    1    4    4    0    0  0.75157167782E+01 -0.28428356098E+02 -0.38298480045E+02  0.48284894148E+02  0.00000000000E+00 0.  1.
         14    1    4    4    0    0 -0.10491459238E+03 -0.43849114006E+01 -0.98454728189E+02  0.14394315768E+03  0.00000000000E+00 0. -1.
        -13    1    3    3    0    0 -0.40034853517E+02  0.77958492064E+02  0.36114459428E+02  0.94786972527E+02  0.00000000000E+00 0.  1.
         13    1    3    3    0    0 -0.68373994665E+00 -0.23488003250E+02 -0.11061059085E+01  0.23523972183E+02  0.00000000000E+00 0. -1.
          1    1    1    2  501    0  0.13811746906E+03 -0.21657221315E+02 -0.38244406631E+03  0.40719643214E+03  0.00000000000E+00 0. -1.
<scales pt_clust_5="13000.00000" pt_clust_6="13000.00000" pt_clust_7="13000.00000" pt_clust_8="13000.00000" pt_clust_9="125.64833"></scales>
<clustering>
<clus scale="   87.675">  5  6 -1 -1</clus>
<clus scale="   90.260">  7  8 -1 -1</clus>
<clus scale="  113.013">  1  7  2 -1</clus>
<clus scale="  125.648">  2  9  1 -1</clus>
<clus scale="  125.648">  2  5  1 -1</clus>
</clustering>
</event>
<event>
 9    2  0.9254368E-005  0.1311695E+03  0.7546771E-02  0.1248486E+00
          2   -1    0    0  502    0 -0.00000000000E+00  0.00000000000E+00  0.86785424716E+03  0.86785424716E+03  0.00000000000E+00 0. -1.
         21   -1    0    0  501  502  0.00000000000E+00 -0.00000000000E+00 -0.51724854587E+02  0.51724854587E+02  0.00000000000E+00 0.  1.
         24    2    1    2    0    0  0.35039899539E+01 -0.23066612652E+02  0.12735058275E+02  0.83419580571E+02  0.79071474936E+02 0.  0.
         23    2    1    2    0    0 -0.93802279291E+02 -0.55249017532E+01  0.37337440266E+03  0.39583191886E+03  0.91897068985E+02 0.  0.
        -11    1    3    3    0    0  0.19417037455E+02  0.21352536217E+02 -0.10644559950E+02  0.30761319915E+02  0.00000000000E+00 0.  1.
         12    1    3    3    0    0 -0.15913047501E+02 -0.44419148869E+02  0.23379618224E+02  0.52658260656E+02  0.00000000000E+00 0. -1.
        -13    1    4    4    0    0 -0.85258777479E+02 -0.35757731072E+02  0.32699284697E+03  0.33981170733E+03  0.00000000000E+00 0. -1.
         13    1    4    4    0    0 -0.85435018127E+01  0.30232829319E+02  0.46381555689E+02  0.56020211531E+02  0.00000000000E+00 0.  1.
          1    1    1    2  501    0  0.90298289338E+02  0.28591514405E+02  0.43001993164E+03  0.44032760232E+03  0.00000000000E+00 0. -1.
<scales pt_clust_5="13000.00000" pt_clust_6="13000.00000" pt_clust_7="13000.00000" pt_clust_8="13000.00000" pt_clust_9="93.59695"></scales>
<clustering>
<clus scale="   79.071">  5  6 -1 -1</clus>
<clus scale="   82.442">  1  5  2 -1</clus>
<clus scale="   91.897">  7  8 -1 -1</clus>
<clus scale="   93.597">  2  9  1 -1</clus>
<clus scale="   93.597">  2  5  1 -1</clus>
</clustering>
</event>
<event>
 9    2  0.9254368E-005  0.1170064E+03  0.7546771E-02  0.1251588E+00
         21   -1    0    0  501  502  0.00000000000E+00  0.00000000000E+00  0.36595698162E+03  0.36595698162E+03  0.00000000000E+00 0.  1.
         -3   -1    0    0    0  501 -0.00000000000E+00 -0.00000000000E+00 -0.59820154996E+02  0.59820154996E+02  0.00000000000E+00 0.  1.
         24    2    1    2    0    0  0.46245299984E+02  0.41885361279E+02  0.77535272696E+02  0.12798627391E+03  0.80472085452E+02 0.  0.
         23    2    1    2    0    0 -0.70474430251E+02 -0.51211144318E+02  0.85002630774E+02  0.15186392306E+03  0.90818375167E+02 0.  0.
        -13    1    3    3    0    0  0.84899907689E+01  0.36036615627E+02 -0.46893240523E+01  0.37318994750E+02  0.00000000000E+00 0.  1.
         14    1    3    3    0    0  0.37755309215E+02  0.58487456519E+01  0.82224596748E+02  0.90667279158E+02  0.00000000000E+00 0. -1.
        -11    1    4    4    0    0 -0.91679851974E+02 -0.47337635215E+02  0.62165361804E+02  0.12045986541E+03  0.00000000000E+00 0. -1.
         11    1    4    4    0    0  0.21205421723E+02 -0.38735091031E+01  0.22837268970E+02  0.31404057655E+02  0.00000000000E+00 0.  1.
         -4    1    1    2    0  502  0.24229130267E+02  0.93257830394E+01  0.14359892315E+03  0.14592693964E+03  0.00000000000E+00 0.  1.
<scales pt_clust_5="13000.00000" pt_clust_6="13000.00000" pt_clust_7="13000.00000" pt_clust_8="13000.00000" pt_clust_9="25.96191"></scales>
<clustering>
<clus scale="   25.962">  1  9  2 -1</clus>
<clus scale="   80.472">  5  6 -1 -1</clus>
<clus scale="   90.818">  7  8 -1 -1</clus>
<clus scale="  109.171">  2  5  1 -1</clus>
<clus scale="   25.962">  1  5  2 -1</clus>
</clustering>
</event>
<event>
 9    2  0.9254368E-005  0.2532297E+03  0.7546771E-02  0.1111673E+00
          2   -1    0    0  502    0 -0.00000000000E+00  0.00000000000E+00  0.99485866294E+03  0.99485866294E+03  0.00000000000E+00 0. -1.
         21   -1    0    0  501  502  0.00000000000E+00 -0.00000000000E+00 -0.98243810076E+02  0.98243810076E+02  0.00000000000E+00 0. -1.
         23    2    1    2    0    0  0.13029162096E+03  0.22568604506E+03  0.59605027828E+03  0.65707702248E+03  0.92542864732E+02 0.  0.
         24    2    1    2    0    0 -0.88421782370E+02 -0.16403690514E+03  0.11274372753E+03  0.23396018775E+03  0.85438302354E+02 0.  0.
        -11    1    4    4    0    0 -0.69223004380E+02 -0.75160075890E+02  0.20077285918E+02  0.10413433033E+03  0.00000000000E+00 0.  1.
         12    1    4    4    0    0 -0.19198777990E+02 -0.88876829250E+02  0.92666441616E+02  0.12982585742E+03  0.00000000000E+00 0. -1.
        -11    1    3    3    0    0  0.35277409583E+02  0.20883305963E+02  0.17034970833E+03  0.17521310232E+03  0.00000000000E+00 0.  1.
         11    1    3    3    0    0  0.95014211374E+02  0.20480273910E+03  0.42570056994E+03  0.48186392016E+03  0.00000000000E+00 0. -1.
          1    1    1    2  501    0 -0.41869838586E+02 -0.61649139918E+02  0.18782084705E+03  0.20206526278E+03  0.00000000000E+00 0. -1.
<scales pt_clust_5="13000.00000" pt_clust_6="13000.00000" pt_clust_7="13000.00000" pt_clust_8="13000.00000" pt_clust_9="74.52319"></scales>
<clustering>
<clus scale="   74.523">  2  9  1 -1</clus>
<clus scale="   85.438">  5  6 -1 -1</clus>
<clus scale="   92.543">  7  8 -1 -1</clus>
<clus scale="  250.721">  2  5  1 -1</clus>
<clus scale="   74.523">  2  5  1 -1</clus>
</clustering>
</event>
<event>
 9    2  0.9254368E-005  0.1446361E+03  0.7546771E-02  0.1231832E+00
         -3   -1    0    0    0  501 -0.00000000000E+00  0.00000000000E+00  0.24523292746E+03  0.24523292746E+03  0.00000000000E+00 0.  1.
         21   -1    0    0  501  502  0.00000000000E+00 -0.00000000000E+00 -0.12468939650E+03  0.12468939650E+03  0.00000000000E+00 0.  1.
         24    2    1    2    0    0  0.27929053264E+02  0.61100057936E+01  0.58861600826E+02  0.10440788790E+03  0.81356959239E+02 0.  0.
         23    2    1    2    0    0  0.77505307296E+01 -0.10538987044E+03  0.66693324257E+02  0.15989891490E+03  0.99762557943E+02 0.  0.
        -11    1    3    3    0    0  0.50845225191E+02  0.23108757168E+02  0.28349107929E+02  0.62633245987E+02  0.00000000000E+00 0.  1.
         12    1    3    3    0    0 -0.22916171926E+02 -0.16998751374E+02  0.30512492897E+02  0.41774641912E+02  0.00000000000E+00 0. -1.
        -13    1    4    4    0    0 -0.38669172086E+02 -0.65217966976E+02  0.10257469453E+02  0.76510808164E+02  0.00000000000E+00 0.  1.
         13    1    4    4    0    0  0.46419702816E+02 -0.40171903469E+02  0.56435854803E+02  0.83388106737E+02  0.00000000000E+00 0. -1.
         -4    1    1    2    0  502 -0.35679583994E+02  0.99279864651E+02 -0.50113941271E+01  0.10561552116E+03  0.00000000000E+00 0.  1.
<scales pt_clust_5="13000.00000" pt_clust_6="13000.00000" pt_clust_7="13000.00000" pt_clust_8="13000.00000" pt_clust_9="104.72360"></scales>
<clustering>
<clus scale="   81.357">  5  6 -1 -1</clus>
<clus scale="   86.234">  1  5  2 -1</clus>
<clus scale="   99.763">  7  8 -1 -1</clus>
<clus scale="  104.724">  2  9  1 -1</clus>
<clus scale="  104.724">  2  5  1 -1</clus>
</clustering>
</event>
<event>
 9    2  0.1267000E-004  0.9383650E+02  0.7546771E-02  0.1301463E+00
          2   -1    0    0  502    0 -0.00000000000E+00  0.00000000000E+00  0.82245474851E+03  0.82245474851E+03  0.00000000000E+00 0. -1.
         21   -1    0    0  501  502  0.00000000000E+00 -0.00000000000E+00 -0.76133979433E+02  0.76133979433E+02  0.00000000000E+00 0. -1.
         24    2    1    2    0    0 -0.11909357962E+02 -0.14638738565E+02  0.45903649283E+03  0.46629458369E+03  0.79749680609E+02 0.  0.
         23    2    1    2    0    0 -0.33070009551E+02 -0.93316753550E+01 -0.36079048214E+02  0.10493873517E+03  0.92356562968E+02 0.  0.
        -11    1    3    3    0    0  0.33188083295E+02 -0.23038180271E+01  0.14302157823E+03  0.14683980485E+03  0.00000000000E+00 0.  1.
         12    1    3    3    0    0 -0.45097441257E+02 -0.12334920538E+02  0.31601491460E+03  0.31945477884E+03  0.00000000000E+00 0. -1.
        -11    1    4    4    0    0 -0.39756457810E+02 -0.39406902027E+02 -0.46125013275E+02  0.72532728575E+02  0.00000000000E+00 0. -1.
         11    1    4    4    0    0  0.66864482584E+01  0.30075226672E+02  0.10045965061E+02  0.32406006599E+02  0.00000000000E+00 0.  1.
          1    1    1    2  501    0  0.44979367514E+02  0.23970413920E+02  0.32336332447E+03  0.32735540908E+03  0.00000000000E+00 0. -1.
<scales pt_clust_5="13000.00000" pt_clust_6="13000.00000" pt_clust_7="13000.00000" pt_clust_8="13000.00000" pt_clust_9="50.96790"></scales>
<clustering>
<clus scale="   50.968">  2  9  1 -1</clus>
<clus scale="   79.750">  5  6 -1 -1</clus>
<clus scale="   81.459">  1  5  2 -1</clus>
<clus scale="   92.357">  7  8 -1 -1</clus>
<clus scale="   50.968">  2  5  1 -1</clus>
</clustering>
</event>
<event>
 9    2  0.9254368E-005  0.1215668E+03  0.7546771E-02  0.1246522E+00
         21   -1    0    0  501  502  0.00000000000E+00  0.00000000000E+00  0.94846343587E+02  0.94846343587E+02  0.00000000000E+00 0.  1.
         -1   -1    0    0    0  501 -0.00000000000E+00 -0.00000000000E+00 -0.57404275714E+03  0.57404275714E+03  0.00000000000E+00 0.  1.
         23    2    1    2    0    0  0.56437526963E+02 -0.55362472664E+02 -0.51607508149E+03  0.53078556072E+03  0.95653666408E+02 0.  0.
         24    2    1    2    0    0 -0.43273947175E+02  0.14346424679E+02  0.28994866054E+02  0.94311413352E+02  0.77301267944E+02 0.  0.
        -11    1    4    4    0    0 -0.41924732240E+02 -0.16971782386E+02  0.40704178163E+02  0.60848621108E+02  0.00000000000E+00 0.  1.
         12    1    4    4    0    0 -0.13492149347E+01  0.31318207065E+02 -0.11709312109E+02  0.33462792244E+02  0.00000000000E+00 0. -1.
        -11    1    3    3    0    0  0.82682723625E+02 -0.51064565318E+02 -0.42011619137E+03  0.43120950461E+03  0.00000000000E+00 0.  1.
         11    1    3    3    0    0 -0.26245196662E+02 -0.42979073464E+01 -0.95958890122E+02  0.99576056102E+02  0.00000000000E+00 0. -1.
         -2    1    1    2    0  502 -0.13163579788E+02  0.41016047985E+02  0.78838018864E+01  0.43792126660E+02  0.00000000000E+00 0.  1.
<scales pt_clust_5="13000.00000" pt_clust_6="13000.00000" pt_clust_7="13000.00000" pt_clust_8="13000.00000" pt_clust_9="43.07663"></scales>
<clustering>
<clus scale="   43.077">  1  9  2 -1</clus>
<clus scale="   77.301">  5  6 -1 -1</clus>
<clus scale="   95.654">  7  8 -1 -1</clus>
<clus scale="  107.723">  1  5  2 -1</clus>
<clus scale="   43.077">  1  5  2 -1</clus>
</clustering>
</event>
<event>
 9    2  0.9254368E-005  0.2161210E+03  0.7546771E-02  0.1137328E+00
          2   -1    0    0  502    0 -0.00000000000E+00  0.00000000000E+00  0.48614083084E+03  0.48614083084E+03  0.00000000000E+00 0. -1.
         21   -1    0    0  501  502  0.00000000000E+00 -0.00000000000E+00 -0.18102525480E+03  0.18102525480E+03  0.00000000000E+00 0. -1.
         24    2    1    2    0    0 -0.38423676485E+02 -0.17582723243E+03  0.20953149250E+03  0.28833510184E+03  0.82716927065E+02 0.  0.
         23    2    1    2    0    0  0.10739307153E+03  0.20534054827E+03  0.14629774198E+03  0.28827885286E+03  0.89463149504E+02 0.  0.
        -13    1    3    3    0    0 -0.56178333028E+02 -0.10558610111E+03  0.16321515805E+03  0.20234529317E+03  0.00000000000E+00 0.  1.
         14    1    3    3    0    0  0.17754656543E+02 -0.70241131320E+02  0.46316334451E+02  0.85989808670E+02  0.00000000000E+00 0. -1.
        -11    1    4    4    0    0  0.70180478457E+02  0.64447931430E+02  0.24563907794E+02  0.98398277364E+02  0.00000000000E+00 0.  1.
         11    1    4    4    0    0  0.37212593070E+02  0.14089261684E+03  0.12173383419E+03  0.18988057549E+03  0.00000000000E+00 0. -1.
          1    1    1    2  501    0 -0.68969395042E+02 -0.29513315845E+02 -0.50713658453E+02  0.90552130943E+02  0.00000000000E+00 0. -1.
<scales pt_clust_5="13000.00000" pt_clust_6="13000.00000" pt_clust_7="13000.00000" pt_clust_8="13000.00000" pt_clust_9="75.01875"></scales>
<clustering>
<clus scale="   75.019">  2  9  1 -1</clus>
<clus scale="   82.717">  5  6 -1 -1</clus>
<clus scale="   89.463">  7  8 -1 -1</clus>
<clus scale="  213.417">  1  5  2 -1</clus>
<clus scale="   75.019">  2  5  1 -1</clus>
</clustering>
</event>
<event>
 9    2  0.9254368E-005  0.2095356E+03  0.7546771E-02  0.1161279E+00
         21   -1    0    0  501  502  0.00000000000E+00  0.00000000000E+00  0.93834669755E+02  0.93834669755E+02  0.00000000000E+00 0. -1.
          2   -1    0    0  502    0 -0.00000000000E+00 -0.00000000000E+00 -0.12236454784E+04  0.12236454784E+04  0.00000000000E+00 0. -1.
         23    2    1    2    0    0 -0.88498850279E+02  0.37459474628E+02 -0.44231339332E+03  0.46177936042E+03  0.91453709910E+02 0.  0.
         24    2    1    2    0    0  0.14271436472E+03  0.14069106324E+03 -0.97470334308E+02  0.23698526952E+03  0.80623735499E+02 0.  0.
        -11    1    4    4    0    0  0.32527436846E+02  0.50711925456E+02  0.67658912524E+01  0.60625991256E+02  0.00000000000E+00 0.  1.
         12    1    4    4    0    0  0.11018692788E+03  0.89979137787E+02 -0.10423622556E+03  0.17635927827E+03  0.00000000000E+00 0. -1.
        -13    1    3    3    0    0 -0.99550627396E+02  0.81741525720E+01 -0.36360570119E+03  0.37707592090E+03  0.00000000000E+00 0. -1.
         13    1    3    3    0    0  0.11051777118E+02  0.29285322056E+02 -0.78707692137E+02  0.84703439522E+02  0.00000000000E+00 0.  1.
          1    1    1    2  501    0 -0.54215514445E+02 -0.17815053787E+03 -0.59002708105E+03  0.61871551824E+03  0.00000000000E+00 0. -1.
<scales pt_clust_5="13000.00000" pt_clust_6="13000.00000" pt_clust_7="13000.00000" pt_clust_8="13000.00000" pt_clust_9="193.40376"></scales>
<clustering>
<clus scale="   80.624">  5  6 -1 -1</clus>
<clus scale="   91.454">  7  8 -1 -1</clus>
<clus scale="  132.661">  2  7  1 -1</clus>
<clus scale="  193.404">  1  9  2 -1</clus>
<clus scale="  193.404">  1  5  2 -1</clus>
</clustering>
</event>
<event>
 9    2  0.9254368E-005  0.1162757E+03  0.7546771E-02  0.1253084E+00
          2   -1    0    0  502    0 -0.00000000000E+00  0.00000000000E+00  0.34100261626E+03  0.34100261626E+03  0.00000000000E+00 0. -1.
         21   -1    0    0  501  502  0.00000000000E+00 -0.00000000000E+00 -0.89760573301E+02  0.89760573301E+02  0.00000000000E+00 0.  1.
         23    2    1    2    0    0 -0.83241134259E+02 -0.33392893135E+02  0.18834974071E+03  0.22898270929E+03  0.94410193230E+02 0.  0.
         24    2    1    2    0    0  0.99602520115E+01  0.30446088137E+01 -0.20104822598E+02  0.86977915848E+02  0.83979031255E+02 0.  0.
        -13    1    4    4    0    0  0.11344917955E+02  0.17304187675E+02 -0.49843750122E+02  0.53967967357E+02  0.00000000000E+00 0.  1.
         14    1    4    4    0    0 -0.13846659433E+01 -0.14259578861E+02  0.29738927524E+02  0.33009948491E+02  0.00000000000E+00 0. -1.
        -11    1    3    3    0    0 -0.62370407692E+02 -0.58375916379E+02  0.17310431911E+03  0.19303606053E+03  0.00000000000E+00 0. -1.
         11    1    3    3    0    0 -0.20870726567E+02  0.24983023244E+02  0.15245421597E+02  0.35946648766E+02  0.00000000000E+00 0.  1.
          1    1    1    2  501    0  0.73280882248E+02  0.30348284322E+02  0.82997124844E+02  0.11480256442E+03  0.00000000000E+00 0. -1.
<scales pt_clust_5="13000.00000" pt_clust_6="13000.00000" pt_clust_7="13000.00000" pt_clust_8="13000.00000" pt_clust_9="79.31653"></scales>
<clustering>
<clus scale="   79.317">  2  9  1 -1</clus>
<clus scale="   83.979">  5  6 -1 -1</clus>
<clus scale="   94.410">  7  8 -1 -1</clus>
<clus scale="  107.978">  2  5  1 -1</clus>
<clus scale="   79.317">  2  5  1 -1</clus>
</clustering>
</event>
<event>
 9    2  0.9254368E-005  0.9682965E+02  0.7546771E-02  0.1291870E+00
          2   -1    0    0  502    0 -0.00000000000E+00  0.00000000000E+00  0.90712621293E+03  0.90712621293E+03  0.00000000000E+00 0. -1.
         21   -1    0    0  501  502  0.00000000000E+00 -0.00000000000E+00 -0.22151020560E+02  0.22151020560E+02  0.00000000000E+00 0. -1.
         24    2    1    2    0    0  0.28187034534E+02  0.95985034124E+01  0.33150830859E+03  0.34258065044E+03  0.81099341583E+02 0.  0.
         23    2    1    2    0    0 -0.16905822495E+02 -0.65675392020E+02  0.20856475587E+03  0.23708342395E+03  0.90056807465E+02 0.  0.
        -13    1    3    3    0    0  0.54293729705E+02 -0.11830274246E+01  0.26168616232E+03  0.26726177465E+03  0.00000000000E+00 0.  1.
         14    1    3    3    0    0 -0.26106695171E+02  0.10781530837E+02  0.69822146276E+02  0.75318875791E+02  0.00000000000E+00 0. -1.
        -13    1    4    4    0    0 -0.26083885182E+02 -0.35999298048E+02  0.25190441838E+02  0.51096740465E+02  0.00000000000E+00 0. -1.
         13    1    4    4    0    0  0.91780626868E+01 -0.29676093971E+02  0.18337431403E+03  0.18598668349E+03  0.00000000000E+00 0.  1.
          1    1    1    2  501    0 -0.11281212039E+02  0.56076888607E+02  0.34490212790E+03  0.34961315910E+03  0.00000000000E+00 0. -1.
<scales pt_clust_5="13000.00000" pt_clust_6="13000.00000" pt_clust_7="13000.00000" pt_clust_8="13000.00000" pt_clust_9="57.20041"></scales>
<clustering>
<clus scale="   57.200">  2  9  1 -1</clus>
<clus scale="   81.099">  5  6 -1 -1</clus>
<clus scale="   88.560">  1  5  2 -1</clus>
<clus scale="   90.057">  7  8 -1 -1</clus>
<clus scale="   57.200">  2  5  1 -1</clus>
</clustering>
</event>
<event>
 9    2  0.9254368E-005  0.1711088E+03  0.7546771E-02  0.1177986E+00
         21   -1    0    0  501  502  0.00000000000E+00  0.00000000000E+00  0.30602366629E+03  0.30602366629E+03  0.00000000000E+00 0. -1.
         -1   -1    0    0    0  501 -0.00000000000E+00 -0.00000000000E+00 -0.18061269226E+03  0.18061269226E+03  0.00000000000E+00 0.  1.
         23    2    1    2    0    0  0.95626343382E+02  0.16357571134E+03  0.43422161738E+02  0.21452377376E+03  0.90738935925E+02 0.  0.
         24    2    1    2    0    0 -0.73521018922E+02 -0.67560377946E+02  0.11046008662E+03  0.16955429366E+03  0.81101682299E+02 0.  0.
        -11    1    4    4    0    0 -0.52331853465E+02 -0.92667135551E+01  0.14146184574E+02  0.54996449023E+02  0.00000000000E+00 0.  1.
         12    1    4    4    0    0 -0.21189165457E+02 -0.58293664391E+02  0.96313902048E+02  0.11455784464E+03  0.00000000000E+00 0. -1.
        -11    1    3    3    0    0 -0.56661691954E+01  0.20979426162E+02 -0.18941560983E+02  0.28827496039E+02  0.00000000000E+00 0.  1.
         11    1    3    3    0    0  0.10129251258E+03  0.14259628517E+03  0.62363722720E+02  0.18569627773E+03  0.00000000000E+00 0. -1.
         -2    1    1    2    0  502 -0.22105324459E+02 -0.96015333389E+02 -0.28471274338E+02  0.10255829112E+03  0.00000000000E+00 0.  1.
<scales pt_clust_5="13000.00000" pt_clust_6="13000.00000" pt_clust_7="13000.00000" pt_clust_8="13000.00000" pt_clust_9="98.52715"></scales>
<clustering>
<clus scale="   81.102">  5  6 -1 -1</clus>
<clus scale="   90.739">  7  8 -1 -1</clus>
<clus scale="   98.527">  1  9  2 -1</clus>
<clus scale="  166.199">  1  5  2 -1</clus>
<clus scale="   98.527">  1  5  2 -1</clus>
</clustering>
</event>
<event>
 9    2  0.9254368E-005  0.1174932E+03  0.7546771E-02  0.1250518E+00
         21   -1    0    0  501  502  0.00000000000E+00  0.00000000000E+00  0.39672027402E+02  0.39672027402E+02  0.00000000000E+00 0.  1.
          2   -1    0    0  502    0 -0.00000000000E+00 -0.00000000000E+00 -0.68556696501E+03  0.68556696501E+03  0.00000000000E+00 0. -1.
         24    2    1    2    0    0 -0.24522703382E+02 -0.70719964027E+02 -0.47687532804E+03  0.48940155300E+03  0.80629555928E+02 0.  0.
         23    2    1    2    0    0 -0.12359411992E+02  0.82106936325E+02 -0.14657372718E+03  0.19118577417E+03  0.90409284308E+02 0.  0.
        -13    1    3    3    0    0 -0.88913146895E+01 -0.52101095416E+02 -0.11338210373E+03  0.12509628718E+03  0.00000000000E+00 0.  1.
         14    1    3    3    0    0 -0.15631388692E+02 -0.18618868612E+02 -0.36349322432E+03  0.36430526582E+03  0.00000000000E+00 0. -1.
        -13    1    4    4    0    0 -0.33088575445E+02 -0.36671386138E+01 -0.28793335810E+02  0.44015428177E+02  0.00000000000E+00 0. -1.
         13    1    4    4    0    0  0.20729163453E+02  0.85774074938E+02 -0.11778039137E+03  0.14717034599E+03  0.00000000000E+00 0.  1.
          1    1    1    2  501    0  0.36882115374E+02 -0.11386972297E+02 -0.22445882383E+02  0.44651665238E+02  0.00000000000E+00 0. -1.
<scales pt_clust_5="13000.00000" pt_clust_6="13000.00000" pt_clust_7="13000.00000" pt_clust_8="13000.00000" pt_clust_9="38.59992"></scales>
<clustering>
<clus scale="   38.600">  1  9  2 -1</clus>
<clus scale="   80.630">  5  6 -1 -1</clus>
<clus scale="   90.409">  7  8 -1 -1</clus>
<clus scale="  110.145">  2  5  1 -1</clus>
<clus scale="   38.600">  1  5  2 -1</clus>
</clustering>
</event>
<event>
 9    2  0.9254368E-005  0.1101208E+03  0.7546771E-02  0.1263928E+00
         21   -1    0    0  501  502  0.00000000000E+00  0.00000000000E+00  0.88553161135E+03  0.88553161135E+03  0.00000000000E+00 0. -1.
         -3   -1    0    0    0  501 -0.00000000000E+00 -0.00000000000E+00 -0.21877547754E+02  0.21877547754E+02  0.00000000000E+00 0.  1.
         23    2    1    2    0    0 -0.55625742600E+02 -0.54329054149E+02  0.35329619320E+03  0.37291956455E+03  0.90581080429E+02 0.  0.
         24    2    1    2    0    0  0.53076557992E+02  0.36685763695E+01  0.41765305975E+03  0.42881479024E+03  0.81347812157E+02 0.  0.
        -11    1    4    4    0    0 -0.73176396591E+01  0.30316548670E+02  0.13274350763E+03  0.13635791063E+03  0.00000000000E+00 0.  1.
         12    1    4    4    0    0  0.60394197651E+02 -0.26647972301E+02  0.28490955212E+03  0.29245687960E+03  0.00000000000E+00 0. -1.
        -13    1    3    3    0    0  0.18221985815E+02 -0.37823935350E+02  0.15780046220E+03  0.16329016113E+03  0.00000000000E+00 0.  1.
         13    1    3    3    0    0 -0.73847728415E+02 -0.16505118799E+02  0.19549573100E+03  0.20962940342E+03  0.00000000000E+00 0. -1.
         -4    1    1    2    0  502  0.25491846082E+01  0.50660477779E+02  0.92704810642E+02  0.10567480432E+03  0.00000000000E+00 0.  1.
<scales pt_clust_5="13000.00000" pt_clust_6="13000.00000" pt_clust_7="13000.00000" pt_clust_8="13000.00000" pt_clust_9="50.72460"></scales>
<clustering>
<clus scale="   50.725">  1  9  2 -1</clus>
<clus scale="   81.348">  5  6 -1 -1</clus>
<clus scale="   90.581">  7  8 -1 -1</clus>
<clus scale="  102.660">  1  5  2 -1</clus>
<clus scale="   50.725">  1  5  2 -1</clus>
</clustering>
</event>
<event>
 9    2  0.9254368E-005  0.1213341E+03  0.7546771E-02  0.1244403E+00
          2   -1    0    0  502    0 -0.00000000000E+00  0.00000000000E+00  0.68613291055E+03  0.68613291055E+03  0.00000000000E+00 0. -1.
         21   -1    0    0  501  502  0.00000000000E+00 -0.00000000000E+00 -0.28827616662E+02  0.28827616662E+02  0.00000000000E+00 0.  1.
         24    2    1    2    0    0  0.73884276294E+02 -0.23934987161E+02  0.38731029222E+03  0.40315193527E+03  0.80563332614E+02 0.  0.
         23    2    1    2    0    0 -0.68438458999E+02  0.51321631782E+02  0.24002108912E+03  0.27084372085E+03  0.91806673746E+02 0.  0.
        -11    1    3    3    0    0 -0.11680270749E+02 -0.23468017097E+02  0.83050380697E+02  0.87089277671E+02  0.00000000000E+00 0.  1.
         12    1    3    3    0    0  0.85564547043E+02 -0.46697006459E+00  0.30425991152E+03  0.31606265760E+03  0.00000000000E+00 0. -1.
        -11    1    4    4    0    0 -0.30423319529E+02  0.48661580278E+02  0.47237436827E+02  0.74329692615E+02  0.00000000000E+00 0.  1.
         11    1    4    4    0    0 -0.38015139470E+02  0.26600515040E+01  0.19278365229E+03  0.19651402824E+03  0.00000000000E+00 0. -1.
          1    1    1    2  501    0 -0.54458172949E+01 -0.27386644621E+02  0.29973912555E+02  0.40964871090E+02  0.00000000000E+00 0. -1.
<scales pt_clust_5="13000.00000" pt_clust_6="13000.00000" pt_clust_7="13000.00000" pt_clust_8="13000.00000" pt_clust_9="27.92284"></scales>
<clustering>
<clus scale="   27.923">  2  9  1 -1</clus>
<clus scale="   80.563">  5  6 -1 -1</clus>
<clus scale="   91.807">  7  8 -1 -1</clus>
<clus scale="  113.066">  1  5  2 -1</clus>
<clus scale="   27.923">  2  5  1 -1</clus>
</clustering>
</event>
<event>
 9    2  0.9254368E-005  0.1403527E+03  0.7546771E-02  0.1216122E+00
         -3   -1    0    0    0  501 -0.00000000000E+00  0.00000000000E+00  0.19462072355E+03  0.19462072355E+03  0.00000000000E+00 0.  1.
         21   -1    0    0  501  502  0.00000000000E+00 -0.00000000000E+00 -0.39926348018E+03  0.39926348018E+03  0.00000000000E+00 0. -1.
         23    2    1    2    0    0  0.10750585454E+03 -0.32381017356E+02  0.11982930763E+03  0.18748569152E+03  0.90475314380E+02 0.  0.
         24    2    1    2    0    0 -0.38210007792E+02  0.83102615390E+02 -0.29115445393E+03  0.31428630868E+03  0.75092731981E+02 0.  0.
        -11    1    4    4    0    0 -0.28274279270E+02 -0.57714842377E+01 -0.66895587856E+02  0.72854406683E+02  0.00000000000E+00 0.  1.
         12    1    4    4    0    0 -0.99357285212E+01  0.88874099628E+02 -0.22425886608E+03  0.24143190199E+03  0.00000000000E+00 0. -1.
        -13    1    3    3    0    0  0.12040302794E+03 -0.13296697559E+02  0.99389679929E+02  0.15669077758E+03  0.00000000000E+00 0.  1.
         13    1    3    3    0    0 -0.12897173401E+02 -0.19084319797E+02  0.20439627699E+02  0.30794913936E+02  0.00000000000E+00 0. -1.
         -4    1    1    2    0  502 -0.69295846744E+02 -0.50721598034E+02 -0.33317610326E+02  0.92112203540E+02  0.00000000000E+00 0.  1.
<scales pt_clust_5="13000.00000" pt_clust_6="13000.00000" pt_clust_7="13000.00000" pt_clust_8="13000.00000" pt_clust_9="85.87546"></scales>
<clustering>
<clus scale="   75.093">  5  6 -1 -1</clus>
<clus scale="   85.875">  2  9  1 -1</clus>
<clus scale="   90.475">  7  8 -1 -1</clus>
<clus scale="  130.966">  2  5  1 -1</clus>
<clus scale="   85.875">  2  5  1 -1</clus>
</clustering>
</event>
<event>
 9    2  0.9254368E-005  0.9172738E+02  0.7546771E-02  0.1304418E+00
          4   -1    0    0  502    0 -0.00000000000E+00  0.00000000000E+00  0.11386098824E+03  0.11386098824E+03  0.00000000000E+00 0. -1.
         21   -1    0    0  501  502  0.00000000000E+00 -0.00000000000E+00 -0.27080785677E+03  0.27080785677E+03  0.00000000000E+00 0.  1.
         24    2    1    2    0    0 -0.11456383581E+02 -0.47110983307E+00  0.62071861244E+02  0.10312435713E+03  0.81549042947E+02 0.  0.
         23    2    1    2    0    0  0.14671436296E+02 -0.25324491104E+02 -0.44764360001E+02  0.10536181286E+03  0.90778206583E+02 0.  0.
        -11    1    3    3    0    0 -0.10658285245E+02 -0.34272517836E+02  0.42494592179E+01  0.36142252653E+02  0.00000000000E+00 0.  1.
         12    1    3    3    0    0 -0.79809833638E+00  0.33801408003E+02  0.57822402026E+02  0.66982104475E+02  0.00000000000E+00 0. -1.
        -13    1    4    4    0    0 -0.34949150457E+02 -0.16444475496E+02 -0.10506990741E+01  0.38638942280E+02  0.00000000000E+00 0. -1.
         13    1    4    4    0    0  0.49620586753E+02 -0.88800156071E+01 -0.43713660927E+02  0.66722870581E+02  0.00000000000E+00 0.  1.
          3    1    1    2  501    0 -0.32150527150E+01  0.25795600937E+02 -0.17425436977E+03  0.17618267501E+03  0.00000000000E+00 0. -1.
<scales pt_clust_5="13000.00000" pt_clust_6="13000.00000" pt_clust_7="13000.00000" pt_clust_8="13000.00000" pt_clust_9="25.99518"></scales>
<clustering>
<clus scale="   25.995">  2  9  1 -1</clus>
<clus scale="   81.549">  5  6 -1 -1</clus>
<clus scale="   82.604">  1  5  2 -1</clus>
<clus scale="   90.778">  7  8 -1 -1</clus>
<clus scale="   25.995">  2  5  1 -1</clus>
</clustering>
</event>
<event>
 9    2  0.9254368E-005  0.1142522E+03  0.7546771E-02  0.1257654E+00
          2   -1    0    0  502    0 -0.00000000000E+00  0.00000000000E+00  0.26243267487E+03  0.26243267487E+03  0.00000000000E+00 0. -1.
         21   -1    0    0  501  502  0.00000000000E+00 -0.00000000000E+00 -0.61569935946E+02  0.61569935946E+02  0.00000000000E+00 0.  1.
         23    2    1    2    0    0  0.66092077377E+02 -0.13711866284E+02  0.10873518942E+03  0.15780290706E+03  0.92315968761E+02 0.  0.
         24    2    1    2    0    0 -0.68327674606E+02 -0.71785178416E+01  0.98873947226E+02  0.14413344159E+03  0.79235025775E+02 0.  0.
        -13    1    4    4    0    0 -0.24413337909E+02  0.22916877266E+02  0.19376221027E+01  0.33540255081E+02  0.00000000000E+00 0.  1.
         14    1    4    4    0    0 -0.43914336697E+02 -0.30095395107E+02  0.96936325124E+02  0.11059318651E+03  0.00000000000E+00 0. -1.
        -11    1    3    3    0    0  0.24135833042E+02 -0.38918928022E+02  0.97300482908E+02  0.10753885516E+03  0.00000000000E+00 0. -1.
         11    1    3    3    0    0  0.41956244335E+02  0.25207061738E+02  0.11434706515E+02  0.50264051899E+02  0.00000000000E+00 0.  1.
          1    1    1    2  501    0  0.22355972287E+01  0.20890384126E+02 -0.67463977213E+01  0.22066262169E+02  0.00000000000E+00 0. -1.
<scales pt_clust_5="13000.00000" pt_clust_6="13000.00000" pt_clust_7="13000.00000" pt_clust_8="13000.00000" pt_clust_9="21.00967"></scales>
<clustering>
<clus scale="   21.010">  2  9  1 -1</clus>
<clus scale="   79.235">  5  6 -1 -1</clus>
<clus scale="   92.316">  7  8 -1 -1</clus>
<clus scale="  103.969">  2  5  1 -1</clus>
<clus scale="   21.010">  2  5  1 -1</clus>
</clustering>
</event>
<event>
 9    2  0.9254368E-005  0.1021362E+03  0.7546771E-02  0.1280587E+00
         21   -1    0    0  501  502  0.00000000000E+00  0.00000000000E+00  0.11047625115E+03  0.11047625115E+03  0.00000000000E+00 0.  1.
         -1   -1    0    0    0  501 -0.00000000000E+00 -0.00000000000E+00 -0.17457866536E+03  0.17457866536E+03  0.00000000000E+00 0.  1.
         24    2    1    2    0    0  0.34301614766E+02  0.26957992326E+02 -0.60608611288E+02  0.11025964585E+03  0.81119982838E+02 0.  0.
         23    2    1    2    0    0 -0.21831507000E+02 -0.47749782688E+02 -0.54414899282E+02  0.11839704206E+03  0.91105553394E+02 0.  0.
        -11    1    3    3    0    0  0.40969743559E+02  0.15694787386E+01 -0.71032702628E+02  0.82016022785E+02  0.00000000000E+00 0.  1.
         12    1    3    3    0    0 -0.66681287938E+01  0.25388513588E+02  0.10424091340E+02  0.28243623069E+02  0.00000000000E+00 0. -1.
        -13    1    4    4    0    0  0.13769411332E+02 -0.60819597254E+02 -0.50554464836E+02  0.80276858518E+02  0.00000000000E+00 0.  1.
         13    1    4    4    0    0 -0.35600918332E+02  0.13069814567E+02 -0.38604344458E+01  0.38120183539E+02  0.00000000000E+00 0. -1.
         -2    1    1    2    0  502 -0.12470107765E+02  0.20791790362E+02  0.50921096362E+02  0.56398228597E+02  0.00000000000E+00 0.  1.
<scales pt_clust_5="13000.00000" pt_clust_6="13000.00000" pt_clust_7="13000.00000" pt_clust_8="13000.00000" pt_clust_9="24.24463"></scales>
<clustering>
<clus scale="   24.245">  1  9  2 -1</clus>
<clus scale="   81.120">  5  6 -1 -1</clus>
<clus scale="   91.106">  7  8 -1 -1</clus>
<clus scale="   93.338">  2  5  1 -1</clus>
<clus scale="   24.245">  1  5  2 -1</clus>
</clustering>
</event>
<event>
 9    2  0.9254368E-005  0.9594155E+02  0.7546771E-02  0.1294785E+00
          4   -1    0    0  502    0 -0.00000000000E+00  0.00000000000E+00  0.22072255343E+03  0.22072255343E+03  0.00000000000E+00 0. -1.
         21   -1    0    0  501  502  0.00000000000E+00 -0.00000000000E+00 -0.23169378759E+03  0.23169378759E+03  0.00000000000E+00 0. -1.
         24    2    1    2    0    0 -0.13004098999E+02 -0.38454178293E+02  0.14749343919E+03  0.17318565750E+03  0.81185755770E+02 0.  0.
         23    2    1    2    0    0  0.15116339546E+02 -0.12450834673E+02  0.18289464775E+02  0.95280126990E+02  0.91434517947E+02 0.  0.
        -13    1    3    3    0    0  0.12439666120E+02 -0.19939325340E+02  0.11847979127E+01  0.23531377653E+02  0.00000000000E+00 0.  1.
         14    1    3    3    0    0 -0.25443765119E+02 -0.18514852954E+02  0.14630864128E+03  0.14965427985E+03  0.00000000000E+00 0. -1.
        -13    1    4    4    0    0  0.15453622346E+02 -0.44403233532E+02  0.35567854497E+02  0.58953658625E+02  0.00000000000E+00 0. -1.
         13    1    4    4    0    0 -0.33728279963E+00  0.31952398859E+02 -0.17278389722E+02  0.36326468366E+02  0.00000000000E+00 0.  1.
          3    1    1    2  501    0 -0.21122405477E+01  0.50905012967E+02 -0.17675413812E+03  0.18395055653E+03  0.00000000000E+00 0. -1.
<scales pt_clust_5="13000.00000" pt_clust_6="13000.00000" pt_clust_7="13000.00000" pt_clust_8="13000.00000" pt_clust_9="50.94882"></scales>
<clustering>
<clus scale="   50.949">  2  9  1 -1</clus>
<clus scale="   81.186">  5  6 -1 -1</clus>
<clus scale="   86.230">  1  5  2 -1</clus>
<clus scale="   91.435">  7  8 -1 -1</clus>
<clus scale="   50.949">  2  5  1 -1</clus>
</clustering>
</event>
<event>
 9    2  0.9254368E-005  0.1521871E+03  0.7546771E-02  0.1198733E+00
         21   -1    0    0  501  502  0.00000000000E+00  0.00000000000E+00  0.19102464532E+03  0.19102464532E+03  0.00000000000E+00 0. -1.
          2   -1    0    0  502    0 -0.00000000000E+00 -0.00000000000E+00 -0.19197083932E+03  0.19197083932E+03  0.00000000000E+00 0. -1.
         23    2    1    2    0    0 -0.19025681592E+02  0.10152090514E+03 -0.55941161848E+02  0.15165030336E+03  0.95916266498E+02 0.  0.
         24    2    1    2    0    0 -0.58564341599E+00 -0.14366907167E+03  0.58140002696E+02  0.18475158457E+03  0.10055716262E+03 0.  0.
        -11    1    4    4    0    0 -0.47854345710E+02 -0.43805115188E+02  0.22017734673E+02  0.68510635380E+02  0.00000000000E+00 0.  1.
         12    1    4    4    0    0  0.47268702294E+02 -0.99863956481E+02  0.36122268023E+02  0.11624094919E+03  0.00000000000E+00 0. -1.
        -13    1    3    3    0    0  0.97510417241E+00  0.11589397476E+03 -0.50524319803E+02  0.12643208100E+03  0.00000000000E+00 0. -1.
         13    1    3    3    0    0 -0.20000785764E+02 -0.14373069616E+02 -0.54168420456E+01  0.25218222363E+02  0.00000000000E+00 0.  1.
          1    1    1    2  501    0  0.19611325008E+02  0.42148166526E+02 -0.31450348500E+01  0.46593596709E+02  0.00000000000E+00 0. -1.
<scales pt_clust_5="13000.00000" pt_clust_6="13000.00000" pt_clust_7="13000.00000" pt_clust_8="13000.00000" pt_clust_9="46.48735"></scales>
<clustering>
<clus scale="   46.487">  1  9  2 -1</clus>
<clus scale="   95.916">  7  8 -1 -1</clus>
<clus scale="  100.557">  5  6 -1 -1</clus>
<clus scale="  149.161">  2  7  1 -1</clus>
<clus scale="   46.487">  1  5  2 -1</clus>
</clustering>
</event>
<event>
 9    2  0.9254368E-005  0.2928901E+03  0.7546771E-02  0.1135199E+00
         21   -1    0    0  501  502  0.00000000000E+00  0.00000000000E+00  0.10276932302E+04  0.10276932302E+04  0.00000000000E+00 0. -1.
          2   -1    0    0  502    0 -0.00000000000E+00 -0.00000000000E+00 -0.23866411349E+03  0.23866411349E+03  0.00000000000E+00 0. -1.
         24    2    1    2    0    0 -0.13090905678E+02  0.38924781627E+02 -0.12342170365E+03  0.15292454149E+03  0.80414476450E+02 0.  0.
         23    2    1    2    0    0 -0.10611681038E+03  0.22512367999E+03  0.16524631645E+03  0.31202988212E+03  0.90082481622E+02 0.  0.
        -13    1    3    3    0    0 -0.28950164496E+02 -0.15786296642E+02 -0.51921044560E+02  0.61507024430E+02  0.00000000000E+00 0.  1.
         14    1    3    3    0    0  0.15859258818E+02  0.54711078269E+02 -0.71500659086E+02  0.91417517059E+02  0.00000000000E+00 0. -1.
        -13    1    4    4    0    0 -0.21680115146E+02  0.15430380866E+02  0.53743961111E+02  0.59971138078E+02  0.00000000000E+00 0. -1.
         13    1    4    4    0    0 -0.84436695236E+02  0.20969329913E+03  0.11150235534E+03  0.25205874404E+03  0.00000000000E+00 0.  1.
          1    1    1    2  501    0  0.11920771606E+03 -0.26404846162E+03  0.74720450390E+03  0.80140292007E+03  0.00000000000E+00 0. -1.
<scales pt_clust_5="13000.00000" pt_clust_6="13000.00000" pt_clust_7="13000.00000" pt_clust_8="13000.00000" pt_clust_9="278.69293"></scales>
<clustering>
<clus scale="   80.414">  5  6 -1 -1</clus>
<clus scale="   90.082">  7  8 -1 -1</clus>
<clus scale="   90.294">  2  5  1 -1</clus>
<clus scale="  278.693">  1  9  2 -1</clus>
<clus scale="  278.693">  1  5  2 -1</clus>
</clustering>
</event>
<event>
 9    2  0.9254368E-005  0.1132070E+03  0.7546771E-02  0.1259212E+00
         21   -1    0    0  501  502  0.00000000000E+00  0.00000000000E+00  0.29263717645E+03  0.29263717645E+03  0.00000000000E+00 0. -1.
          2   -1    0    0  502    0 -0.00000000000E+00 -0.00000000000E+00 -0.10065032265E+03  0.10065032265E+03  0.00000000000E+00 0. -1.
         23    2    1    2    0    0  0.21808656229E+02  0.56007045713E+02 -0.27569879714E+02  0.11453840990E+03  0.93522951297E+02 0.  0.
         24    2    1    2    0    0 -0.71749826315E+02 -0.53705547932E+02  0.16473539785E+03  0.20455477536E+03  0.81685870044E+02 0.  0.
        -13    1    4    4    0    0  0.89614906624E+01 -0.36582772808E+02  0.64905213721E+02  0.75041950596E+02  0.00000000000E+00 0.  1.
         14    1    4    4    0    0 -0.80711316977E+02 -0.17122775124E+02  0.99830184129E+02  0.12951282477E+03  0.00000000000E+00 0. -1.
        -13    1    3    3    0    0  0.46442758058E+02  0.13520496579E+02  0.13825870263E+02  0.50307934686E+02  0.00000000000E+00 0.  1.
         13    1    3    3    0    0 -0.24634101829E+02  0.42486549134E+02 -0.41395749977E+02  0.64230475215E+02  0.00000000000E+00 0. -1.
          1    1    1    2  501    0  0.49941170086E+02 -0.23014977814E+01  0.54821335660E+02  0.74194313833E+02  0.00000000000E+00 0. -1.
<scales pt_clust_5="13000.00000" pt_clust_6="13000.00000" pt_clust_7="13000.00000" pt_clust_8="13000.00000" pt_clust_9="49.99417"></scales>
<clustering>
<clus scale="   49.994">  1  9  2 -1</clus>
<clus scale="   81.686">  5  6 -1 -1</clus>
<clus scale="   93.523">  7  8 -1 -1</clus>
<clus scale="  103.643">  1  5  2 -1</clus>
<clus scale="   49.994">  1  5  2 -1</clus>
</clustering>
</event>
<event>
 9    2  0.9254368E-005  0.1321292E+03  0.7546771E-02  0.1226801E+00
          2   -1    0    0  502    0 -0.00000000000E+00  0.00000000000E+00  0.18392500889E+03  0.18392500889E+03  0.00000000000E+00 0. -1.
         21   -1    0    0  501  502  0.00000000000E+00 -0.00000000000E+00 -0.31304084118E+03  0.31304084118E+03  0.00000000000E+00 0.  1.
         23    2    1    2    0    0 -0.56934701154E+02  0.95187294463E+02 -0.32344657844E+02  0.14619914803E+03  0.89587012285E+02 0.  0.
         24    2    1    2    0    0 -0.12912253542E+02 -0.78003667599E+02 -0.19743099349E+03  0.22704817764E+03  0.79502071234E+02 0.  0.
        -11    1    4    4    0    0  0.27749768146E+02 -0.15236312736E+02 -0.95595413260E+02  0.10070093294E+03  0.00000000000E+00 0.  1.
         12    1    4    4    0    0 -0.40662021688E+02 -0.62767354863E+02 -0.10183558023E+03  0.12634724470E+03  0.00000000000E+00 0. -1.
        -11    1    3    3    0    0 -0.79873850242E+02  0.57371787941E+02 -0.21793694622E+02  0.10072893889E+03  0.00000000000E+00 0.  1.
         11    1    3    3    0    0  0.22939149088E+02  0.37815506522E+02 -0.10550963221E+02  0.45470209140E+02  0.00000000000E+00 0. -1.
          1    1    1    2  501    0  0.69846954696E+02 -0.17183626864E+02  0.10065981903E+03  0.12371852440E+03  0.00000000000E+00 0. -1.
<scales pt_clust_5="13000.00000" pt_clust_6="13000.00000" pt_clust_7="13000.00000" pt_clust_8="13000.00000" pt_clust_9="71.92968"></scales>
<clustering>
<clus scale="   71.930">  2  9  1 -1</clus>
<clus scale="   79.502">  5  6 -1 -1</clus>
<clus scale="   89.587">  7  8 -1 -1</clus>
<clus scale="  125.510">  2  5  1 -1</clus>
<clus scale="   71.930">  2  5  1 -1</clus>
</clustering>
</event>
<event>
 9    2  0.9254368E-005  0.1600773E+03  0.7546771E-02  0.1189954E+00
          2   -1    0    0  502    0 -0.00000000000E+00  0.00000000000E+00  0.99911524960E+02  0.99911524960E+02  0.00000000000E+00 0. -1.
         21   -1    0    0  501  502  0.00000000000E+00 -0.00000000000E+00 -0.58617861721E+03  0.58617861721E+03  0.00000000000E+00 0. -1.
         24    2    1    2    0    0  0.93117086286E+02 -0.89320866011E+02 -0.63657543456E+02  0.16517419112E+03  0.81124729337E+02 0.  0.
         23    2    1    2    0    0 -0.16779004743E+02  0.16401982297E+03 -0.20174527194E+03  0.27558257449E+03  0.89780639806E+02 0.  0.
        -13    1    3    3    0    0  0.58746019159E+02 -0.55135736423E+02 -0.80464612865E+02  0.11386658035E+03  0.00000000000E+00 0.  1.
         14    1    3    3    0    0  0.34371067127E+02 -0.34185129588E+02  0.16807069410E+02  0.51307610766E+02  0.00000000000E+00 0. -1.
        -13    1    4    4    0    0  0.25687341588E+02  0.34753085255E+02 -0.17693782364E+02  0.46697819938E+02  0.00000000000E+00 0.  1.
         13    1    4    4    0    0 -0.42466346331E+02  0.12926673772E+03 -0.18405148958E+03  0.22888475455E+03  0.00000000000E+00 0. -1.
          1    1    1    2  501    0 -0.76338081543E+02 -0.74698956960E+02 -0.22086427686E+03  0.24533337656E+03  0.00000000000E+00 0. -1.
<scales pt_clust_5="13000.00000" pt_clust_6="13000.00000" pt_clust_7="13000.00000" pt_clust_8="13000.00000" pt_clust_9="106.80560"></scales>
<clustering>
<clus scale="   81.125">  5  6 -1 -1</clus>
<clus scale="   89.781">  7  8 -1 -1</clus>
<clus scale="  106.806">  2  9  1 -1</clus>
<clus scale="  155.388">  1  5  2 -1</clus>
<clus scale="  106.806">  2  5  1 -1</clus>
</clustering>
</event>
<event>
 9    2  0.9254368E-005  0.1479184E+03  0.7546771E-02  0.1203928E+00
         21   -1    0    0  501  502  0.00000000000E+00  0.00000000000E+00  0.59072292441E+02  0.59072292441E+02  0.00000000000E+00 0.  1.
          2   -1    0    0  502    0 -0.00000000000E+00 -0.00000000000E+00 -0.49719176109E+03  0.49719176109E+03  0.00000000000E+00 0. -1.
         24    2    1    2    0    0  0.41583175063E+02 -0.10615486465E+03 -0.20922178613E+03  0.25337187285E+03  0.86171540665E+02 0.  0.
         23    2    1    2    0    0 -0.20177314195E+02  0.12120723371E+03 -0.12997939825E+03  0.20057106040E+03  0.90751246760E+02 0.  0.
        -13    1    3    3    0    0  0.41447582938E+02 -0.11439722776E+03 -0.21219842403E+03  0.24460743858E+03  0.00000000000E+00 0.  1.
         14    1    3    3    0    0  0.13559212542E+00  0.82423631116E+01  0.29766378909E+01  0.87644342671E+01  0.00000000000E+00 0. -1.
        -13    1    4    4    0    0 -0.38021992184E+02  0.12735248135E+02 -0.52588026194E+02  0.66131376318E+02  0.00000000000E+00 0. -1.
         13    1    4    4    0    0  0.17844677989E+02  0.10847198558E+03 -0.77391372061E+02  0.13443968409E+03  0.00000000000E+00 0.  1.
          1    1    1    2  501    0 -0.21405860868E+02 -0.15052369068E+02 -0.98918284259E+02  0.10232112028E+03  0.00000000000E+00 0. -1.
<scales pt_clust_5="13000.00000" pt_clust_6="13000.00000" pt_clust_7="13000.00000" pt_clust_8="13000.00000" pt_clust_9="26.16840"></scales>
<clustering>
<clus scale="   26.168">  1  9  2 -1</clus>
<clus scale="   86.172">  5  6 -1 -1</clus>
<clus scale="   90.751">  7  8 -1 -1</clus>
<clus scale="  145.154">  2  5  1 -1</clus>
<clus scale="   26.168">  1  5  2 -1</clus>
</clustering>
</event>
<event>
 9    2  0.9254368E-005  0.1015242E+03  0.7546771E-02  0.1277793E+00
          4   -1    0    0  502    0 -0.00000000000E+00  0.00000000000E+00  0.26049281176E+03  0.26049281176E+03  0.00000000000E+00 0. -1.
         21   -1    0    0  501  502  0.00000000000E+00 -0.00000000000E+00 -0.15832379215E+03  0.15832379215E+03  0.00000000000E+00 0.  1.
         23    2    1    2    0    0  0.52239858258E+02 -0.11720993381E+02  0.20966023382E+03  0.23232741684E+03  0.84570860779E+02 0.  0.
         24    2    1    2    0    0 -0.83664628074E+02  0.15540406758E+02 -0.96031009939E+02  0.15282258109E+03  0.83015132277E+02 0.  0.
        -11    1    4    4    0    0 -0.79937844620E+02 -0.12034941050E+02 -0.95325766256E+02  0.12498760147E+03  0.00000000000E+00 0.  1.
         12    1    4    4    0    0 -0.37267834533E+01  0.27575347808E+02 -0.70524368308E+00  0.27834979617E+02  0.00000000000E+00 0. -1.
        -11    1    3    3    0    0  0.11157342235E+00  0.27829310193E+02  0.10721805543E+03  0.11077090938E+03  0.00000000000E+00 0.  1.
         11    1    3    3    0    0  0.52128284836E+02 -0.39550303573E+02  0.10244217839E+03  0.12155650746E+03  0.00000000000E+00 0. -1.
          3    1    1    2  501    0  0.31424769815E+02 -0.38194133772E+01 -0.11460204272E+02  0.33666605984E+02  0.00000000000E+00 0. -1.
<scales pt_clust_5="13000.00000" pt_clust_6="13000.00000" pt_clust_7="13000.00000" pt_clust_8="13000.00000" pt_clust_9="31.65603"></scales>
<clustering>
<clus scale="   31.656">  2  9  1 -1</clus>
<clus scale="   83.015">  5  6 -1 -1</clus>
<clus scale="   84.571">  7  8 -1 -1</clus>
<clus scale="  100.232">  2  5  1 -1</clus>
<clus scale="   31.656">  2  5  1 -1</clus>
</clustering>
</event>
<event>
 9    2  0.9254368E-005  0.1596909E+03  0.7546771E-02  0.1190436E+00
          2   -1    0    0  502    0 -0.00000000000E+00  0.00000000000E+00  0.40638860201E+03  0.40638860201E+03  0.00000000000E+00 0. -1.
         21   -1    0    0  501  502  0.00000000000E+00 -0.00000000000E+00 -0.89820634703E+02  0.89820634703E+02  0.00000000000E+00 0.  1.
         23    2    1    2    0    0  0.49645337266E+02 -0.12573018968E+03  0.18968315075E+03  0.24942036183E+03  0.89208066373E+02 0.  0.
         24    2    1    2    0    0 -0.92638733760E+01  0.13113149442E+03  0.53840698035E+02  0.16315108457E+03  0.80238191983E+02 0.  0.
        -11    1    4    4    0    0 -0.21052646632E+02  0.65047615386E+02 -0.11666012960E+02  0.69357782952E+02  0.00000000000E+00 0.  1.
         12    1    4    4    0    0  0.11788773256E+02  0.66083879032E+02  0.65506710995E+02  0.93793301616E+02  0.00000000000E+00 0. -1.
        -13    1    3    3    0    0  0.20018871682E+02  0.15489224880E+01  0.12643161526E+01  0.20118471105E+02  0.00000000000E+00 0.  1.
         13    1    3    3    0    0  0.29626465584E+02 -0.12727911217E+03  0.18841883460E+03  0.22930189072E+03  0.00000000000E+00 0. -1.
          1    1    1    2  501    0 -0.40381463890E+02 -0.54013047395E+01  0.73044118517E+02  0.83637790314E+02  0.00000000000E+00 0. -1.
<scales pt_clust_5="13000.00000" pt_clust_6="13000.00000" pt_clust_7="13000.00000" pt_clust_8="13000.00000" pt_clust_9="40.74111"></scales>
<clustering>
<clus scale="   40.741">  2  9  1 -1</clus>
<clus scale="   80.238">  5  6 -1 -1</clus>
<clus scale="   89.208">  7  8 -1 -1</clus>
<clus scale="  154.859">  2  5  1 -1</clus>
<clus scale="   40.741">  2  5  1 -1</clus>
</clustering>
</event>
<event>
 9    2  0.9254368E-005  0.1539394E+03  0.7546771E-02  0.1197636E+00
          4   -1    0    0  502    0 -0.00000000000E+00  0.00000000000E+00  0.16756739930E+04  0.16756739930E+04  0.00000000000E+00 0. -1.
         21   -1    0    0  501  502  0.00000000000E+00 -0.00000000000E+00 -0.25543300581E+02  0.25543300581E+02  0.00000000000E+00 0. -1.
         24    2    1    2    0    0  0.44302929311E+02 -0.13434708691E+03  0.11719125111E+04  0.11832032643E+04  0.81111907165E+02 0.  0.
         23    2    1    2    0    0 -0.39538391470E+02  0.64692583275E+02  0.21712866478E+03  0.24775084958E+03  0.92126064005E+02 0.  0.
        -13    1    3    3    0    0  0.30497015093E+02 -0.19281749711E+02  0.13163658596E+03  0.13649192124E+03  0.00000000000E+00 0.  1.
         14    1    3    3    0    0  0.13805914218E+02 -0.11506533720E+03  0.10402759252E+04  0.10467113430E+04  0.00000000000E+00 0. -1.
        -13    1    4    4    0    0 -0.86425706093E+01  0.37259483661E+02  0.19898074765E+03  0.20262354524E+03  0.00000000000E+00 0.  1.
         13    1    4    4    0    0 -0.30895820860E+02  0.27433099614E+02  0.18147917126E+02  0.45127304341E+02  0.00000000000E+00 0. -1.
          3    1    1    2  501    0 -0.47645378417E+01  0.69654503632E+02  0.26108951654E+03  0.27026317977E+03  0.00000000000E+00 0. -1.
<scales pt_clust_5="13000.00000" pt_clust_6="13000.00000" pt_clust_7="13000.00000" pt_clust_8="13000.00000" pt_clust_9="69.81727"></scales>
<clustering>
<clus scale="   69.817">  2  9  1 -1</clus>
<clus scale="   81.112">  5  6 -1 -1</clus>
<clus scale="   92.126">  7  8 -1 -1</clus>
<clus scale="  147.612">  1  5  2 -1</clus>
<clus scale="   69.817">  2  5  1 -1</clus>
</clustering>
</event>
<event>
 9    2  0.9254368E-005  0.1556103E+03  0.7546771E-02  0.1214353E+00
          2   -1    0    0  502    0 -0.00000000000E+00  0.00000000000E+00  0.89391619279E+03  0.89391619279E+03  0.00000000000E+00 0. -1.
         21   -1    0    0  501  502  0.00000000000E+00 -0.00000000000E+00 -0.58233491992E+02  0.58233491992E+02  0.00000000000E+00 0. -1.
         24    2    1    2    0    0 -0.79388748423E+01 -0.59147830101E+02  0.13600138037E+03  0.16866776970E+03  0.79943414575E+02 0.  0.
         23    2    1    2    0    0 -0.70717806523E+02  0.14975202661E+03  0.59556946982E+03  0.62462578084E+03  0.89597405514E+02 0.  0.
        -13    1    3    3    0    0  0.25023644055E+02  0.31363161907E+01  0.59675646708E+02  0.64785816743E+02  0.00000000000E+00 0.  1.
         14    1    3    3    0    0 -0.32962518898E+02 -0.62284146292E+02  0.76325733667E+02  0.10388195296E+03  0.00000000000E+00 0. -1.
        -13    1    4    4    0    0  0.18680829823E+02  0.21372115575E+02  0.55256758828E+02  0.62121253393E+02  0.00000000000E+00 0.  1.
         13    1    4    4    0    0 -0.89398636346E+02  0.12837991104E+03  0.54031271100E+03  0.56250452745E+03  0.00000000000E+00 0. -1.
          1    1    1    2  501    0  0.78656681366E+02 -0.90604196509E+02  0.10411185060E+03  0.15885613424E+03  0.00000000000E+00 0. -1.
<scales pt_clust_5="13000.00000" pt_clust_6="13000.00000" pt_clust_7="13000.00000" pt_clust_8="13000.00000" pt_clust_9="127.22760"></scales>
<clustering>
<clus scale="   79.943">  5  6 -1 -1</clus>
<clus scale="   89.597">  7  8 -1 -1</clus>
<clus scale="   99.762">  1  5  2 -1</clus>
<clus scale="  127.228">  2  9  1 -1</clus>
<clus scale="  127.228">  2  5  1 -1</clus>
</clustering>
</event>
<event>
 9    2  0.1062172E-004  0.1060442E+03  0.7546771E-02  0.1275254E+00
         21   -1    0    0  501  502  0.00000000000E+00  0.00000000000E+00  0.97902372558E+02  0.97902372558E+02  0.00000000000E+00 0.  1.
         -1   -1    0    0    0  501 -0.00000000000E+00 -0.00000000000E+00 -0.45353169297E+03  0.45353169297E+03  0.00000000000E+00 0.  1.
         23    2    1    2    0    0 -0.46571408638E+02 -0.16428578126E+00 -0.30255189334E+03  0.32081443656E+03  0.95996517921E+02 0.  0.
         24    2    1    2    0    0  0.30300420518E+02 -0.15323739396E+02  0.65922832761E+02  0.10951766441E+03  0.80593836398E+02 0.  0.
        -13    1    4    4    0    0  0.49052535448E+02 -0.26986338494E+02  0.21618422425E+02  0.60014747248E+02  0.00000000000E+00 0.  1.
         14    1    4    4    0    0 -0.18752114930E+02  0.11662599097E+02  0.44304410336E+02  0.49502917159E+02  0.00000000000E+00 0. -1.
        -13    1    3    3    0    0  0.24039086378E+02  0.21280747297E+02 -0.74600032471E+02  0.81215224706E+02  0.00000000000E+00 0. -1.
         13    1    3    3    0    0 -0.70610495016E+02 -0.21445033078E+02 -0.22795186087E+03  0.23959921186E+03  0.00000000000E+00 0.  1.
         -2    1    1    2    0  502  0.16270988120E+02  0.15488025177E+02 -0.11900025983E+03  0.12110196455E+03  0.00000000000E+00 0.  1.
<scales pt_clust_5="13000.00000" pt_clust_6="13000.00000" pt_clust_7="13000.00000" pt_clust_8="13000.00000" pt_clust_9="22.46385"></scales>
<clustering>
<clus scale="   22.464">  1  9  2 -1</clus>
<clus scale="   80.594">  5  6 -1 -1</clus>
<clus scale="   92.333">  1  5  2 -1</clus>
<clus scale="   95.997">  7  8 -1 -1</clus>
<clus scale="   22.464">  1  5  2 -1</clus>
</clustering>
</event>
<event>
 9    2  0.9254368E-005  0.1936113E+03  0.7546771E-02  0.1191559E+00
         21   -1    0    0  501  502  0.00000000000E+00  0.00000000000E+00  0.10229166367E+03  0.10229166367E+03  0.00000000000E+00 0. -1.
          2   -1    0    0  502    0 -0.00000000000E+00 -0.00000000000E+00 -0.93676080215E+03  0.93676080215E+03  0.00000000000E+00 0. -1.
         24    2    1    2    0    0 -0.22488654304E+02 -0.53752529846E+01  0.37599293983E+02  0.92731394689E+02  0.81552263830E+02 0.  0.
         23    2    1    2    0    0 -0.14225559347E+03  0.78401885352E+02 -0.41063429068E+03  0.45094745110E+03  0.91376000551E+02 0.  0.
        -11    1    3    3    0    0  0.22601004221E+01 -0.27569648354E+02 -0.14268200892E+02  0.31125152546E+02  0.00000000000E+00 0.  1.
         12    1    3    3    0    0 -0.24748754726E+02  0.22194395370E+02  0.51867494875E+02  0.61606242143E+02  0.00000000000E+00 0. -1.
        -11    1    4    4    0    0 -0.37637864780E+02  0.25743458378E+01 -0.27702311153E+02  0.46804424630E+02  0.00000000000E+00 0.  1.
         11    1    4    4    0    0 -0.10461772869E+03  0.75827539514E+02 -0.38293197953E+03  0.40414302647E+03  0.00000000000E+00 0. -1.
          1    1    1    2  501    0  0.16474424777E+03 -0.73026632367E+02 -0.46143414178E+03  0.49537362002E+03  0.00000000000E+00 0. -1.
<scales pt_clust_5="13000.00000" pt_clust_6="13000.00000" pt_clust_7="13000.00000" pt_clust_8="13000.00000" pt_clust_9="170.69214"></scales>
<clustering>
<clus scale="   81.552">  5  6 -1 -1</clus>
<clus scale="   84.767">  2  5  1 -1</clus>
<clus scale="   91.376">  7  8 -1 -1</clus>
<clus scale="  170.692">  1  9  2 -1</clus>
<clus scale="  170.692">  1  5  2 -1</clus>
</clustering>
</event>
<event>
 9    2  0.9254368E-005  0.1268107E+03  0.7546771E-02  0.1234381E+00
         21   -1    0    0  501  502  0.00000000000E+00  0.00000000000E+00  0.35005420095E+02  0.35005420095E+02  0.00000000000E+00 0. -1.
          2   -1    0    0  502    0 -0.00000000000E+00 -0.00000000000E+00 -0.74035574178E+03  0.74035574178E+03  0.00000000000E+00 0. -1.
         24    2    1    2    0    0  0.77160678028E+02  0.80528767601E+02 -0.38492312881E+03  0.40884361939E+03  0.80923651509E+02 0.  0.
         23    2    1    2    0    0 -0.58452535859E+02 -0.23495730214E+02 -0.14653883185E+03  0.18256123236E+03  0.88804425759E+02 0.  0.
        -11    1    3    3    0    0  0.16515721616E+02  0.36675302931E+02 -0.43219698686E+02  0.59040572999E+02  0.00000000000E+00 0.  1.
         12    1    3    3    0    0  0.60644956412E+02  0.43853464670E+02 -0.34170343013E+03  0.34980304639E+03  0.00000000000E+00 0. -1.
        -13    1    4    4    0    0 -0.22419877728E+02 -0.33682811089E+02 -0.13846481709E+03  0.14425563508E+03  0.00000000000E+00 0.  1.
         13    1    4    4    0    0 -0.36032658131E+02  0.10187080874E+02 -0.80740147597E+01  0.38305597281E+02  0.00000000000E+00 0. -1.
          1    1    1    2  501    0 -0.18708142169E+02 -0.57033037387E+02 -0.17388836102E+03  0.18395631012E+03  0.00000000000E+00 0. -1.
<scales pt_clust_5="13000.00000" pt_clust_6="13000.00000" pt_clust_7="13000.00000" pt_clust_8="13000.00000" pt_clust_9="60.02304"></scales>
<clustering>
<clus scale="   60.023">  1  9  2 -1</clus>
<clus scale="   80.924">  5  6 -1 -1</clus>
<clus scale="   88.804">  7  8 -1 -1</clus>
<clus scale="  121.422">  2  5  1 -1</clus>
<clus scale="   60.023">  1  5  2 -1</clus>
</clustering>
</event>
<event>
 9    2  0.9254368E-005  0.1159525E+03  0.7546771E-02  0.1255104E+00
         21   -1    0    0  501  502  0.00000000000E+00  0.00000000000E+00  0.30229339470E+03  0.30229339470E+03  0.00000000000E+00 0.  1.
         -1   -1    0    0    0  501 -0.00000000000E+00 -0.00000000000E+00 -0.14483446269E+03  0.14483446269E+03  0.00000000000E+00 0.  1.
         23    2    1    2    0    0  0.57461596117E+02 -0.41660392752E+02 -0.10178835395E+03  0.15455320882E+03  0.92132524133E+02 0.  0.
         24    2    1    2    0    0 -0.39318336978E+02  0.55752579808E+02  0.24425611094E+03  0.26514286196E+03  0.77365416973E+02 0.  0.
        -11    1    4    4    0    0  0.19982793490E+02  0.34725618022E+02  0.10243294102E+03  0.10998949036E+03  0.00000000000E+00 0.  1.
         12    1    4    4    0    0 -0.59301130468E+02  0.21026961787E+02  0.14182316991E+03  0.15515337160E+03  0.00000000000E+00 0. -1.
        -13    1    3    3    0    0  0.33651774117E+02 -0.36787619276E+02 -0.11609750506E+03  0.12635031268E+03  0.00000000000E+00 0.  1.
         13    1    3    3    0    0  0.23809821999E+02 -0.48727734763E+01  0.14309151110E+02  0.28202896136E+02  0.00000000000E+00 0. -1.
         -2    1    1    2    0  502 -0.18143259139E+02 -0.14092187056E+02  0.14991175021E+02  0.27431786612E+02  0.00000000000E+00 0.  1.
<scales pt_clust_5="13000.00000" pt_clust_6="13000.00000" pt_clust_7="13000.00000" pt_clust_8="13000.00000" pt_clust_9="22.97319"></scales>
<clustering>
<clus scale="   22.973">  1  9  2 -1</clus>
<clus scale="   77.365">  5  6 -1 -1</clus>
<clus scale="   92.133">  7  8 -1 -1</clus>
<clus scale="  104.604">  1  5  2 -1</clus>
<clus scale="   22.973">  1  5  2 -1</clus>
</clustering>
</event>
<event>
 9    2  0.9254368E-005  0.1230869E+03  0.7546771E-02  0.1242584E+00
         21   -1    0    0  501  502  0.00000000000E+00  0.00000000000E+00  0.82929931693E+02  0.82929931693E+02  0.00000000000E+00 0.  1.
         -1   -1    0    0    0  501 -0.00000000000E+00 -0.00000000000E+00 -0.21420282287E+03  0.21420282287E+03  0.00000000000E+00 0.  1.
         23    2    1    2    0    0  0.24001419141E+02  0.79548365663E+02 -0.46362689801E+02  0.11393278145E+03  0.62667129205E+02 0.  0.
         24    2    1    2    0    0 -0.10744411866E+02 -0.10546355082E+03 -0.73213807115E+02  0.15182879682E+03  0.80335042497E+02 0.  0.
        -13    1    4    4    0    0  0.30034933199E+02 -0.73504992047E+02 -0.31938223602E+02  0.85586980289E+02  0.00000000000E+00 0.  1.
         14    1    4    4    0    0 -0.40779345065E+02 -0.31958558773E+02 -0.41275583513E+02  0.66241816529E+02  0.00000000000E+00 0. -1.
        -13    1    3    3    0    0  0.31256355002E+02  0.52157797150E+02 -0.57309143710E+02  0.83556768034E+02  0.00000000000E+00 0.  1.
         13    1    3    3    0    0 -0.72549358609E+01  0.27390568513E+02  0.10946453909E+02  0.30376013415E+02  0.00000000000E+00 0. -1.
         -2    1    1    2    0  502 -0.13257007275E+02  0.25915185157E+02 -0.11696394265E+02  0.31371176300E+02  0.00000000000E+00 0.  1.
<scales pt_clust_5="13000.00000" pt_clust_6="13000.00000" pt_clust_7="13000.00000" pt_clust_8="13000.00000" pt_clust_9="29.10919"></scales>
<clustering>
<clus scale="   29.109">  1  9  2 -1</clus>
<clus scale="   62.667">  7  8 -1 -1</clus>
<clus scale="   80.335">  5  6 -1 -1</clus>
<clus scale="  112.356">  2  7  1 -1</clus>
<clus scale="   29.109">  1  5  2 -1</clus>
</clustering>
</event>
<event>
 9    2  0.9254368E-005  0.1079542E+03  0.7546771E-02  0.1272158E+00
         21   -1    0    0  501  502  0.00000000000E+00  0.00000000000E+00  0.23482756208E+03  0.23482756208E+03  0.00000000000E+00 0.  1.
          2   -1    0    0  502    0 -0.00000000000E+00 -0.00000000000E+00 -0.12656478077E+03  0.12656478077E+03  0.00000000000E+00 0. -1.
         23    2    1    2    0    0 -0.51593998046E+01  0.51619184943E+02 -0.84380445755E+02  0.13807438296E+03  0.96194157539E+02 0.  0.
         24    2    1    2    0    0 -0.11485323723E+02 -0.34525102059E+02  0.13081372955E+03  0.15704472808E+03  0.78910832252E+02 0.  0.
        -11    1    4    4    0    0 -0.35061143771E+02 -0.31314484170E+01  0.22356293081E+02  0.41700043310E+02  0.00000000000E+00 0.  1.
         12    1    4    4    0    0  0.23575820049E+02 -0.31393653642E+02  0.10845743647E+03  0.11534468477E+03  0.00000000000E+00 0. -1.
        -11    1    3    3    0    0 -0.49714085257E+01 -0.28163704215E+02 -0.14746625092E+02  0.32177198284E+02  0.00000000000E+00 0. -1.
         11    1    3    3    0    0 -0.18799127891E+00  0.79782889157E+02 -0.69633820663E+02  0.10589718468E+03  0.00000000000E+00 0.  1.
          1    1    1    2  501    0  0.16644723527E+02 -0.17094082884E+02  0.61829497511E+02  0.66273231802E+02  0.00000000000E+00 0. -1.
<scales pt_clust_5="13000.00000" pt_clust_6="13000.00000" pt_clust_7="13000.00000" pt_clust_8="13000.00000" pt_clust_9="23.85905"></scales>
<clustering>
<clus scale="   23.859">  1  9  2 -1</clus>
<clus scale="   78.911">  5  6 -1 -1</clus>
<clus scale="   92.885">  1  5  2 -1</clus>
<clus scale="   96.194">  7  8 -1 -1</clus>
<clus scale="   23.859">  1  5  2 -1</clus>
</clustering>
</event>
<event>
 9    2  0.9254368E-005  0.1032774E+03  0.7546771E-02  0.1279567E+00
         21   -1    0    0  501  502  0.00000000000E+00  0.00000000000E+00  0.80243361226E+02  0.80243361226E+02  0.00000000000E+00 0.  1.
          2   -1    0    0  502    0 -0.00000000000E+00 -0.00000000000E+00 -0.25212138888E+03  0.25212138888E+03  0.00000000000E+00 0. -1.
         24    2    1    2    0    0  0.66078496669E+01 -0.50756537475E+02 -0.16734778909E+03  0.19193161442E+03  0.78819872659E+02 0.  0.
         23    2    1    2    0    0  0.19729978601E+02  0.31699322326E+02  0.18345912639E+02  0.10068169621E+03  0.91684853432E+02 0.  0.
        -11    1    3    3    0    0  0.37607898051E+02 -0.42050589322E+01 -0.61314802131E+02  0.72052352334E+02  0.00000000000E+00 0.  1.
         12    1    3    3    0    0 -0.31000048384E+02 -0.46551478542E+02 -0.10603298696E+03  0.11987926209E+03  0.00000000000E+00 0. -1.
        -11    1    4    4    0    0 -0.34694217523E+02 -0.10943585121E+01  0.12414777260E+02  0.36864794106E+02  0.00000000000E+00 0. -1.
         11    1    4    4    0    0  0.54424196124E+02  0.32793680838E+02  0.59311353787E+01  0.63816902099E+02  0.00000000000E+00 0.  1.
          1    1    1    2  501    0 -0.26337828268E+02  0.19057215149E+02 -0.22876151203E+02  0.39751439483E+02  0.00000000000E+00 0. -1.
<scales pt_clust_5="13000.00000" pt_clust_6="13000.00000" pt_clust_7="13000.00000" pt_clust_8="13000.00000" pt_clust_9="32.50938"></scales>
<clustering>
<clus scale="   32.509">  1  9  2 -1</clus>
<clus scale="   78.820">  5  6 -1 -1</clus>
<clus scale="   91.685">  7  8 -1 -1</clus>
<clus scale="   92.047">  2  5  1 -1</clus>
<clus scale="   32.509">  1  5  2 -1</clus>
</clustering>
</event>
<event>
 9    2  0.9254368E-005  0.9880653E+02  0.7546771E-02  0.1287717E+00
          2   -1    0    0  502    0 -0.00000000000E+00  0.00000000000E+00  0.34946556633E+03  0.34946556633E+03  0.00000000000E+00 0. -1.
         21   -1    0    0  501  502  0.00000000000E+00 -0.00000000000E+00 -0.43969721598E+02  0.43969721598E+02  0.00000000000E+00 0. -1.
         23    2    1    2    0    0 -0.34017371340E+02 -0.99840324030E+01  0.12282897789E+03  0.15631939359E+03  0.89955169652E+02 0.  0.
         24    2    1    2    0    0  0.15000621590E+02  0.57365861302E+02  0.11345283659E+03  0.15110858962E+03  0.80289470269E+02 0.  0.
        -11    1    4    4    0    0 -0.82664346670E+01  0.18589455289E+02  0.10260748927E+03  0.10460496473E+03  0.00000000000E+00 0.  1.
         12    1    4    4    0    0  0.23267056257E+02  0.38776406013E+02  0.10845347318E+02  0.46503624898E+02  0.00000000000E+00 0. -1.
        -13    1    3    3    0    0  0.28358299880E+02  0.58223249610E+01  0.20623247307E+02  0.35544492815E+02  0.00000000000E+00 0.  1.
         13    1    3    3    0    0 -0.62375671220E+02 -0.15806357364E+02  0.10220573058E+03  0.12077490078E+03  0.00000000000E+00 0. -1.
          1    1    1    2  501    0  0.19016749750E+02 -0.47381828899E+02  0.69214030249E+02  0.86007304714E+02  0.00000000000E+00 0. -1.
<scales pt_clust_5="13000.00000" pt_clust_6="13000.00000" pt_clust_7="13000.00000" pt_clust_8="13000.00000" pt_clust_9="51.05563"></scales>
<clustering>
<clus scale="   51.056">  2  9  1 -1</clus>
<clus scale="   80.289">  5  6 -1 -1</clus>
<clus scale="   89.955">  7  8 -1 -1</clus>
<clus scale="   90.095">  2  5  1 -1</clus>
<clus scale="   51.056">  2  5  1 -1</clus>
</clustering>
</event>
<event>
 9    2  0.9254368E-005  0.1006019E+03  0.7546771E-02  0.1284585E+00
         21   -1    0    0  501  502  0.00000000000E+00  0.00000000000E+00  0.16278215392E+03  0.16278215392E+03  0.00000000000E+00 0.  1.
         -3   -1    0    0    0  501 -0.00000000000E+00 -0.00000000000E+00 -0.27141530948E+03  0.27141530948E+03  0.00000000000E+00 0.  1.
         23    2    1    2    0    0 -0.42235055193E+02  0.22341774208E+02 -0.19252835863E+03  0.21811720797E+03  0.90691745884E+02 0.  0.
         24    2    1    2    0    0  0.38864023082E+02  0.64607235226E+02  0.63999874974E+02  0.12682042024E+03  0.79390980969E+02 0.  0.
        -13    1    4    4    0    0  0.12189808548E+02  0.77044032935E+02  0.56884941667E+02  0.96541550805E+02  0.00000000000E+00 0.  1.
         14    1    4    4    0    0  0.26674214534E+02 -0.12436797709E+02  0.71149333068E+01  0.30278869434E+02  0.00000000000E+00 0. -1.
        -11    1    3    3    0    0  0.12721359779E+02 -0.22407315994E+02 -0.23666462682E+02  0.34986029506E+02  0.00000000000E+00 0. -1.
         11    1    3    3    0    0 -0.54956414971E+02  0.44749090202E+02 -0.16886189595E+03  0.18313117846E+03  0.00000000000E+00 0.  1.
         -4    1    1    2    0  502  0.33710321102E+01 -0.86949009434E+02  0.19895328092E+02  0.89259835195E+02  0.00000000000E+00 0.  1.
<scales pt_clust_5="13000.00000" pt_clust_6="13000.00000" pt_clust_7="13000.00000" pt_clust_8="13000.00000" pt_clust_9="87.01433"></scales>
<clustering>
<clus scale="   79.391">  5  6 -1 -1</clus>
<clus scale="   87.014">  1  9  2 -1</clus>
<clus scale="   90.547">  1  5  2 -1</clus>
<clus scale="   90.692">  7  8 -1 -1</clus>
<clus scale="   87.014">  1  5  2 -1</clus>
</clustering>
</event>
<event>
 9    2  0.9254368E-005  0.1802628E+03  0.7546771E-02  0.1183329E+00
          2   -1    0    0  502    0 -0.00000000000E+00  0.00000000000E+00  0.60958046679E+03  0.60958046679E+03  0.00000000000E+00 0. -1.
         21   -1    0    0  501  502  0.00000000000E+00 -0.00000000000E+00 -0.15773598935E+03  0.15773598935E+03  0.00000000000E+00 0. -1.
         24    2    1    2    0    0  0.64489017863E+02 -0.73692117769E+02  0.38746073261E+03  0.40745621895E+03  0.79406482099E+02 0.  0.
         23    2    1    2    0    0 -0.11121204805E+03 -0.92237149317E+02  0.75696307078E+02  0.18710741583E+03  0.91670294036E+02 0.  0.
        -13    1    3    3    0    0  0.24976729044E+02 -0.25847237543E+02  0.37147994573E+02  0.51690329687E+02  0.00000000000E+00 0.  1.
         14    1    3    3    0    0  0.39512288820E+02 -0.47844880226E+02  0.35031273803E+03  0.35576588926E+03  0.00000000000E+00 0. -1.
        -11    1    4    4    0    0 -0.89237594621E+02 -0.14633112782E+02  0.41675278981E+02  0.99570603903E+02  0.00000000000E+00 0.  1.
         11    1    4    4    0    0 -0.21974453429E+02 -0.77604036535E+02  0.34021028096E+02  0.87536811929E+02  0.00000000000E+00 0. -1.
          1    1    1    2  501    0  0.46723030186E+02  0.16592926709E+03 -0.11312562240E+02  0.17275282137E+03  0.00000000000E+00 0. -1.
<scales pt_clust_5="13000.00000" pt_clust_6="13000.00000" pt_clust_7="13000.00000" pt_clust_8="13000.00000" pt_clust_9="155.21350"></scales>
<clustering>
<clus scale="   79.406">  5  6 -1 -1</clus>
<clus scale="   91.670">  7  8 -1 -1</clus>
<clus scale="  126.074">  1  5  2 -1</clus>
<clus scale="  155.214">  2  9  1 -1</clus>
<clus scale="  155.214">  2  5  1 -1</clus>
</clustering>
</event>
<event>
 9    2  0.9254368E-005  0.1296380E+03  0.7546771E-02  0.1230615E+00
          2   -1    0    0  502    0 -0.00000000000E+00  0.00000000000E+00  0.22265192161E+03  0.22265192161E+03  0.00000000000E+00 0. -1.
         21   -1    0    0  501  502  0.00000000000E+00 -0.00000000000E+00 -0.15958144728E+03  0.15958144728E+03  0.00000000000E+00 0. -1.
         24    2    1    2    0    0  0.79417153723E+02 -0.18892111532E+00  0.96042494679E+01  0.11319822724E+03  0.80090430420E+02 0.  0.
         23    2    1    2    0    0 -0.11789101209E+03  0.33044340572E+02 -0.44766758830E+02  0.15853882747E+03  0.90223488865E+02 0.  0.
        -13    1    3    3    0    0  0.72428496918E+01 -0.32621589653E+02  0.62865455724E+01  0.34002171084E+02  0.00000000000E+00 0.  1.
         14    1    3    3    0    0  0.72174304032E+02  0.32432668538E+02  0.33177038955E+01  0.79196056152E+02  0.00000000000E+00 0. -1.
        -11    1    4    4    0    0 -0.93808385432E+02 -0.88637641103E+01 -0.55040760851E+02  0.10912408005E+03  0.00000000000E+00 0. -1.
         11    1    4    4    0    0 -0.24082626659E+02  0.41908104683E+02  0.10274002021E+02  0.49414747419E+02  0.00000000000E+00 0.  1.
          1    1    1    2  501    0  0.38473858368E+02 -0.32855419457E+02  0.98232983687E+02  0.11049631419E+03  0.00000000000E+00 0. -1.
<scales pt_clust_5="13000.00000" pt_clust_6="13000.00000" pt_clust_7="13000.00000" pt_clust_8="13000.00000" pt_clust_9="50.59366"></scales>
<clustering>
<clus scale="   50.594">  2  9  1 -1</clus>
<clus scale="   80.090">  5  6 -1 -1</clus>
<clus scale="   90.223">  7  8 -1 -1</clus>
<clus scale="  122.801">  1  5  2 -1</clus>
<clus scale="   50.594">  2  5  1 -1</clus>
</clustering>
</event>
<event>
 9    2  0.9254368E-005  0.1192340E+03  0.7546771E-02  0.1247689E+00
         21   -1    0    0  501  502  0.00000000000E+00  0.00000000000E+00  0.11499162414E+02  0.11499162414E+02  0.00000000000E+00 0. -1.
          2   -1    0    0  502    0 -0.00000000000E+00 -0.00000000000E+00 -0.21065344497E+04  0.21065344497E+04  0.00000000000E+00 0. -1.
         23    2    1    2    0    0 -0.39811496355E+02 -0.12486157732E+02 -0.55293375034E+03  0.56209890741E+03  0.92079259700E+02 0.  0.
         24    2    1    2    0    0  0.10381189268E+03  0.38685185587E+02 -0.10018444500E+04  0.10112695234E+04  0.81855324863E+02 0.  0.
        -11    1    4    4    0    0  0.35128147104E+01  0.35845634482E+02 -0.20604029544E+03  0.20916465458E+03  0.00000000000E+00 0.  1.
         12    1    4    4    0    0  0.10029907797E+03  0.28395511051E+01 -0.79580415457E+03  0.80210486879E+03  0.00000000000E+00 0. -1.
        -13    1    3    3    0    0  0.17703217238E+02 -0.34988195791E+02 -0.22818925321E+03  0.23153382696E+03  0.00000000000E+00 0.  1.
         13    1    3    3    0    0 -0.57514713593E+02  0.22502038059E+02 -0.32474449713E+03  0.33056508045E+03  0.00000000000E+00 0. -1.
          1    1    1    2  501    0 -0.64000396323E+02 -0.26199027855E+02 -0.54025708690E+03  0.54466518132E+03  0.00000000000E+00 0. -1.
<scales pt_clust_5="13000.00000" pt_clust_6="13000.00000" pt_clust_7="13000.00000" pt_clust_8="13000.00000" pt_clust_9="69.15522"></scales>
<clustering>
<clus scale="   69.155">  1  9  2 -1</clus>
<clus scale="   81.855">  5  6 -1 -1</clus>
<clus scale="   92.079">  7  8 -1 -1</clus>
<clus scale="  111.528">  1  5  2 -1</clus>
<clus scale="   69.155">  1  5  2 -1</clus>
</clustering>
</event>
<event>
 9    2  0.9254368E-005  0.9264501E+02  0.7546771E-02  0.1303892E+00
         -1   -1    0    0    0  501 -0.00000000000E+00  0.00000000000E+00  0.14348780624E+03  0.14348780624E+03  0.00000000000E+00 0.  1.
         21   -1    0    0  501  502  0.00000000000E+00 -0.00000000000E+00 -0.24947636419E+03  0.24947636419E+03  0.00000000000E+00 0. -1.
         24    2    1    2    0    0 -0.78898051304E+01 -0.19594010958E+01  0.11316602902E+03  0.13908756982E+03  0.80453176918E+02 0.  0.
         23    2    1    2    0    0  0.91148282231E+01  0.31011280532E+02 -0.15201206653E+03  0.18070809350E+03  0.92211534379E+02 0.  0.
        -13    1    3    3    0    0 -0.98603402529E+01 -0.36948932927E+02  0.87977395133E+02  0.95929515837E+02  0.00000000000E+00 0.  1.
         14    1    3    3    0    0  0.19705351225E+01  0.34989531831E+02  0.25188633889E+02  0.43158053983E+02  0.00000000000E+00 0. -1.
        -13    1    4    4    0    0  0.50499509179E+02  0.22904886858E+02 -0.82480182496E+02  0.99387196227E+02  0.00000000000E+00 0.  1.
         13    1    4    4    0    0 -0.41384680956E+02  0.81063936739E+01 -0.69531884038E+02  0.81320897278E+02  0.00000000000E+00 0. -1.
         -2    1    1    2    0  502 -0.12250230927E+01 -0.29051879437E+02 -0.67142520442E+02  0.73168507103E+02  0.00000000000E+00 0.  1.
<scales pt_clust_5="13000.00000" pt_clust_6="13000.00000" pt_clust_7="13000.00000" pt_clust_8="13000.00000" pt_clust_9="29.07770"></scales>
<clustering>
<clus scale="   29.078">  2  9  1 -1</clus>
<clus scale="   80.453">  5  6 -1 -1</clus>
<clus scale="   80.950">  1  5  2 -1</clus>
<clus scale="   92.212">  7  8 -1 -1</clus>
<clus scale="   29.078">  2  5  1 -1</clus>
</clustering>
</event>
<event>
 9    2  0.9254368E-005  0.9947643E+02  0.7546771E-02  0.1287559E+00
         -3   -1    0    0    0  501 -0.00000000000E+00  0.00000000000E+00  0.59223084245E+02  0.59223084245E+02  0.00000000000E+00 0.  1.
         21   -1    0    0  501  502  0.00000000000E+00 -0.00000000000E+00 -0.41997760818E+03  0.41997760818E+03  0.00000000000E+00 0.  1.
         24    2    1    2    0    0 -0.40171138112E+02  0.10945300824E+02 -0.26690711240E+02  0.93665673754E+02  0.79544606517E+02 0.  0.
         23    2    1    2    0    0 -0.62994463673E+00 -0.66059787823E+02 -0.26576610716E+03  0.28875221229E+03  0.91552848044E+02 0.  0.
        -11    1    3    3    0    0 -0.28903346120E+02 -0.31295072327E+02 -0.30224130073E+00  0.42601365221E+02  0.00000000000E+00 0.  1.
         12    1    3    3    0    0 -0.11267791993E+02  0.42240373151E+02 -0.26388469939E+02  0.51064308534E+02  0.00000000000E+00 0. -1.
        -13    1    4    4    0    0 -0.45317596822E+02 -0.25524445167E+02 -0.13738947240E+03  0.14690489784E+03  0.00000000000E+00 0.  1.
         13    1    4    4    0    0  0.44687652186E+02 -0.40535342656E+02 -0.12837663476E+03  0.14184731444E+03  0.00000000000E+00 0. -1.
         -4    1    1    2    0  502  0.40801082749E+02  0.55114486999E+02 -0.68297705526E+02  0.96782806380E+02  0.00000000000E+00 0.  1.
<scales pt_clust_5="13000.00000" pt_clust_6="13000.00000" pt_clust_7="13000.00000" pt_clust_8="13000.00000" pt_clust_9="68.57361"></scales>
<clustering>
<clus scale="   68.574">  2  9  1 -1</clus>
<clus scale="   79.545">  5  6 -1 -1</clus>
<clus scale="   88.549">  1  5  2 -1</clus>
<clus scale="   91.553">  7  8 -1 -1</clus>
<clus scale="   68.574">  2  5  1 -1</clus>
</clustering>
</event>
<event>
 9    2  0.9254368E-005  0.1053796E+03  0.7546771E-02  0.1275582E+00
         21   -1    0    0  501  502  0.00000000000E+00  0.00000000000E+00  0.52134053425E+02  0.52134053425E+02  0.00000000000E+00 0.  1.
          2   -1    0    0  502    0 -0.00000000000E+00 -0.00000000000E+00 -0.34009875620E+03  0.34009875620E+03  0.00000000000E+00 0. -1.
         23    2    1    2    0    0 -0.20125293239E+02 -0.48875240917E+02 -0.24883112181E+03  0.27063489486E+03  0.92371546125E+02 0.  0.
         24    2    1    2    0    0 -0.94213004068E+00  0.46674031734E+02 -0.21104542816E+02  0.93781950602E+02  0.78551255139E+02 0.  0.
        -13    1    4    4    0    0 -0.25190106735E+02  0.57395725786E+02 -0.52715950541E+01  0.62901514531E+02  0.00000000000E+00 0.  1.
         14    1    4    4    0    0  0.24247976694E+02 -0.10721694052E+02 -0.15832947761E+02  0.30880436071E+02  0.00000000000E+00 0. -1.
        -13    1    3    3    0    0 -0.31932723568E+02 -0.67394760375E+02 -0.13070584297E+03  0.15048511537E+03  0.00000000000E+00 0. -1.
         13    1    3    3    0    0  0.11807430329E+02  0.18519519457E+02 -0.11812527884E+03  0.12014977950E+03  0.00000000000E+00 0.  1.
          1    1    1    2  501    0  0.21067423280E+02  0.22012091831E+01 -0.18029038148E+02  0.27815964159E+02  0.00000000000E+00 0. -1.
<scales pt_clust_5="13000.00000" pt_clust_6="13000.00000" pt_clust_7="13000.00000" pt_clust_8="13000.00000" pt_clust_9="21.18211"></scales>
<clustering>
<clus scale="   21.182">  1  9  2 -1</clus>
<clus scale="   78.551">  5  6 -1 -1</clus>
<clus scale="   92.372">  7  8 -1 -1</clus>
<clus scale="   93.502">  1  5  2 -1</clus>
<clus scale="   21.182">  1  5  2 -1</clus>
</clustering>
</event>
<event>
 9    2  0.9254368E-005  0.1226386E+03  0.7546771E-02  0.1243113E+00
         21   -1    0    0  501  502  0.00000000000E+00  0.00000000000E+00  0.68638079680E+02  0.68638079680E+02  0.00000000000E+00 0.  1.
         -1   -1    0    0    0  501 -0.00000000000E+00 -0.00000000000E+00 -0.48052842418E+03  0.48052842418E+03  0.00000000000E+00 0.  1.
         24    2    1    2    0    0 -0.72374212897E+02 -0.15581928062E+02 -0.13259452406E+03  0.16996975126E+03  0.76338622967E+02 0.  0.
         23    2    1    2    0    0  0.50646719359E+02  0.11407013780E+03 -0.14990588855E+03  0.21514259719E+03  0.90760537600E+02 0.  0.
        -11    1    3    3    0    0 -0.41970291507E+02 -0.24807860056E+02 -0.19520430822E+02  0.52516497496E+02  0.00000000000E+00 0.  1.
         12    1    3    3    0    0 -0.30403921390E+02  0.92259319933E+01 -0.11307409324E+03  0.11745325376E+03  0.00000000000E+00 0. -1.
        -11    1    4    4    0    0  0.72955976540E+02  0.68703114562E+02 -0.12023951925E+03  0.15652550736E+03  0.00000000000E+00 0.  1.
         11    1    4    4    0    0 -0.22309257182E+02  0.45367023240E+02 -0.29666369299E+02  0.58617089838E+02  0.00000000000E+00 0. -1.
         -2    1    1    2    0  502  0.21727493539E+02 -0.98488209740E+02 -0.12938993189E+03  0.16405415541E+03  0.00000000000E+00 0.  1.
<scales pt_clust_5="13000.00000" pt_clust_6="13000.00000" pt_clust_7="13000.00000" pt_clust_8="13000.00000" pt_clust_9="100.85644"></scales>
<clustering>
<clus scale="   76.339">  5  6 -1 -1</clus>
<clus scale="   90.761">  7  8 -1 -1</clus>
<clus scale="  100.856">  1  9  2 -1</clus>
<clus scale="  112.385">  2  5  1 -1</clus>
<clus scale="  100.856">  1  5  2 -1</clus>
</clustering>
</event>
<event>
 9    2  0.9254368E-005  0.1713977E+03  0.7546771E-02  0.1178150E+00
          2   -1    0    0  502    0 -0.00000000000E+00  0.00000000000E+00  0.13782490625E+04  0.13782490625E+04  0.00000000000E+00 0. -1.
         21   -1    0    0  501  502  0.00000000000E+00 -0.00000000000E+00 -0.31445807834E+02  0.31445807834E+02  0.00000000000E+00 0.  1.
         24    2    1    2    0    0 -0.75886914666E+02  0.13482118245E+03  0.89386190725E+03  0.91037053423E+03  0.76484150681E+02 0.  0.
         23    2    1    2    0    0  0.77547059268E+02 -0.10635145311E+03  0.44004441804E+03  0.46802557644E+03  0.89914806219E+02 0.  0.
        -11    1    3    3    0    0 -0.23456004394E+02  0.10353942554E+03  0.45138971291E+03  0.46370601647E+03  0.00000000000E+00 0.  1.
         12    1    3    3    0    0 -0.52430910271E+02  0.31281756914E+02  0.44247219434E+03  0.44666451776E+03  0.00000000000E+00 0. -1.
        -11    1    4    4    0    0  0.92450558040E+02 -0.72502174716E+02  0.27787598489E+03  0.30169311228E+03  0.00000000000E+00 0.  1.
         11    1    4    4    0    0 -0.14903498772E+02 -0.33849278399E+02  0.16216843315E+03  0.16633246416E+03  0.00000000000E+00 0. -1.
          1    1    1    2  501    0 -0.16601446029E+01 -0.28469729339E+02  0.12896929374E+02  0.31298759657E+02  0.00000000000E+00 0. -1.
<scales pt_clust_5="13000.00000" pt_clust_6="13000.00000" pt_clust_7="13000.00000" pt_clust_8="13000.00000" pt_clust_9="28.51809"></scales>
<clustering>
<clus scale="   28.518">  2  9  1 -1</clus>
<clus scale="   76.484">  5  6 -1 -1</clus>
<clus scale="   89.915">  7  8 -1 -1</clus>
<clus scale="  164.749">  1  5  2 -1</clus>
<clus scale="   28.518">  2  5  1 -1</clus>
</clustering>
</event>
<event>
 9    2  0.9254368E-005  0.1293035E+03  0.7546771E-02  0.1231172E+00
         21   -1    0    0  501  502  0.00000000000E+00  0.00000000000E+00  0.33583434081E+03  0.33583434081E+03  0.00000000000E+00 0. -1.
         -1   -1    0    0    0  501 -0.00000000000E+00 -0.00000000000E+00 -0.40980301499E+03  0.40980301499E+03  0.00000000000E+00 0.  1.
         23    2    1    2    0    0 -0.87285493594E+02  0.43626865870E+02 -0.35117892898E+03  0.37543871890E+03  0.90030720716E+02 0.  0.
         24    2    1    2    0    0  0.37130384311E+02 -0.67617794436E+02  0.27377268664E+02  0.11425407141E+03  0.79709763715E+02 0.  0.
        -13    1    4    4    0    0  0.17119196150E+02  0.16686553538E+02  0.21145592271E+01  0.23999568882E+02  0.00000000000E+00 0.  1.
         14    1    4    4    0    0  0.20011188161E+02 -0.84304347974E+02  0.25262709437E+02  0.90254502530E+02  0.00000000000E+00 0. -1.
        -11    1    3    3    0    0  0.15253622469E+02  0.23693553315E+02 -0.81638756273E+02  0.86365178127E+02  0.00000000000E+00 0. -1.
         11    1    3    3    0    0 -0.10253911606E+03  0.19933312555E+02 -0.26954017271E+03  0.28907354077E+03  0.00000000000E+00 0.  1.
         -2    1    1    2    0  502  0.50155109283E+02  0.23990928566E+02  0.24983298613E+03  0.25594456548E+03  0.00000000000E+00 0.  1.
<scales pt_clust_5="13000.00000" pt_clust_6="13000.00000" pt_clust_7="13000.00000" pt_clust_8="13000.00000" pt_clust_9="55.59766"></scales>
<clustering>
<clus scale="   55.598">  1  9  2 -1</clus>
<clus scale="   79.710">  5  6 -1 -1</clus>
<clus scale="   90.031">  7  8 -1 -1</clus>
<clus scale="  122.342">  1  5  2 -1</clus>
<clus scale="   55.598">  1  5  2 -1</clus>
</clustering>
</event>
<event>
 9    2  0.9254368E-005  0.3072784E+03  0.7546771E-02  0.1082030E+00
          2   -1    0    0  502    0 -0.00000000000E+00  0.00000000000E+00  0.12309796603E+04  0.12309796603E+04  0.00000000000E+00 0. -1.
         21   -1    0    0  501  502  0.00000000000E+00 -0.00000000000E+00 -0.13927154488E+03  0.13927154488E+03  0.00000000000E+00 0.  1.
         24    2    1    2    0    0  0.30782763434E+03 -0.84822169554E+02  0.35025324694E+03  0.48063351006E+03  0.79866019615E+02 0.  0.
         23    2    1    2    0    0 -0.27428817513E+03 -0.17276641435E+02  0.23772856727E+03  0.37455532116E+03  0.90798301497E+02 0.  0.
        -11    1    3    3    0    0  0.25856319773E+03 -0.53616763371E+02  0.32016651664E+03  0.41501359365E+03  0.00000000000E+00 0.  1.
         12    1    3    3    0    0  0.49264436609E+02 -0.31205406183E+02  0.30086730292E+02  0.65619916406E+02  0.00000000000E+00 0. -1.
        -13    1    4    4    0    0 -0.23003048372E+02  0.15107516591E+02  0.57133636796E+02  0.63416320813E+02  0.00000000000E+00 0.  1.
         13    1    4    4    0    0 -0.25128512676E+03 -0.32384158027E+02  0.18059493047E+03  0.31113900034E+03  0.00000000000E+00 0. -1.
          1    1    1    2  501    0 -0.33539459209E+02  0.10209881099E+03  0.50372630127E+03  0.51506237401E+03  0.00000000000E+00 0. -1.
<scales pt_clust_5="13000.00000" pt_clust_6="13000.00000" pt_clust_7="13000.00000" pt_clust_8="13000.00000" pt_clust_9="107.46662"></scales>
<clustering>
<clus scale="   79.866">  5  6 -1 -1</clus>
<clus scale="   90.798">  7  8 -1 -1</clus>
<clus scale="  107.467">  2  9  1 -1</clus>
<clus scale="  304.227">  1  5  2 -1</clus>
<clus scale="  107.467">  2  5  1 -1</clus>
</clustering>
</event>
<event>
 9    2  0.9254368E-005  0.9764840E+02  0.7546771E-02  0.1290429E+00
         -3   -1    0    0    0  501 -0.00000000000E+00  0.00000000000E+00  0.34798293664E+03  0.34798293664E+03  0.00000000000E+00 0.  1.
         21   -1    0    0  501  502  0.00000000000E+00 -0.00000000000E+00 -0.51023251489E+02  0.51023251489E+02  0.00000000000E+00 0. -1.
         23    2    1    2    0    0  0.37355064788E+02  0.11283644440E+02  0.78860027502E+02  0.12725191438E+03  0.91931628281E+02 0.  0.
         24    2    1    2    0    0 -0.23928190361E+02  0.35029511356E+02  0.70357236124E+02  0.11634187889E+03  0.82375161001E+02 0.  0.
        -11    1    4    4    0    0  0.11427841738E+02  0.26730699451E+02  0.74325726200E+02  0.79808767909E+02  0.00000000000E+00 0.  1.
         12    1    4    4    0    0 -0.35356032099E+02  0.82988119044E+01 -0.39684900759E+01  0.36533110986E+02  0.00000000000E+00 0. -1.
        -13    1    3    3    0    0 -0.14084116869E+02 -0.23891569121E+02  0.13073300778E+01  0.27764699440E+02  0.00000000000E+00 0.  1.
         13    1    3    3    0    0  0.51439181657E+02  0.35175213561E+02  0.77552697425E+02  0.99487214939E+02  0.00000000000E+00 0. -1.
         -4    1    1    2    0  502 -0.13426874427E+02 -0.46313155795E+02  0.14774242152E+03  0.15541239485E+03  0.00000000000E+00 0.  1.
<scales pt_clust_5="13000.00000" pt_clust_6="13000.00000" pt_clust_7="13000.00000" pt_clust_8="13000.00000" pt_clust_9="48.22024"></scales>
<clustering>
<clus scale="   48.220">  2  9  1 -1</clus>
<clus scale="   82.375">  5  6 -1 -1</clus>
<clus scale="   88.710">  2  5  1 -1</clus>
<clus scale="   91.932">  7  8 -1 -1</clus>
<clus scale="   48.220">  2  5  1 -1</clus>
</clustering>
</event>
<event>
 9    2  0.9254368E-005  0.8973603E+02  0.7546771E-02  0.1309966E+00
         21   -1    0    0  501  502  0.00000000000E+00  0.00000000000E+00  0.40269500340E+03  0.40269500340E+03  0.00000000000E+00 0.  1.
          4   -1    0    0  502    0 -0.00000000000E+00 -0.00000000000E+00 -0.13006320120E+03  0.13006320120E+03  0.00000000000E+00 0. -1.
         23    2    1    2    0    0  0.68238160921E+01 -0.30717853203E+01 -0.74396879401E+02  0.11661072301E+03  0.89482762166E+02 0.  0.
         24    2    1    2    0    0  0.40077985213E+02  0.42276209647E+02  0.34073779366E+03  0.35469554002E+03  0.79455391775E+02 0.  0.
        -11    1    4    4    0    0  0.58616332960E+02  0.49464993839E+02  0.23806504086E+03  0.25011522102E+03  0.00000000000E+00 0.  1.
         12    1    4    4    0    0 -0.18538347747E+02 -0.71887841920E+01  0.10267275280E+03  0.10458031900E+03  0.00000000000E+00 0. -1.
        -11    1    3    3    0    0 -0.31386456001E+02 -0.22301486916E+02 -0.60351751531E+02  0.71587707407E+02  0.00000000000E+00 0. -1.
         11    1    3    3    0    0  0.38210272093E+02  0.19229701596E+02 -0.14045127870E+02  0.45023015601E+02  0.00000000000E+00 0.  1.
          3    1    1    2  501    0 -0.46901801305E+02 -0.39204424327E+02  0.62908879377E+01  0.61451941576E+02  0.00000000000E+00 0. -1.
<scales pt_clust_5="13000.00000" pt_clust_6="13000.00000" pt_clust_7="13000.00000" pt_clust_8="13000.00000" pt_clust_9="61.12912"></scales>
<clustering>
<clus scale="   61.129">  1  9  2 -1</clus>
<clus scale="   79.455">  5  6 -1 -1</clus>
<clus scale="   79.741">  1  5  2 -1</clus>
<clus scale="   89.483">  7  8 -1 -1</clus>
<clus scale="   61.129">  1  5  2 -1</clus>
</clustering>
</event>
<event>
 9    2  0.9254368E-005  0.9303281E+02  0.7546771E-02  0.1296502E+00
         21   -1    0    0  501  502  0.00000000000E+00  0.00000000000E+00  0.25948585865E+03  0.25948585865E+03  0.00000000000E+00 0. -1.
          2   -1    0    0  502    0 -0.00000000000E+00 -0.00000000000E+00 -0.29630477584E+03  0.29630477584E+03  0.00000000000E+00 0. -1.
         24    2    1    2    0    0  0.15397676429E+02  0.43341194514E+02 -0.27246954711E+03  0.28769742044E+03  0.80091223253E+02 0.  0.
         23    2    1    2    0    0 -0.12331879747E+02 -0.16698991991E+01  0.18356939237E+03  0.20132232767E+03  0.81719605866E+02 0.  0.
        -11    1    3    3    0    0 -0.77790567843E+01 -0.21605001999E+02 -0.56573247175E+02  0.61055893506E+02  0.00000000000E+00 0.  1.
         12    1    3    3    0    0  0.23176733213E+02  0.64946196513E+02 -0.21589629994E+03  0.22664152693E+03  0.00000000000E+00 0. -1.
        -13    1    4    4    0    0 -0.37374818119E+02 -0.17527919955E+02  0.51680952563E+02  0.66143978299E+02  0.00000000000E+00 0.  1.
         13    1    4    4    0    0  0.25042938372E+02  0.15858020756E+02  0.13188843981E+03  0.13517834938E+03  0.00000000000E+00 0. -1.
          1    1    1    2  501    0 -0.30657966814E+01 -0.41671295314E+02  0.52081237550E+02  0.66770886374E+02  0.00000000000E+00 0. -1.
<scales pt_clust_5="13000.00000" pt_clust_6="13000.00000" pt_clust_7="13000.00000" pt_clust_8="13000.00000" pt_clust_9="41.78392"></scales>
<clustering>
<clus scale="   41.784">  1  9  2 -1</clus>
<clus scale="   80.091">  5  6 -1 -1</clus>
<clus scale="   81.720">  7  8 -1 -1</clus>
<clus scale="   91.606">  2  5  1 -1</clus>
<clus scale="   41.784">  1  5  2 -1</clus>
</clustering>
</event>
<event>
 9    2  0.9254368E-005  0.1007208E+03  0.7546771E-02  0.1281865E+00
          4   -1    0    0  502    0 -0.00000000000E+00  0.00000000000E+00  0.18776642502E+03  0.18776642502E+03  0.00000000000E+00 0. -1.
         21   -1    0    0  501  502  0.00000000000E+00 -0.00000000000E+00 -0.11007257588E+03  0.11007257588E+03  0.00000000000E+00 0. -1.
         23    2    1    2    0    0  0.48591423673E+02  0.48610225695E+01  0.12989538530E+03  0.16566281292E+03  0.90479834590E+02 0.  0.
         24    2    1    2    0    0 -0.29870105871E+02  0.14503195829E+02 -0.24726040821E+02  0.93700695273E+02  0.84058772807E+02 0.  0.
        -13    1    4    4    0    0 -0.25274032548E+02  0.28543427413E+02  0.22464954441E+02  0.44251306735E+02  0.00000000000E+00 0.  1.
         14    1    4    4    0    0 -0.45960733234E+01 -0.14040231583E+02 -0.47190995263E+02  0.49449388538E+02  0.00000000000E+00 0. -1.
        -13    1    3    3    0    0  0.70655158455E+02  0.10271793894E+02  0.12247042532E+03  0.14176271105E+03  0.00000000000E+00 0. -1.
         13    1    3    3    0    0 -0.22063734782E+02 -0.54107713242E+01  0.74249599864E+01  0.23900101876E+02  0.00000000000E+00 0.  1.
          3    1    1    2  501    0 -0.18721317802E+02 -0.19364218399E+02 -0.27475495339E+02  0.38475492701E+02  0.00000000000E+00 0. -1.
<scales pt_clust_5="13000.00000" pt_clust_6="13000.00000" pt_clust_7="13000.00000" pt_clust_8="13000.00000" pt_clust_9="26.93438"></scales>
<clustering>
<clus scale="   26.934">  2  9  1 -1</clus>
<clus scale="   84.059">  5  6 -1 -1</clus>
<clus scale="   90.480">  7  8 -1 -1</clus>
<clus scale="   94.995">  2  5  1 -1</clus>
<clus scale="   26.934">  2  5  1 -1</clus>
</clustering>
</event>
<event>
 9    2  0.9254368E-005  0.1229497E+03  0.7546771E-02  0.1267583E+00
         21   -1    0    0  501  502  0.00000000000E+00  0.00000000000E+00  0.54000142362E+02  0.54000142362E+02  0.00000000000E+00 0. -1.
          2   -1    0    0  502    0 -0.00000000000E+00 -0.00000000000E+00 -0.46125423683E+03  0.46125423683E+03  0.00000000000E+00 0. -1.
         24    2    1    2    0    0  0.23771527760E+01 -0.15116879275E+02 -0.18325795474E+03  0.19570997854E+03  0.66968252397E+02 0.  0.
         23    2    1    2    0    0 -0.80309554027E+02 -0.16037601434E+02 -0.19634968448E+03  0.23117932089E+03  0.90464637759E+02 0.  0.
        -11    1    3    3    0    0  0.11456948473E+02  0.23718921516E+02 -0.48719824905E+02  0.55384747404E+02  0.00000000000E+00 0.  1.
         12    1    3    3    0    0 -0.90797956972E+01 -0.38835800791E+02 -0.13453812984E+03  0.14032523114E+03  0.00000000000E+00 0. -1.
        -11    1    4    4    0    0 -0.23135323236E+02  0.35349061039E+02 -0.46930265448E+02  0.63144668125E+02  0.00000000000E+00 0. -1.
         11    1    4    4    0    0 -0.57174230792E+02 -0.51386662473E+02 -0.14941941903E+03  0.16803465277E+03  0.00000000000E+00 0.  1.
          1    1    1    2  501    0  0.77932401251E+02  0.31154480709E+02 -0.27646455241E+02  0.88365079757E+02  0.00000000000E+00 0. -1.
<scales pt_clust_5="13000.00000" pt_clust_6="13000.00000" pt_clust_7="13000.00000" pt_clust_8="13000.00000" pt_clust_9="83.26326"></scales>
<clustering>
<clus scale="   66.968">  5  6 -1 -1</clus>
<clus scale="   68.694">  2  5  1 -1</clus>
<clus scale="   83.263">  1  9  2 -1</clus>
<clus scale="   90.465">  7  8 -1 -1</clus>
<clus scale="   83.263">  1  5  2 -1</clus>
</clustering>
</event>
<event>
 9    2  0.9254368E-005  0.1127557E+03  0.7546771E-02  0.1261609E+00
         21   -1    0    0  501  502  0.00000000000E+00  0.00000000000E+00  0.27082473486E+03  0.27082473486E+03  0.00000000000E+00 0. -1.
          4   -1    0    0  502    0 -0.00000000000E+00 -0.00000000000E+00 -0.76509945035E+02  0.76509945035E+02  0.00000000000E+00 0. -1.
         24    2    1    2    0    0 -0.72561892647E+02 -0.25506542488E+02  0.74407979655E+02  0.13097200222E+03  0.75506992748E+02 0.  0.
         23    2    1    2    0    0  0.44212134722E+02  0.18856267887E+02  0.14484669052E+03  0.17802297817E+03  0.91658852848E+02 0.  0.
        -13    1    3    3    0    0 -0.29930911537E+02  0.24991737971E+02  0.42191985175E+02  0.57450935982E+02  0.00000000000E+00 0.  1.
         14    1    3    3    0    0 -0.42630981110E+02 -0.50498280459E+02  0.32215994481E+02  0.73521066233E+02  0.00000000000E+00 0. -1.
        -13    1    4    4    0    0  0.42345309862E+02 -0.29740841395E+02  0.52861730932E+02  0.73973005288E+02  0.00000000000E+00 0.  1.
         13    1    4    4    0    0  0.18668248599E+01  0.48597109282E+02  0.91984959592E+02  0.10404997288E+03  0.00000000000E+00 0. -1.
          3    1    1    2  501    0  0.28349757925E+02  0.66502746002E+01 -0.24939880353E+02  0.38339699512E+02  0.00000000000E+00 0. -1.
<scales pt_clust_5="13000.00000" pt_clust_6="13000.00000" pt_clust_7="13000.00000" pt_clust_8="13000.00000" pt_clust_9="29.11934"></scales>
<clustering>
<clus scale="   29.119">  1  9  2 -1</clus>
<clus scale="   75.507">  5  6 -1 -1</clus>
<clus scale="   91.659">  7  8 -1 -1</clus>
<clus scale="  100.069">  2  5  1 -1</clus>
<clus scale="   29.119">  1  5  2 -1</clus>
</clustering>
</event>
<event>
 9    2  0.9254368E-005  0.1105334E+03  0.7546771E-02  0.1263824E+00
          2   -1    0    0  502    0 -0.00000000000E+00  0.00000000000E+00  0.33482210598E+03  0.33482210598E+03  0.00000000000E+00 0. -1.
         21   -1    0    0  501  502  0.00000000000E+00 -0.00000000000E+00 -0.12375209395E+03  0.12375209395E+03  0.00000000000E+00 0. -1.
         24    2    1    2    0    0  0.47996768646E+02 -0.22535550138E+02  0.88820171123E+02  0.13097876204E+03  0.80342221066E+02 0.  0.
         23    2    1    2    0    0 -0.92600905702E+02  0.52373430065E+02 -0.48735912840E+02  0.14838618561E+03  0.91243448887E+02 0.  0.
        -13    1    3    3    0    0  0.22051866986E+02  0.30053056724E+02  0.29178362215E+02  0.47337594759E+02  0.00000000000E+00 0.  1.
         14    1    3    3    0    0  0.25944901660E+02 -0.52588606861E+02  0.59641808908E+02  0.83641167278E+02  0.00000000000E+00 0. -1.
        -11    1    4    4    0    0 -0.41962646830E+02  0.47557959809E+02  0.16622503323E+02  0.65566232825E+02  0.00000000000E+00 0.  1.
         11    1    4    4    0    0 -0.50638258872E+02  0.48154702561E+01 -0.65358416163E+02  0.82819952781E+02  0.00000000000E+00 0. -1.
          1    1    1    2  501    0  0.44604137056E+02 -0.29837879927E+02  0.17098575375E+03  0.17920925229E+03  0.00000000000E+00 0. -1.
<scales pt_clust_5="13000.00000" pt_clust_6="13000.00000" pt_clust_7="13000.00000" pt_clust_8="13000.00000" pt_clust_9="53.66406"></scales>
<clustering>
<clus scale="   53.664">  2  9  1 -1</clus>
<clus scale="   80.342">  5  6 -1 -1</clus>
<clus scale="   91.243">  7  8 -1 -1</clus>
<clus scale="  101.721">  1  5  2 -1</clus>
<clus scale="   53.664">  2  5  1 -1</clus>
</clustering>
</event>
<event>
 9    2  0.9254368E-005  0.1369272E+03  0.7546771E-02  0.1232050E+00
          2   -1    0    0  502    0 -0.00000000000E+00  0.00000000000E+00  0.20330684010E+04  0.20330684010E+04  0.00000000000E+00 0. -1.
         21   -1    0    0  501  502  0.00000000000E+00 -0.00000000000E+00 -0.15377716852E+02  0.15377716852E+02  0.00000000000E+00 0. -1.
         24    2    1    2    0    0 -0.54171513772E+02 -0.27216110903E+02  0.57131390679E+03  0.58020384950E+03  0.81004057182E+02 0.  0.
         23    2    1    2    0    0 -0.39682601905E+02  0.93831492051E+02  0.68696510168E+03  0.70015874608E+03  0.89006522204E+02 0.  0.
        -13    1    3    3    0    0 -0.17229485083E+02 -0.13511446029E+02  0.28392588522E+02  0.35854614947E+02  0.00000000000E+00 0.  1.
         14    1    3    3    0    0 -0.36942028689E+02 -0.13704664873E+02  0.54292131827E+03  0.54434923455E+03  0.00000000000E+00 0. -1.
        -11    1    4    4    0    0 -0.39594369518E+02 -0.16149881162E+01  0.21965944555E+03  0.22320527392E+03  0.00000000000E+00 0.  1.
         11    1    4    4    0    0 -0.88232386233E-01  0.95446480167E+02  0.46730565613E+03  0.47695347216E+03  0.00000000000E+00 0. -1.
          1    1    1    2  501    0  0.93854115676E+02 -0.66615381148E+02  0.75941167567E+03  0.76808352227E+03  0.00000000000E+00 0. -1.
<scales pt_clust_5="13000.00000" pt_clust_6="13000.00000" pt_clust_7="13000.00000" pt_clust_8="13000.00000" pt_clust_9="104.05245"></scales>
<clustering>
<clus scale="   81.004">  5  6 -1 -1</clus>
<clus scale="   89.007">  7  8 -1 -1</clus>
<clus scale="  101.178">  1  5  2 -1</clus>
<clus scale="  104.052">  2  9  1 -1</clus>
<clus scale="  104.052">  2  5  1 -1</clus>
</clustering>
</event>
<event>
 9    2  0.9254368E-005  0.1596831E+03  0.7546771E-02  0.1203328E+00
          2   -1    0    0  502    0 -0.00000000000E+00  0.00000000000E+00  0.26312680876E+03  0.26312680876E+03  0.00000000000E+00 0. -1.
         21   -1    0    0  501  502  0.00000000000E+00 -0.00000000000E+00 -0.36090430806E+03  0.36090430806E+03  0.00000000000E+00 0. -1.
         23    2    1    2    0    0  0.77168252863E+02  0.55358595768E+01  0.15660838494E+03  0.19541626588E+03  0.87611333425E+02 0.  0.
         24    2    1    2    0    0  0.47383633383E+01 -0.14129715865E+03 -0.21134656839E+03  0.26432179930E+03  0.72189351624E+02 0.  0.
        -13    1    4    4    0    0 -0.11614869542E+02 -0.81702770369E+02 -0.17278305816E+03  0.19147906692E+03  0.00000000000E+00 0.  1.
         14    1    4    4    0    0  0.16353232881E+02 -0.59594388284E+02 -0.38563510228E+02  0.72842732388E+02  0.00000000000E+00 0. -1.
        -13    1    3    3    0    0  0.39113617606E+02  0.44820670715E+02  0.10230375407E+03  0.11834198622E+03  0.00000000000E+00 0. -1.
         13    1    3    3    0    0  0.38054635257E+02 -0.39284811138E+02  0.54304630870E+02  0.77074279657E+02  0.00000000000E+00 0.  1.
          1    1    1    2  501    0 -0.81906616201E+02  0.13576129908E+03 -0.43039315860E+02  0.16429305163E+03  0.00000000000E+00 0. -1.
<scales pt_clust_5="13000.00000" pt_clust_6="13000.00000" pt_clust_7="13000.00000" pt_clust_8="13000.00000" pt_clust_9="142.43390"></scales>
<clustering>
<clus scale="   72.189">  5  6 -1 -1</clus>
<clus scale="   87.611">  7  8 -1 -1</clus>
<clus scale="  116.882">  1  7  2 -1</clus>
<clus scale="  142.434">  2  9  1 -1</clus>
<clus scale="  142.434">  2  5  1 -1</clus>
</clustering>
</event>
<event>
 9    2  0.9254368E-005  0.1276097E+03  0.7546771E-02  0.1252335E+00
         -1   -1    0    0    0  501 -0.00000000000E+00  0.00000000000E+00  0.13720558774E+03  0.13720558774E+03  0.00000000000E+00 0.  1.
         21   -1    0    0  501  502  0.00000000000E+00 -0.00000000000E+00 -0.21520581820E+03  0.21520581820E+03  0.00000000000E+00 0.  1.
         24    2    1    2    0    0  0.70803611360E+01  0.23189136656E+02 -0.59533241717E+02  0.10207186129E+03  0.79288021949E+02 0.  0.
         23    2    1    2    0    0 -0.54867690409E+02  0.57026563087E+02  0.54529037758E+02  0.13182116123E+03  0.90226992858E+02 0.  0.
        -11    1    3    3    0    0  0.15430560696E+02  0.47138843528E+02 -0.16780889315E+02  0.52361923368E+02  0.00000000000E+00 0.  1.
         12    1    3    3    0    0 -0.83501995599E+01 -0.23949706873E+02 -0.42752352402E+02  0.49709937919E+02  0.00000000000E+00 0. -1.
        -13    1    4    4    0    0 -0.46103896063E+02  0.27809448297E+02  0.76984110593E+02  0.93944068097E+02  0.00000000000E+00 0.  1.
         13    1    4    4    0    0 -0.87637943461E+01  0.29217114790E+02 -0.22455072835E+02  0.37877093130E+02  0.00000000000E+00 0. -1.
         -2    1    1    2    0  502  0.47787329273E+02 -0.80215699743E+02 -0.72996026508E+02  0.11851838343E+03  0.00000000000E+00 0.  1.
<scales pt_clust_5="13000.00000" pt_clust_6="13000.00000" pt_clust_7="13000.00000" pt_clust_8="13000.00000" pt_clust_9="90.24034"></scales>
<clustering>
<clus scale="   79.288">  5  6 -1 -1</clus>
<clus scale="   82.912">  1  5  2 -1</clus>
<clus scale="   90.227">  7  8 -1 -1</clus>
<clus scale="   90.240">  2  9  1 -1</clus>
<clus scale="   90.240">  2  5  1 -1</clus>
</clustering>
</event>
<event>
 9    2  0.9254368E-005  0.1263533E+03  0.7546771E-02  0.1235641E+00
         21   -1    0    0  501  502  0.00000000000E+00  0.00000000000E+00  0.69475446231E+02  0.69475446231E+02  0.00000000000E+00 0. -1.
         -1   -1    0    0    0  501 -0.00000000000E+00 -0.00000000000E+00 -0.41043546296E+03  0.41043546296E+03  0.00000000000E+00 0.  1.
         23    2    1    2    0    0 -0.36399934927E+02 -0.78996510104E+02 -0.19238496009E+03  0.22961433853E+03  0.90251690943E+02 0.  0.
         24    2    1    2    0    0  0.90583101166E+02  0.51950793146E+02 -0.64845208540E+02  0.14696228897E+03  0.80553275441E+02 0.  0.
        -13    1    4    4    0    0  0.17475160802E+02  0.10579910142E+02 -0.59365328229E+02  0.62781828098E+02  0.00000000000E+00 0.  1.
         14    1    4    4    0    0  0.73107940364E+02  0.41370883004E+02 -0.54798803114E+01  0.84180460875E+02  0.00000000000E+00 0. -1.
        -13    1    3    3    0    0 -0.62643066574E+02 -0.29377158291E+02 -0.10832161854E+03  0.12853304735E+03  0.00000000000E+00 0.  1.
         13    1    3    3    0    0  0.26243131648E+02 -0.49619351813E+02 -0.84063341551E+02  0.10108129118E+03  0.00000000000E+00 0. -1.
         -2    1    1    2    0  502 -0.54183166239E+02  0.27045716958E+02 -0.83729848095E+02  0.10333428169E+03  0.00000000000E+00 0.  1.
<scales pt_clust_5="13000.00000" pt_clust_6="13000.00000" pt_clust_7="13000.00000" pt_clust_8="13000.00000" pt_clust_9="60.55815"></scales>
<clustering>
<clus scale="   60.558">  1  9  2 -1</clus>
<clus scale="   80.553">  5  6 -1 -1</clus>
<clus scale="   90.252">  7  8 -1 -1</clus>
<clus scale="  119.619">  1  5  2 -1</clus>
<clus scale="   60.558">  1  5  2 -1</clus>
</clustering>
</event>
<event>
 9    2  0.9254368E-005  0.9496195E+02  0.7546771E-02  0.1296764E+00
          4   -1    0    0  502    0 -0.00000000000E+00  0.00000000000E+00  0.27707285038E+03  0.27707285038E+03  0.00000000000E+00 0. -1.
         21   -1    0    0  501  502  0.00000000000E+00 -0.00000000000E+00 -0.86916754305E+02  0.86916754305E+02  0.00000000000E+00 0. -1.
         24    2    1    2    0    0 -0.18321220943E+02 -0.38844814486E+02  0.29662138035E+02  0.96136329254E+02  0.80732673809E+02 0.  0.
         23    2    1    2    0    0  0.22852176264E+02 -0.71016559233E+01 -0.72440908597E+01  0.93877240450E+02  0.90486484876E+02 0.  0.
        -11    1    3    3    0    0  0.26293113641E+02 -0.74846838144E+01  0.31326345120E+02  0.41577496502E+02  0.00000000000E+00 0.  1.
         12    1    3    3    0    0 -0.44614334584E+02 -0.31360130672E+02 -0.16642070856E+01  0.54558832753E+02  0.00000000000E+00 0. -1.
        -13    1    4    4    0    0  0.22871860829E+02  0.32857747962E+02  0.20745502509E+02  0.45090237228E+02  0.00000000000E+00 0.  1.
         13    1    4    4    0    0 -0.19684564874E-01 -0.39959403886E+02 -0.27989593369E+02  0.48787003221E+02  0.00000000000E+00 0. -1.
          3    1    1    2  501    0 -0.45309553218E+01  0.45946470409E+02  0.16773804890E+03  0.17397603498E+03  0.00000000000E+00 0. -1.
<scales pt_clust_5="13000.00000" pt_clust_6="13000.00000" pt_clust_7="13000.00000" pt_clust_8="13000.00000" pt_clust_9="46.16936"></scales>
<clustering>
<clus scale="   46.169">  2  9  1 -1</clus>
<clus scale="   80.733">  5  6 -1 -1</clus>
<clus scale="   85.719">  1  5  2 -1</clus>
<clus scale="   90.486">  7  8 -1 -1</clus>
<clus scale="   46.169">  2  5  1 -1</clus>
</clustering>
</event>
<event>
 9    2  0.9254368E-005  0.9501084E+02  0.7546771E-02  0.1297370E+00
         21   -1    0    0  501  502  0.00000000000E+00  0.00000000000E+00  0.28470647416E+03  0.28470647416E+03  0.00000000000E+00 0.  1.
         -1   -1    0    0    0  501 -0.00000000000E+00 -0.00000000000E+00 -0.15741783965E+03  0.15741783965E+03  0.00000000000E+00 0.  1.
         23    2    1    2    0    0  0.34251166593E+02 -0.29028076444E+02 -0.78828146341E+02  0.12881806224E+03  0.91457339058E+02 0.  0.
         24    2    1    2    0    0 -0.10912875559E+02 -0.24795797500E+02 -0.13386755070E+02  0.86098224615E+02  0.80621192275E+02 0.  0.
        -11    1    4    4    0    0  0.25275504769E+02 -0.36629045840E+02  0.30934343664E+01  0.44610620671E+02  0.00000000000E+00 0.  1.
         12    1    4    4    0    0 -0.36188380329E+02  0.11833248340E+02 -0.16480189437E+02  0.41487603943E+02  0.00000000000E+00 0. -1.
        -13    1    3    3    0    0  0.77653612947E+01 -0.20385248003E+02  0.17861970435E+02  0.28194133432E+02  0.00000000000E+00 0. -1.
         13    1    3    3    0    0  0.26485805299E+02 -0.86428284407E+01 -0.96690116776E+02  0.10062392880E+03  0.00000000000E+00 0.  1.
         -2    1    1    2    0  502 -0.23338291034E+02  0.53823873944E+02  0.21950353591E+03  0.22720802696E+03  0.00000000000E+00 0.  1.
<scales pt_clust_5="13000.00000" pt_clust_6="13000.00000" pt_clust_7="13000.00000" pt_clust_8="13000.00000" pt_clust_9="58.66588"></scales>
<clustering>
<clus scale="   58.666">  1  9  2 -1</clus>
<clus scale="   80.621">  5  6 -1 -1</clus>
<clus scale="   84.631">  1  5  2 -1</clus>
<clus scale="   91.457">  7  8 -1 -1</clus>
<clus scale="   58.666">  1  5  2 -1</clus>
</clustering>
</event>
<event>
 9    2  0.9254368E-005  0.2075447E+03  0.7546771E-02  0.1144179E+00
         21   -1    0    0  501  502  0.00000000000E+00  0.00000000000E+00  0.15514448738E+03  0.15514448738E+03  0.00000000000E+00 0.  1.
         -1   -1    0    0    0  501 -0.00000000000E+00 -0.00000000000E+00 -0.46537817018E+03  0.46537817018E+03  0.00000000000E+00 0.  1.
         24    2    1    2    0    0 -0.18210473465E+03 -0.10667698818E+02 -0.31424169614E+03  0.37637523618E+03  0.98155695893E+02 0.  0.
         23    2    1    2    0    0  0.18516078492E+03 -0.21302881880E+02 -0.12859989120E+02  0.20787088653E+03  0.91140534895E+02 0.  0.
        -11    1    3    3    0    0 -0.51083357659E+02 -0.29636992156E+02 -0.17293609425E+03  0.18274231428E+03  0.00000000000E+00 0.  1.
         12    1    3    3    0    0 -0.13102137699E+03  0.18969293338E+02 -0.14130560189E+03  0.19363292190E+03  0.00000000000E+00 0. -1.
        -13    1    4    4    0    0  0.11857802282E+03 -0.41210335355E+02  0.26071769539E+02  0.12821379178E+03  0.00000000000E+00 0.  1.
         13    1    4    4    0    0  0.66582762096E+02  0.19907453475E+02 -0.38931758659E+02  0.79657094753E+02  0.00000000000E+00 0. -1.
         -2    1    1    2    0  502 -0.30560502697E+01  0.31970580698E+02  0.16868002457E+02  0.36276534844E+02  0.00000000000E+00 0.  1.
<scales pt_clust_5="13000.00000" pt_clust_6="13000.00000" pt_clust_7="13000.00000" pt_clust_8="13000.00000" pt_clust_9="32.11631"></scales>
<clustering>
<clus scale="   32.116">  1  9  2 -1</clus>
<clus scale="   91.141">  7  8 -1 -1</clus>
<clus scale="   98.156">  5  6 -1 -1</clus>
<clus scale="  204.321">  1  7  2 -1</clus>
<clus scale="   32.116">  1  5  2 -1</clus>
</clustering>
</event>
<event>
 9    2  0.9254368E-005  0.1369255E+03  0.7546771E-02  0.1219523E+00
         21   -1    0    0  501  502  0.00000000000E+00  0.00000000000E+00  0.74118102861E+02  0.74118102861E+02  0.00000000000E+00 0. -1.
          2   -1    0    0  502    0 -0.00000000000E+00 -0.00000000000E+00 -0.61191817197E+03  0.61191817197E+03  0.00000000000E+00 0. -1.
         23    2    1    2    0    0 -0.41818913164E+01 -0.10160838255E+03 -0.15940165631E+03  0.20897029525E+03  0.88982833417E+02 0.  0.
         24    2    1    2    0    0  0.12639148292E+03  0.63359541534E+02 -0.21297155693E+03  0.26786702461E+03  0.80041366514E+02 0.  0.
        -11    1    4    4    0    0  0.38123455582E+02 -0.95455472505E+01 -0.21544412080E+02  0.44818266696E+02  0.00000000000E+00 0.  1.
         12    1    4    4    0    0  0.88268027341E+02  0.72905088785E+02 -0.19142714485E+03  0.22304875791E+03  0.00000000000E+00 0. -1.
        -13    1    3    3    0    0  0.19559852975E+02 -0.87053296372E+02 -0.64577254067E+02  0.11014120937E+03  0.00000000000E+00 0. -1.
         13    1    3    3    0    0 -0.23741744292E+02 -0.14555086174E+02 -0.94824402243E+02  0.98829085883E+02  0.00000000000E+00 0.  1.
          1    1    1    2  501    0 -0.12220959161E+03  0.38248841011E+02 -0.16542685587E+03  0.20919895497E+03  0.00000000000E+00 0. -1.
<scales pt_clust_5="13000.00000" pt_clust_6="13000.00000" pt_clust_7="13000.00000" pt_clust_8="13000.00000" pt_clust_9="128.05536"></scales>
<clustering>
<clus scale="   80.041">  5  6 -1 -1</clus>
<clus scale="   88.983">  7  8 -1 -1</clus>
<clus scale="  128.055">  1  9  2 -1</clus>
<clus scale="  131.291">  1  5  2 -1</clus>
<clus scale="  128.055">  1  5  2 -1</clus>
</clustering>
</event>
<event>
 9    2  0.9254368E-005  0.2671369E+03  0.7546771E-02  0.1140969E+00
         -1   -1    0    0    0  501 -0.00000000000E+00  0.00000000000E+00  0.27486285460E+03  0.27486285460E+03  0.00000000000E+00 0.  1.
         21   -1    0    0  501  502  0.00000000000E+00 -0.00000000000E+00 -0.53086637829E+03  0.53086637829E+03  0.00000000000E+00 0.  1.
         24    2    1    2    0    0  0.16811782021E+02  0.54841422912E+02  0.98763530983E+02  0.14305586471E+03  0.86142484830E+02 0.  0.
         23    2    1    2    0    0  0.16189842604E+03 -0.20537176982E+03 -0.32529015356E+03  0.42716198522E+03  0.90912119180E+02 0.  0.
        -13    1    3    3    0    0  0.17471831692E+02 -0.19584786089E+02  0.41688608127E+02  0.49262245141E+02  0.00000000000E+00 0.  1.
         14    1    3    3    0    0 -0.66004967109E+00  0.74426209001E+02  0.57074922857E+02  0.93793619564E+02  0.00000000000E+00 0. -1.
        -13    1    4    4    0    0  0.21173731878E+02 -0.12427539218E+02 -0.11895731475E+01  0.24580189929E+02  0.00000000000E+00 0. -1.
         13    1    4    4    0    0  0.14072469417E+03 -0.19294423061E+03 -0.32410058042E+03  0.40258179529E+03  0.00000000000E+00 0.  1.
         -2    1    1    2    0  502 -0.17871020807E+03  0.15053034691E+03 -0.29476901112E+02  0.23551138297E+03  0.00000000000E+00 0.  1.
<scales pt_clust_5="13000.00000" pt_clust_6="13000.00000" pt_clust_7="13000.00000" pt_clust_8="13000.00000" pt_clust_9="251.19156"></scales>
<clustering>
<clus scale="   86.142">  5  6 -1 -1</clus>
<clus scale="   90.912">  7  8 -1 -1</clus>
<clus scale="  103.493">  1  5  2 -1</clus>
<clus scale="  251.192">  2  9  1 -1</clus>
<clus scale="  251.192">  2  5  1 -1</clus>
</clustering>
</event>
<event>
 9    2  0.9297077E-005  0.2030481E+03  0.7546771E-02  0.1148308E+00
          2   -1    0    0  502    0 -0.00000000000E+00  0.00000000000E+00  0.23317638742E+04  0.23317638742E+04  0.00000000000E+00 0. -1.
         21   -1    0    0  501  502  0.00000000000E+00 -0.00000000000E+00 -0.25976203590E+03  0.25976203590E+03  0.00000000000E+00 0. -1.
         24    2    1    2    0    0  0.19674138999E+02  0.17840080467E+03  0.21490888405E+04  0.21580322605E+04  0.79413310410E+02 0.  0.
         23    2    1    2    0    0 -0.10705434150E+03 -0.24862157438E+03 -0.12449170389E+03  0.31178308301E+03  0.91854162839E+02 0.  0.
        -11    1    3    3    0    0  0.72768190840E+01  0.20065250568E+02  0.78146337096E+02  0.81008742602E+02  0.00000000000E+00 0.  1.
         12    1    3    3    0    0  0.12397319915E+02  0.15833555410E+03  0.20709425034E+04  0.20770235179E+04  0.00000000000E+00 0. -1.
        -11    1    4    4    0    0  0.90023104683E+01 -0.81320728238E+02 -0.43394691910E+02  0.92613183299E+02  0.00000000000E+00 0.  1.
         11    1    4    4    0    0 -0.11605665197E+03 -0.16730084614E+03 -0.81097011983E+02  0.21916989971E+03  0.00000000000E+00 0. -1.
          1    1    1    2  501    0  0.87380202498E+02  0.70220769712E+02  0.47404701641E+02  0.12171056661E+03  0.00000000000E+00 0. -1.
<scales pt_clust_5="13000.00000" pt_clust_6="13000.00000" pt_clust_7="13000.00000" pt_clust_8="13000.00000" pt_clust_9="112.09931"></scales>
<clustering>
<clus scale="   79.413">  5  6 -1 -1</clus>
<clus scale="   91.854">  7  8 -1 -1</clus>
<clus scale="  112.099">  2  9  1 -1</clus>
<clus scale="  197.732">  1  5  2 -1</clus>
<clus scale="  112.099">  2  5  1 -1</clus>
</clustering>
</event>
<event>
 9    2  0.9254368E-005  0.1023737E+03  0.7546771E-02  0.1278038E+00
         21   -1    0    0  501  502  0.00000000000E+00  0.00000000000E+00  0.41196331821E+02  0.41196331821E+02  0.00000000000E+00 0.  1.
          2   -1    0    0  502    0 -0.00000000000E+00 -0.00000000000E+00 -0.68724571439E+03  0.68724571439E+03  0.00000000000E+00 0. -1.
         24    2    1    2    0    0  0.17517959952E+02  0.54152728074E+02 -0.58542694476E+03  0.59379316676E+03  0.81401599266E+02 0.  0.
         23    2    1    2    0    0 -0.65788495688E+01 -0.28212954830E+02 -0.46599615543E+02  0.10319771864E+03  0.87401332265E+02 0.  0.
        -11    1    3    3    0    0  0.12454457001E+02 -0.16626064155E+02 -0.57874488469E+02  0.61489803415E+02  0.00000000000E+00 0.  1.
         12    1    3    3    0    0  0.50635029514E+01  0.70778792229E+02 -0.52755245629E+03  0.53230336335E+03  0.00000000000E+00 0. -1.
        -13    1    4    4    0    0  0.38695930084E+02 -0.26251075821E+02 -0.23569333581E+02  0.52364181195E+02  0.00000000000E+00 0.  1.
         13    1    4    4    0    0 -0.45274779653E+02 -0.19618790091E+01 -0.23030281962E+02  0.50833537444E+02  0.00000000000E+00 0. -1.
          1    1    1    2  501    0 -0.10939110383E+02 -0.25939773244E+02 -0.14022822266E+02  0.31451160809E+02  0.00000000000E+00 0. -1.
<scales pt_clust_5="13000.00000" pt_clust_6="13000.00000" pt_clust_7="13000.00000" pt_clust_8="13000.00000" pt_clust_9="28.15202"></scales>
<clustering>
<clus scale="   28.152">  1  9  2 -1</clus>
<clus scale="   81.402">  5  6 -1 -1</clus>
<clus scale="   87.401">  7  8 -1 -1</clus>
<clus scale="   97.302">  2  5  1 -1</clus>
<clus scale="   28.152">  1  5  2 -1</clus>
</clustering>
</event>
<event>
 9    2  0.9254368E-005  0.1248877E+03  0.7546771E-02  0.1238662E+00
         21   -1    0    0  501  502  0.00000000000E+00  0.00000000000E+00  0.77197066953E+02  0.77197066953E+02  0.00000000000E+00 0. -1.
          2   -1    0    0  502    0 -0.00000000000E+00 -0.00000000000E+00 -0.40629101875E+03  0.40629101875E+03  0.00000000000E+00 0. -1.
         24    2    1    2    0    0  0.14918601837E+02  0.90875115154E+02 -0.25450796693E+03  0.28183918244E+03  0.78601324986E+02 0.  0.
         23    2    1    2    0    0  0.45230398316E+02 -0.70031299128E+02 -0.41666114972E+02  0.12998242072E+03  0.90604595749E+02 0.  0.
        -11    1    3    3    0    0  0.33156287719E+02  0.31268021820E+02 -0.48263808014E+02  0.66380899119E+02  0.00000000000E+00 0.  1.
         12    1    3    3    0    0 -0.18237685883E+02  0.59607093334E+02 -0.20624415892E+03  0.21545828332E+03  0.00000000000E+00 0. -1.
        -13    1    4    4    0    0  0.71141892734E+02 -0.34292449446E+02 -0.26221201482E+02  0.83214736664E+02  0.00000000000E+00 0. -1.
         13    1    4    4    0    0 -0.25911494418E+02 -0.35738849681E+02 -0.15444913489E+02  0.46767684059E+02  0.00000000000E+00 0.  1.
          1    1    1    2  501    0 -0.60149000153E+02 -0.20843816026E+02 -0.32919869887E+02  0.71666482537E+02  0.00000000000E+00 0. -1.
<scales pt_clust_5="13000.00000" pt_clust_6="13000.00000" pt_clust_7="13000.00000" pt_clust_8="13000.00000" pt_clust_9="63.65820"></scales>
<clustering>
<clus scale="   63.658">  1  9  2 -1</clus>
<clus scale="   78.601">  5  6 -1 -1</clus>
<clus scale="   90.605">  7  8 -1 -1</clus>
<clus scale="  116.473">  2  5  1 -1</clus>
<clus scale="   63.658">  1  5  2 -1</clus>
</clustering>
</event>
<event>
 9    2  0.9254368E-005  0.1129585E+03  0.7546771E-02  0.1260583E+00
          2   -1    0    0  502    0 -0.00000000000E+00  0.00000000000E+00  0.59681668448E+03  0.59681668448E+03  0.00000000000E+00 0. -1.
         21   -1    0    0  501  502  0.00000000000E+00 -0.00000000000E+00 -0.35100696122E+02  0.35100696122E+02  0.00000000000E+00 0. -1.
         24    2    1    2    0    0 -0.56269710117E+02  0.93945826873E+01  0.17321613078E+03  0.19756566490E+03  0.75985692895E+02 0.  0.
         23    2    1    2    0    0  0.74677412870E+02  0.52988662837E+02  0.27007831880E+03  0.29924370821E+03  0.90664128698E+02 0.  0.
        -13    1    3    3    0    0 -0.56871003975E+02 -0.94744253810E+01  0.61630352667E+02  0.84394171596E+02  0.00000000000E+00 0.  1.
         14    1    3    3    0    0  0.60129385834E+00  0.18869008068E+02  0.11158577811E+03  0.11317149331E+03  0.00000000000E+00 0. -1.
        -13    1    4    4    0    0  0.42680521799E+02  0.24332742769E+02  0.35119787569E+02  0.60391297308E+02  0.00000000000E+00 0. -1.
         13    1    4    4    0    0  0.31996891071E+02  0.28655920068E+02  0.23495853123E+03  0.23885241090E+03  0.00000000000E+00 0.  1.
          1    1    1    2  501    0 -0.18407702753E+02 -0.62383245524E+02  0.11842153877E+03  0.13510800749E+03  0.00000000000E+00 0. -1.
<scales pt_clust_5="13000.00000" pt_clust_6="13000.00000" pt_clust_7="13000.00000" pt_clust_8="13000.00000" pt_clust_9="65.04239"></scales>
<clustering>
<clus scale="   65.042">  2  9  1 -1</clus>
<clus scale="   75.986">  5  6 -1 -1</clus>
<clus scale="   90.664">  7  8 -1 -1</clus>
<clus scale="  101.555">  1  5  2 -1</clus>
<clus scale="   65.042">  2  5  1 -1</clus>
</clustering>
</event>
<event>
 9    2  0.9254368E-005  0.1368682E+03  0.7546771E-02  0.1231037E+00
         21   -1    0    0  501  502  0.00000000000E+00  0.00000000000E+00  0.41389883076E+03  0.41389883076E+03  0.00000000000E+00 0. -1.
          4   -1    0    0  502    0 -0.00000000000E+00 -0.00000000000E+00 -0.25681545945E+03  0.25681545945E+03  0.00000000000E+00 0. -1.
         24    2    1    2    0    0  0.64828234295E+02  0.84293159314E+01  0.32849904385E+03  0.34440184850E+03  0.80170182207E+02 0.  0.
         23    2    1    2    0    0  0.43181103245E+02  0.32337444470E+02 -0.18174366827E+03  0.21040466265E+03  0.91263591418E+02 0.  0.
        -13    1    3    3    0    0  0.54826841598E+02  0.11563651126E+02  0.92344591312E+02  0.10801492550E+03  0.00000000000E+00 0.  1.
         14    1    3    3    0    0  0.10001392697E+02 -0.31343351950E+01  0.23615445254E+03  0.23638692300E+03  0.00000000000E+00 0. -1.
        -11    1    4    4    0    0 -0.16472964402E+02 -0.18212788423E+02 -0.68669410598E+02  0.72928404413E+02  0.00000000000E+00 0.  1.
         11    1    4    4    0    0  0.59654067646E+02  0.50550232893E+02 -0.11307425767E+03  0.13747625824E+03  0.00000000000E+00 0. -1.
          3    1    1    2  501    0 -0.10800933754E+03 -0.40766760402E+02  0.10327995731E+02  0.11590777905E+03  0.00000000000E+00 0. -1.
<scales pt_clust_5="13000.00000" pt_clust_6="13000.00000" pt_clust_7="13000.00000" pt_clust_8="13000.00000" pt_clust_9="101.99933"></scales>
<clustering>
<clus scale="   80.170">  5  6 -1 -1</clus>
<clus scale="   91.264">  7  8 -1 -1</clus>
<clus scale="  103.446">  2  5  1 -1</clus>
<clus scale="  101.999">  1  9  2 -1</clus>
<clus scale="  101.999">  1  5  2 -1</clus>
</clustering>
</event>
<event>
 9    2  0.9254368E-005  0.1640326E+03  0.7546771E-02  0.1200733E+00
         21   -1    0    0  501  502  0.00000000000E+00  0.00000000000E+00  0.25911469395E+02  0.25911469395E+02  0.00000000000E+00 0.  1.
          2   -1    0    0  502    0 -0.00000000000E+00 -0.00000000000E+00 -0.24938929274E+04  0.24938929274E+04  0.00000000000E+00 0. -1.
         23    2    1    2    0    0  0.20893491806E+02  0.65074046304E+02 -0.23559789651E+03  0.26175503194E+03  0.91313517110E+02 0.  0.
         24    2    1    2    0    0 -0.12218709706E+03  0.48694525597E+02 -0.16091598087E+04  0.16164797829E+04  0.79440261310E+02 0.  0.
        -11    1    4    4    0    0 -0.42646615362E+02 -0.76001635683E+01 -0.24161404047E+03  0.24546657784E+03  0.00000000000E+00 0.  1.
         12    1    4    4    0    0 -0.79540481703E+02  0.56294689165E+02 -0.13675457682E+04  0.13710132051E+04  0.00000000000E+00 0. -1.
        -13    1    3    3    0    0  0.14567240848E+02  0.88237375720E+02 -0.17388194754E+03  0.19553253095E+03  0.00000000000E+00 0.  1.
         13    1    3    3    0    0  0.63262509585E+01 -0.23163329415E+02 -0.61715948969E+02  0.66222500994E+02  0.00000000000E+00 0. -1.
          1    1    1    2  501    0  0.10129360526E+03 -0.11376857190E+03 -0.62322375280E+03  0.64156958195E+03  0.00000000000E+00 0. -1.
<scales pt_clust_5="13000.00000" pt_clust_6="13000.00000" pt_clust_7="13000.00000" pt_clust_8="13000.00000" pt_clust_9="143.51289"></scales>
<clustering>
<clus scale="   79.440">  5  6 -1 -1</clus>
<clus scale="   91.314">  7  8 -1 -1</clus>
<clus scale="  114.058">  2  7  1 -1</clus>
<clus scale="  143.513">  1  9  2 -1</clus>
<clus scale="  143.513">  1  5  2 -1</clus>
</clustering>
</event>
<event>
 9    2  0.9254368E-005  0.1163992E+03  0.7546771E-02  0.1253107E+00
         21   -1    0    0  501  502  0.00000000000E+00  0.00000000000E+00  0.29940801034E+02  0.29940801034E+02  0.00000000000E+00 0. -1.
          2   -1    0    0  502    0 -0.00000000000E+00 -0.00000000000E+00 -0.85214983497E+03  0.85214983497E+03  0.00000000000E+00 0. -1.
         24    2    1    2    0    0 -0.80996096734E+02 -0.43487875100E+01 -0.54852728820E+03  0.56008704199E+03  0.78968532149E+02 0.  0.
         23    2    1    2    0    0  0.52202681462E+02  0.36510811468E+02 -0.24840286673E+03  0.27197881743E+03  0.90610891322E+02 0.  0.
        -11    1    3    3    0    0 -0.73656840216E+01  0.19394309376E+02 -0.34399350148E+02  0.40170982411E+02  0.00000000000E+00 0.  1.
         12    1    3    3    0    0 -0.73630412712E+02 -0.23743096886E+02 -0.51412793805E+03  0.51991605958E+03  0.00000000000E+00 0. -1.
        -11    1    4    4    0    0  0.32527196973E+02  0.57142963731E+02 -0.92486153784E+02  0.11347698220E+03  0.00000000000E+00 0. -1.
         11    1    4    4    0    0  0.19675484489E+02 -0.20632152263E+02 -0.15591671295E+03  0.15850183523E+03  0.00000000000E+00 0.  1.
          1    1    1    2  501    0  0.28793415273E+02 -0.32162023958E+02 -0.25278879011E+02  0.50024776583E+02  0.00000000000E+00 0. -1.
<scales pt_clust_5="13000.00000" pt_clust_6="13000.00000" pt_clust_7="13000.00000" pt_clust_8="13000.00000" pt_clust_9="43.16777"></scales>
<clustering>
<clus scale="   43.168">  1  9  2 -1</clus>
<clus scale="   78.969">  5  6 -1 -1</clus>
<clus scale="   90.611">  7  8 -1 -1</clus>
<clus scale="  107.585">  2  5  1 -1</clus>
<clus scale="   43.168">  1  5  2 -1</clus>
</clustering>
</event>
<event>
 9    2  0.9254368E-005  0.3061506E+03  0.7546771E-02  0.1125917E+00
         21   -1    0    0  501  502  0.00000000000E+00  0.00000000000E+00  0.31000990044E+03  0.31000990044E+03  0.00000000000E+00 0. -1.
          2   -1    0    0  502    0 -0.00000000000E+00 -0.00000000000E+00 -0.10127149417E+04  0.10127149417E+04  0.00000000000E+00 0. -1.
         24    2    1    2    0    0  0.60924246278E+01  0.58223318628E+02 -0.19981631941E+02  0.10127139750E+03  0.80184523857E+02 0.  0.
         23    2    1    2    0    0  0.23854629027E+03  0.10850930507E+03 -0.84117887426E+03  0.88566183816E+03  0.90201946680E+02 0.  0.
        -11    1    3    3    0    0  0.13304741684E+01  0.68536375877E+02  0.99398885756E+01  0.69266199295E+02  0.00000000000E+00 0.  1.
         12    1    3    3    0    0  0.47619504594E+01 -0.10313057249E+02 -0.29921520517E+02  0.32005198203E+02  0.00000000000E+00 0. -1.
        -13    1    4    4    0    0  0.40052568643E+02  0.33454150284E+02 -0.29736912171E+03  0.30191353559E+03  0.00000000000E+00 0.  1.
         13    1    4    4    0    0  0.19849372163E+03  0.75055154786E+02 -0.54380975254E+03  0.58374830256E+03  0.00000000000E+00 0. -1.
          1    1    1    2  501    0 -0.24463871490E+03 -0.16673262370E+03  0.15845546493E+03  0.33579160650E+03  0.00000000000E+00 0. -1.
<scales pt_clust_5="13000.00000" pt_clust_6="13000.00000" pt_clust_7="13000.00000" pt_clust_8="13000.00000" pt_clust_9="292.56080"></scales>
<clustering>
<clus scale="   80.185">  5  6 -1 -1</clus>
<clus scale="   90.202">  7  8 -1 -1</clus>
<clus scale="   99.281">  2  5  1 -1</clus>
<clus scale="  292.561">  1  9  2 -1</clus>
<clus scale="  292.561">  1  5  2 -1</clus>
</clustering>
</event>
<event>
 9    2  0.9254368E-005  0.1303824E+03  0.7546771E-02  0.1238926E+00
          2   -1    0    0  502    0 -0.00000000000E+00  0.00000000000E+00  0.41347996386E+03  0.41347996386E+03  0.00000000000E+00 0. -1.
         21   -1    0    0  501  502  0.00000000000E+00 -0.00000000000E+00 -0.13496064277E+03  0.13496064277E+03  0.00000000000E+00 0. -1.
         24    2    1    2    0    0 -0.61281638972E+02  0.53205736125E+01  0.29375187770E+03  0.31089477730E+03  0.81127363560E+02 0.  0.
         23    2    1    2    0    0  0.46363698834E+00  0.86116341533E+02  0.15899209611E+02  0.12340238587E+03  0.86943227078E+02 0.  0.
        -13    1    3    3    0    0 -0.36243055811E+02 -0.13232811329E+01  0.33546946647E+02  0.49403520085E+02  0.00000000000E+00 0.  1.
         14    1    3    3    0    0 -0.25038583161E+02  0.66438547454E+01  0.26020493105E+03  0.26149125721E+03  0.00000000000E+00 0. -1.
        -13    1    4    4    0    0  0.33006346050E+02  0.76879010816E+02  0.26814233458E+02  0.87856725978E+02  0.00000000000E+00 0.  1.
         13    1    4    4    0    0 -0.32542709061E+02  0.92373307168E+01 -0.10915023847E+02  0.35545659895E+02  0.00000000000E+00 0. -1.
          1    1    1    2  501    0  0.60818001984E+02 -0.91436915146E+02 -0.31131766227E+02  0.11414344346E+03  0.00000000000E+00 0. -1.
<scales pt_clust_5="13000.00000" pt_clust_6="13000.00000" pt_clust_7="13000.00000" pt_clust_8="13000.00000" pt_clust_9="97.16193"></scales>
<clustering>
<clus scale="   81.127">  5  6 -1 -1</clus>
<clus scale="   86.943">  7  8 -1 -1</clus>
<clus scale="  101.811">  1  5  2 -1</clus>
<clus scale="   97.162">  2  9  1 -1</clus>
<clus scale="   97.162">  2  5  1 -1</clus>
</clustering>
</event>
<event>
 9    2  0.9254368E-005  0.2198787E+03  0.7546771E-02  0.1152334E+00
          2   -1    0    0  502    0 -0.00000000000E+00  0.00000000000E+00  0.31713142006E+03  0.31713142006E+03  0.00000000000E+00 0. -1.
         21   -1    0    0  501  502  0.00000000000E+00 -0.00000000000E+00 -0.56811362071E+03  0.56811362071E+03  0.00000000000E+00 0. -1.
         23    2    1    2    0    0  0.66146159786E+02 -0.84128590023E+02  0.56167011951E+01  0.14166411059E+03  0.92651167192E+02 0.  0.
         24    2    1    2    0    0 -0.85994436057E+02 -0.12250997889E+03  0.18561071323E+03  0.25507013615E+03  0.90585316303E+02 0.  0.
        -13    1    4    4    0    0 -0.42184137831E+02 -0.35305348363E+02  0.12600565141E+02  0.56433530365E+02  0.00000000000E+00 0.  1.
         14    1    4    4    0    0 -0.43810298226E+02 -0.87204630522E+02  0.17301014809E+03  0.19863660578E+03  0.00000000000E+00 0. -1.
        -13    1    3    3    0    0  0.63438270516E+02 -0.22339475611E+02 -0.26117112426E+02  0.72149635467E+02  0.00000000000E+00 0.  1.
         13    1    3    3    0    0  0.27078892706E+01 -0.61789114412E+02  0.31733813621E+02  0.69514475119E+02  0.00000000000E+00 0. -1.
          1    1    1    2  501    0  0.19848276271E+02  0.20663856891E+03 -0.44220961508E+03  0.48851079404E+03  0.00000000000E+00 0. -1.
<scales pt_clust_5="13000.00000" pt_clust_6="13000.00000" pt_clust_7="13000.00000" pt_clust_8="13000.00000" pt_clust_9="200.35202"></scales>
<clustering>
<clus scale="   90.585">  5  6 -1 -1</clus>
<clus scale="   92.651">  7  8 -1 -1</clus>
<clus scale="  141.553">  1  7  2 -1</clus>
<clus scale="  200.352">  2  9  1 -1</clus>
<clus scale="  200.352">  2  5  1 -1</clus>
</clustering>
</event>
<event>
 9    2  0.9254368E-005  0.9247473E+02  0.7546771E-02  0.1301743E+00
          2   -1    0    0  502    0 -0.00000000000E+00  0.00000000000E+00  0.23685246087E+03  0.23685246087E+03  0.00000000000E+00 0. -1.
         21   -1    0    0  501  502  0.00000000000E+00 -0.00000000000E+00 -0.15239474784E+03  0.15239474784E+03  0.00000000000E+00 0. -1.
         24    2    1    2    0    0  0.85254466972E+00 -0.11271486204E+02  0.19324783699E+03  0.21083596202E+03  0.83542223721E+02 0.  0.
         23    2    1    2    0    0 -0.15289541639E+02  0.44925456707E+02 -0.92017536945E+02  0.13813301079E+03  0.91440881560E+02 0.  0.
        -11    1    3    3    0    0  0.40308287139E+02 -0.89751939692E+00  0.67378932753E+02  0.78520596865E+02  0.00000000000E+00 0.  1.
         12    1    3    3    0    0 -0.39455742469E+02 -0.10373966807E+02  0.12586890424E+03  0.13231536515E+03  0.00000000000E+00 0. -1.
        -13    1    4    4    0    0 -0.13397429840E+01 -0.20467440605E+02 -0.61129901832E+02  0.64479267475E+02  0.00000000000E+00 0.  1.
         13    1    4    4    0    0 -0.13949798655E+02  0.65392897312E+02 -0.30887635113E+02  0.73653743314E+02  0.00000000000E+00 0. -1.
          1    1    1    2  501    0  0.14436996969E+02 -0.33653970503E+02 -0.16772587011E+02  0.40278235899E+02  0.00000000000E+00 0. -1.
<scales pt_clust_5="13000.00000" pt_clust_6="13000.00000" pt_clust_7="13000.00000" pt_clust_8="13000.00000" pt_clust_9="36.61989"></scales>
<clustering>
<clus scale="   36.620">  2  9  1 -1</clus>
<clus scale="   83.542">  5  6 -1 -1</clus>
<clus scale="   84.673">  1  5  2 -1</clus>
<clus scale="   91.441">  7  8 -1 -1</clus>
<clus scale="   36.620">  2  5  1 -1</clus>
</clustering>
</event>
<event>
 9    2  0.9254368E-005  0.2221500E+03  0.7546771E-02  0.1133083E+00
         21   -1    0    0  501  502  0.00000000000E+00  0.00000000000E+00  0.63263634607E+02  0.63263634607E+02  0.00000000000E+00 0. -1.
          2   -1    0    0  502    0 -0.00000000000E+00 -0.00000000000E+00 -0.11274563003E+04  0.11274563003E+04  0.00000000000E+00 0. -1.
         24    2    1    2    0    0  0.21592091009E+03 -0.76991436256E+02 -0.50179978699E+03  0.55752583958E+03  0.80514066478E+02 0.  0.
         23    2    1    2    0    0 -0.16740063983E+03  0.39691403749E+02 -0.26124794318E+03  0.32589329604E+03  0.91419750835E+02 0.  0.
        -13    1    3    3    0    0  0.12241985125E+03 -0.29024849681E+02 -0.35767586512E+03  0.37915839220E+03  0.00000000000E+00 0.  1.
         14    1    3    3    0    0  0.93501058834E+02 -0.47966586575E+02 -0.14412392187E+03  0.17836744738E+03  0.00000000000E+00 0. -1.
        -11    1    4    4    0    0  0.97479678909E+00  0.23010208333E+02 -0.16409751438E+02  0.28278964949E+02  0.00000000000E+00 0.  1.
         11    1    4    4    0    0 -0.16837543662E+03  0.16681195416E+02 -0.24483819174E+03  0.29761433109E+03  0.00000000000E+00 0. -1.
          1    1    1    2  501    0 -0.48520270254E+02  0.37300032507E+02 -0.30114493548E+03  0.30730079924E+03  0.00000000000E+00 0. -1.
<scales pt_clust_5="13000.00000" pt_clust_6="13000.00000" pt_clust_7="13000.00000" pt_clust_8="13000.00000" pt_clust_9="61.20059"></scales>
<clustering>
<clus scale="   61.201">  1  9  2 -1</clus>
<clus scale="   80.514">  5  6 -1 -1</clus>
<clus scale="   91.420">  7  8 -1 -1</clus>
<clus scale="  217.889">  2  5  1 -1</clus>
<clus scale="   61.201">  1  5  2 -1</clus>
</clustering>
</event>
<event>
 9    2  0.9254368E-005  0.1217200E+03  0.7546771E-02  0.1250722E+00
          4   -1    0    0  502    0 -0.00000000000E+00  0.00000000000E+00  0.65755477354E+03  0.65755477354E+03  0.00000000000E+00 0. -1.
         21   -1    0    0  501  502  0.00000000000E+00 -0.00000000000E+00 -0.28799087690E+02  0.28799087690E+02  0.00000000000E+00 0.  1.
         23    2    1    2    0    0 -0.44975676001E+02  0.61909539397E+01  0.32695773812E+03  0.34711624089E+03  0.10736471874E+03 0.  0.
         24    2    1    2    0    0  0.68419125350E+02  0.50117650103E+00  0.29592135738E+03  0.31415945770E+03  0.80282546161E+02 0.  0.
        -11    1    4    4    0    0  0.12261507853E+02  0.36083411204E+02  0.88866322586E+02  0.96693228454E+02  0.00000000000E+00 0.  1.
         12    1    4    4    0    0  0.56157617498E+02 -0.35582234703E+02  0.20705503480E+03  0.21746622925E+03  0.00000000000E+00 0. -1.
        -13    1    3    3    0    0 -0.52686238437E+02 -0.38920817168E+02  0.13891000441E+03  0.15357948774E+03  0.00000000000E+00 0.  1.
         13    1    3    3    0    0  0.77105624360E+01  0.45111771108E+02  0.18804773371E+03  0.19353675314E+03  0.00000000000E+00 0. -1.
          3    1    1    2  501    0 -0.23443449349E+02 -0.66921304408E+01  0.58765903505E+01  0.25078162640E+02  0.00000000000E+00 0. -1.
<scales pt_clust_5="13000.00000" pt_clust_6="13000.00000" pt_clust_7="13000.00000" pt_clust_8="13000.00000" pt_clust_9="24.37991"></scales>
<clustering>
<clus scale="   24.380">  2  9  1 -1</clus>
<clus scale="   80.283">  5  6 -1 -1</clus>
<clus scale="   98.660">  2  5  1 -1</clus>
<clus scale="  107.365">  7  8 -1 -1</clus>
<clus scale="   24.380">  2  5  1 -1</clus>
</clustering>
</event>
<event>
 9    2  0.9254368E-005  0.1314468E+03  0.7546771E-02  0.1248093E+00
         -1   -1    0    0    0  501 -0.00000000000E+00  0.00000000000E+00  0.69676724294E+03  0.69676724294E+03  0.00000000000E+00 0.  1.
         21   -1    0    0  501  502  0.00000000000E+00 -0.00000000000E+00 -0.38408240990E+02  0.38408240990E+02  0.00000000000E+00 0.  1.
         24    2    1    2    0    0  0.13537224793E+02  0.11332225767E+02  0.27459167787E+03  0.28673700361E+03  0.80658811584E+02 0.  0.
         23    2    1    2    0    0  0.92020899335E+02 -0.18446468901E+01  0.20564070629E+03  0.24116662095E+03  0.86034820510E+02 0.  0.
        -11    1    3    3    0    0  0.47607317976E+02  0.83200311350E+01  0.15657962670E+03  0.16386842020E+03  0.00000000000E+00 0.  1.
         12    1    3    3    0    0 -0.34070093182E+02  0.30121946320E+01  0.11801205117E+03  0.12286858341E+03  0.00000000000E+00 0. -1.
        -13    1    4    4    0    0  0.73183779492E+02 -0.24777908919E+02  0.76757554559E+02  0.10891066308E+03  0.00000000000E+00 0.  1.
         13    1    4    4    0    0  0.18837119843E+02  0.22933262029E+02  0.12888315173E+03  0.13225595787E+03  0.00000000000E+00 0. -1.
         -2    1    1    2    0  502 -0.10555812413E+03 -0.94875788770E+01  0.17812661779E+03  0.20727185937E+03  0.00000000000E+00 0.  1.
<scales pt_clust_5="13000.00000" pt_clust_6="13000.00000" pt_clust_7="13000.00000" pt_clust_8="13000.00000" pt_clust_9="99.37949"></scales>
<clustering>
<clus scale="   80.659">  5  6 -1 -1</clus>
<clus scale="   82.568">  1  5  2 -1</clus>
<clus scale="   86.035">  7  8 -1 -1</clus>
<clus scale="   99.379">  2  9  1 -1</clus>
<clus scale="   99.379">  2  5  1 -1</clus>
</clustering>
</event>
<event>
 9    2  0.9254368E-005  0.1681493E+03  0.7546771E-02  0.1181636E+00
          2   -1    0    0  502    0 -0.00000000000E+00  0.00000000000E+00  0.39131267297E+03  0.39131267297E+03  0.00000000000E+00 0. -1.
         21   -1    0    0  501  502  0.00000000000E+00 -0.00000000000E+00 -0.12978201678E+03  0.12978201678E+03  0.00000000000E+00 0. -1.
         23    2    1    2    0    0 -0.88197758894E+02 -0.27850693242E+02  0.54271605092E+02  0.14220476602E+03  0.93393161265E+02 0.  0.
         24    2    1    2    0    0  0.18838759655E+03  0.48824618862E+02  0.16748163598E+03  0.26907120092E+03  0.80470384797E+02 0.  0.
        -11    1    4    4    0    0  0.61226984793E+02  0.50652860939E+02  0.39848441585E+02  0.88895187074E+02  0.00000000000E+00 0.  1.
         12    1    4    4    0    0  0.12716061176E+03 -0.18282420765E+01  0.12763319440E+03  0.18017601384E+03  0.00000000000E+00 0. -1.
        -11    1    3    3    0    0 -0.43566988155E+02  0.20470947263E+02 -0.11171858102E+02  0.49416116320E+02  0.00000000000E+00 0.  1.
         11    1    3    3    0    0 -0.44630770740E+02 -0.48321640506E+02  0.65443463194E+02  0.92788649699E+02  0.00000000000E+00 0. -1.
          1    1    1    2  501    0 -0.10018983766E+03 -0.20973925620E+02  0.39777415121E+02  0.10981872281E+03  0.00000000000E+00 0. -1.
<scales pt_clust_5="13000.00000" pt_clust_6="13000.00000" pt_clust_7="13000.00000" pt_clust_8="13000.00000" pt_clust_9="102.36166"></scales>
<clustering>
<clus scale="   80.470">  5  6 -1 -1</clus>
<clus scale="   93.393">  7  8 -1 -1</clus>
<clus scale="  102.362">  2  9  1 -1</clus>
<clus scale="  161.330">  2  5  1 -1</clus>
<clus scale="  102.362">  2  5  1 -1</clus>
</clustering>
</event>
<event>
 9    2  0.9254368E-005  0.1022990E+03  0.7546771E-02  0.1281431E+00
         21   -1    0    0  501  502  0.00000000000E+00  0.00000000000E+00  0.14882484901E+03  0.14882484901E+03  0.00000000000E+00 0. -1.
          2   -1    0    0  502    0 -0.00000000000E+00 -0.00000000000E+00 -0.56286108225E+03  0.56286108225E+03  0.00000000000E+00 0. -1.
         24    2    1    2    0    0 -0.51134959230E+01  0.47814213589E+02 -0.47257025751E+03  0.48097407479E+03  0.75505400304E+02 0.  0.
         23    2    1    2    0    0 -0.10185124539E+02 -0.11205090245E+03  0.91008386160E+00  0.14307100702E+03  0.88370488820E+02 0.  0.
        -13    1    3    3    0    0  0.34296724693E+02  0.12902272581E+02 -0.21088644694E+03  0.21404632084E+03  0.00000000000E+00 0.  1.
         14    1    3    3    0    0 -0.39410220616E+02  0.34911941008E+02 -0.26168381058E+03  0.26692775396E+03  0.00000000000E+00 0. -1.
        -11    1    4    4    0    0  0.28689666868E+02 -0.58167057094E+02  0.28859434713E+02  0.70988523635E+02  0.00000000000E+00 0.  1.
         11    1    4    4    0    0 -0.38874791407E+02 -0.53883845358E+02 -0.27949350852E+02  0.72082483382E+02  0.00000000000E+00 0. -1.
          1    1    1    2  501    0  0.15298620462E+02  0.64236688862E+02  0.57623940412E+02  0.87640849452E+02  0.00000000000E+00 0. -1.
<scales pt_clust_5="13000.00000" pt_clust_6="13000.00000" pt_clust_7="13000.00000" pt_clust_8="13000.00000" pt_clust_9="66.03332"></scales>
<clustering>
<clus scale="   66.033">  1  9  2 -1</clus>
<clus scale="   75.505">  5  6 -1 -1</clus>
<clus scale="   88.370">  7  8 -1 -1</clus>
<clus scale="   91.416">  2  5  1 -1</clus>
<clus scale="   66.033">  1  5  2 -1</clus>
</clustering>
</event>
<event>
 9    2  0.9254368E-005  0.1018879E+03  0.7546771E-02  0.1278983E+00
         21   -1    0    0  501  502  0.00000000000E+00  0.00000000000E+00  0.23581879994E+03  0.23581879994E+03  0.00000000000E+00 0. -1.
         -3   -1    0    0    0  501 -0.00000000000E+00 -0.00000000000E+00 -0.11749520308E+03  0.11749520308E+03  0.00000000000E+00 0.  1.
         23    2    1    2    0    0  0.49996658661E+02 -0.37902528886E+01 -0.56980815552E+02  0.11773212808E+03  0.90000048591E+02 0.  0.
         24    2    1    2    0    0 -0.35409280915E+02  0.35542725310E+02  0.59849116822E+02  0.11495461280E+03  0.84353682326E+02 0.  0.
        -13    1    4    4    0    0  0.93268254333E+01  0.49631979137E+02  0.23959026925E+02  0.55895956893E+02  0.00000000000E+00 0.  1.
         14    1    4    4    0    0 -0.44736106348E+02 -0.14089253827E+02  0.35890089897E+02  0.59058655906E+02  0.00000000000E+00 0. -1.
        -13    1    3    3    0    0  0.59696548302E+02  0.16545331748E+02 -0.68559623035E+02  0.92400475066E+02  0.00000000000E+00 0.  1.
         13    1    3    3    0    0 -0.96998896408E+01 -0.20335584636E+02  0.11578807483E+02  0.25331653011E+02  0.00000000000E+00 0. -1.
         -4    1    1    2    0  502 -0.14587377746E+02 -0.31752472421E+02  0.11545529559E+03  0.12062726215E+03  0.00000000000E+00 0.  1.
<scales pt_clust_5="13000.00000" pt_clust_6="13000.00000" pt_clust_7="13000.00000" pt_clust_8="13000.00000" pt_clust_9="34.94297"></scales>
<clustering>
<clus scale="   34.943">  1  9  2 -1</clus>
<clus scale="   84.354">  5  6 -1 -1</clus>
<clus scale="   90.000">  7  8 -1 -1</clus>
<clus scale="   96.936">  1  5  2 -1</clus>
<clus scale="   34.943">  1  5  2 -1</clus>
</clustering>
</event>
<event>
 9    2  0.9254368E-005  0.1385374E+03  0.7546771E-02  0.1233103E+00
         21   -1    0    0  501  502  0.00000000000E+00  0.00000000000E+00  0.10025297258E+03  0.10025297258E+03  0.00000000000E+00 0.  1.
         -1   -1    0    0    0  501 -0.00000000000E+00 -0.00000000000E+00 -0.76493963030E+03  0.76493963030E+03  0.00000000000E+00 0.  1.
         23    2    1    2    0    0 -0.25875303590E+02 -0.15533027045E+02 -0.35043171970E+02  0.10181919206E+03  0.90710074990E+02 0.  0.
         24    2    1    2    0    0  0.78918505589E+02  0.10848564656E+03 -0.63653754034E+03  0.65612930262E+03  0.85605814413E+02 0.  0.
        -13    1    4    4    0    0  0.82782129861E+02  0.10866463425E+03 -0.63763908974E+03  0.65210773077E+03  0.00000000000E+00 0.  1.
         14    1    4    4    0    0 -0.38636242718E+01 -0.17898768574E+00  0.11015493997E+01  0.40215718550E+01  0.00000000000E+00 0. -1.
        -11    1    3    3    0    0 -0.57151262276E+02 -0.11862349319E+02 -0.54798467888E+01  0.58626025210E+02  0.00000000000E+00 0.  1.
         11    1    3    3    0    0  0.31275958686E+02 -0.36706777265E+01 -0.29563325181E+02  0.43193166849E+02  0.00000000000E+00 0. -1.
         -2    1    1    2    0  502 -0.53043201999E+02 -0.92952619514E+02  0.68940545916E+01  0.10724410819E+03  0.00000000000E+00 0.  1.
<scales pt_clust_5="13000.00000" pt_clust_6="13000.00000" pt_clust_7="13000.00000" pt_clust_8="13000.00000" pt_clust_9="108.92321"></scales>
<clustering>
<clus scale="   85.606">  5  6 -1 -1</clus>
<clus scale="   90.710">  7  8 -1 -1</clus>
<clus scale="   95.599">  2  7  1 -1</clus>
<clus scale="  108.923">  1  9  2 -1</clus>
<clus scale="  108.923">  1  5  2 -1</clus>
</clustering>
</event>
<event>
 9    2  0.9254368E-005  0.9246078E+02  0.7546771E-02  0.1304217E+00
         -3   -1    0    0    0  501 -0.00000000000E+00  0.00000000000E+00  0.21639761185E+03  0.21639761185E+03  0.00000000000E+00 0.  1.
         21   -1    0    0  501  502  0.00000000000E+00 -0.00000000000E+00 -0.11146721941E+03  0.11146721941E+03  0.00000000000E+00 0. -1.
         23    2    1    2    0    0  0.14683984244E+02 -0.13568507586E+01  0.17052121732E+03  0.19389739135E+03  0.91111208850E+02 0.  0.
         24    2    1    2    0    0 -0.19846185948E+02 -0.20286896435E+02 -0.25467564443E+02  0.88087420868E+02  0.79406344916E+02 0.  0.
        -13    1    4    4    0    0 -0.32044703665E+01 -0.39430539806E+02  0.13319310462E+02  0.41742545813E+02  0.00000000000E+00 0.  1.
         14    1    4    4    0    0 -0.16641715581E+02  0.19143643371E+02 -0.38786874905E+02  0.46344875055E+02  0.00000000000E+00 0. -1.
        -11    1    3    3    0    0 -0.37367674859E+02  0.34970325894E+01  0.49932400165E+02  0.62464525513E+02  0.00000000000E+00 0. -1.
         11    1    3    3    0    0  0.52051659103E+02 -0.48538833481E+01  0.12058881715E+03  0.13143286583E+03  0.00000000000E+00 0.  1.
         -4    1    1    2    0  502  0.51622017042E+01  0.21643747194E+02 -0.40123260437E+02  0.45880019040E+02  0.00000000000E+00 0.  1.
<scales pt_clust_5="13000.00000" pt_clust_6="13000.00000" pt_clust_7="13000.00000" pt_clust_8="13000.00000" pt_clust_9="22.25085"></scales>
<clustering>
<clus scale="   22.251">  2  9  1 -1</clus>
<clus scale="   79.406">  5  6 -1 -1</clus>
<clus scale="   80.951">  2  5  1 -1</clus>
<clus scale="   91.111">  7  8 -1 -1</clus>
<clus scale="   22.251">  2  5  1 -1</clus>
</clustering>
</event>
<event>
 9    2  0.9254368E-005  0.9177234E+02  0.7546771E-02  0.1305722E+00
          4   -1    0    0  502    0 -0.00000000000E+00  0.00000000000E+00  0.36611450901E+03  0.36611450901E+03  0.00000000000E+00 0. -1.
         21   -1    0    0  501  502  0.00000000000E+00 -0.00000000000E+00 -0.49143330395E+02  0.49143330395E+02  0.00000000000E+00 0. -1.
         24    2    1    2    0    0  0.10718858899E+02  0.23072464066E+02  0.23845599108E+03  0.25211314433E+03  0.77798106183E+02 0.  0.
         23    2    1    2    0    0  0.10291142787E+02 -0.12819750073E+02  0.97312288806E+02  0.13314687297E+03  0.89376476861E+02 0.  0.
        -13    1    3    3    0    0 -0.31557676456E+02 -0.31523495703E+01  0.81130105877E+02  0.87108658184E+02  0.00000000000E+00 0.  1.
         14    1    3    3    0    0  0.42276535354E+02  0.26224813636E+02  0.15732588521E+03  0.16500448614E+03  0.00000000000E+00 0. -1.
        -13    1    4    4    0    0 -0.36374717964E+02 -0.14694042553E+02  0.23291504447E+02  0.45623778591E+02  0.00000000000E+00 0.  1.
         13    1    4    4    0    0  0.46665860751E+02  0.18742924796E+01  0.74020784359E+02  0.87523094375E+02  0.00000000000E+00 0. -1.
          3    1    1    2  501    0 -0.21010001686E+02 -0.10252713993E+02 -0.18797101274E+02  0.29997822110E+02  0.00000000000E+00 0. -1.
<scales pt_clust_5="13000.00000" pt_clust_6="13000.00000" pt_clust_7="13000.00000" pt_clust_8="13000.00000" pt_clust_9="23.37816"></scales>
<clustering>
<clus scale="   23.378">  2  9  1 -1</clus>
<clus scale="   77.798">  5  6 -1 -1</clus>
<clus scale="   80.539">  1  5  2 -1</clus>
<clus scale="   89.376">  7  8 -1 -1</clus>
<clus scale="   23.378">  2  5  1 -1</clus>
</clustering>
</event>
<event>
 9    2  0.9254368E-005  0.8903804E+02  0.7546771E-02  0.1307465E+00
         21   -1    0    0  501  502  0.00000000000E+00  0.00000000000E+00  0.33219791048E+02  0.33219791048E+02  0.00000000000E+00 0. -1.
          2   -1    0    0  502    0 -0.00000000000E+00 -0.00000000000E+00 -0.61780145525E+03  0.61780145525E+03  0.00000000000E+00 0. -1.
         24    2    1    2    0    0  0.91240313220E+01  0.15899960806E+02 -0.32877337479E+03  0.33902403858E+03  0.80680295360E+02 0.  0.
         23    2    1    2    0    0 -0.17641390028E+02 -0.40111703856E+02 -0.26740027698E+03  0.28383467806E+03  0.84492892675E+02 0.  0.
        -13    1    3    3    0    0  0.23869596171E+02 -0.18956326334E+02 -0.57093829654E+02  0.64720980477E+02  0.00000000000E+00 0.  1.
         14    1    3    3    0    0 -0.14745564849E+02  0.34856287140E+02 -0.27167954514E+03  0.27430305810E+03  0.00000000000E+00 0. -1.
        -11    1    4    4    0    0  0.28664817451E+01  0.25859806745E+02 -0.78313766771E+02  0.82522678025E+02  0.00000000000E+00 0.  1.
         11    1    4    4    0    0 -0.20507871773E+02 -0.65971510601E+02 -0.18908651021E+03  0.20131200004E+03  0.00000000000E+00 0. -1.
          1    1    1    2  501    0  0.85173587057E+01  0.24211743050E+02  0.11591987573E+02  0.28162529658E+02  0.00000000000E+00 0. -1.
<scales pt_clust_5="13000.00000" pt_clust_6="13000.00000" pt_clust_7="13000.00000" pt_clust_8="13000.00000" pt_clust_9="25.66620"></scales>
<clustering>
<clus scale="   25.666">  1  9  2 -1</clus>
<clus scale="   80.680">  5  6 -1 -1</clus>
<clus scale="   84.493">  7  8 -1 -1</clus>
<clus scale="   85.429">  2  5  1 -1</clus>
<clus scale="   25.666">  1  5  2 -1</clus>
</clustering>
</event>
<event>
 9    2  0.9254368E-005  0.9449478E+02  0.7546771E-02  0.1296872E+00
         21   -1    0    0  501  502  0.00000000000E+00  0.00000000000E+00  0.32884645397E+03  0.32884645397E+03  0.00000000000E+00 0.  1.
         -1   -1    0    0    0  501 -0.00000000000E+00 -0.00000000000E+00 -0.24245520275E+03  0.24245520275E+03  0.00000000000E+00 0.  1.
         24    2    1    2    0    0  0.16029638062E+02 -0.21111968554E+02 -0.22187985563E+03  0.23838326689E+03  0.83025580919E+02 0.  0.
         23    2    1    2    0    0  0.41800299591E+00  0.22482904796E+00  0.17754887308E+03  0.19952011436E+03  0.91018945437E+02 0.  0.
        -13    1    3    3    0    0  0.17900208705E+02 -0.44734573203E+02 -0.71956264569E+02  0.86598519168E+02  0.00000000000E+00 0.  1.
         14    1    3    3    0    0 -0.18705706424E+01  0.23622604649E+02 -0.14992359106E+03  0.15178474773E+03  0.00000000000E+00 0. -1.
        -11    1    4    4    0    0 -0.41253022332E+02 -0.18561087562E+02  0.84289603572E+02  0.95661189065E+02  0.00000000000E+00 0.  1.
         11    1    4    4    0    0  0.41671025328E+02  0.18785916610E+02  0.93259269504E+02  0.10385892529E+03  0.00000000000E+00 0. -1.
         -2    1    1    2    0  502 -0.16447641058E+02  0.20887139506E+02  0.13072223378E+03  0.13339827547E+03  0.00000000000E+00 0.  1.
<scales pt_clust_5="13000.00000" pt_clust_6="13000.00000" pt_clust_7="13000.00000" pt_clust_8="13000.00000" pt_clust_9="26.58566"></scales>
<clustering>
<clus scale="   26.586">  1  9  2 -1</clus>
<clus scale="   83.026">  5  6 -1 -1</clus>
<clus scale="   86.822">  2  5  1 -1</clus>
<clus scale="   91.019">  7  8 -1 -1</clus>
<clus scale="   26.586">  1  5  2 -1</clus>
</clustering>
</event>
<event>
 9    2  0.1443833E-004  0.2876882E+03  0.7546771E-02  0.1091562E+00
         21   -1    0    0  501  502  0.00000000000E+00  0.00000000000E+00  0.56645535989E+02  0.56645535989E+02  0.00000000000E+00 0.  1.
         -1   -1    0    0    0  501 -0.00000000000E+00 -0.00000000000E+00 -0.11778905877E+04  0.11778905877E+04  0.00000000000E+00 0.  1.
         24    2    1    2    0    0  0.11711526366E+03  0.91725453301E+02 -0.35683228807E+03  0.39167082554E+03  0.62826825549E+02 0.  0.
         23    2    1    2    0    0  0.84886450573E+02  0.14761361722E+02 -0.23921527254E+03  0.27017293834E+03  0.91355693322E+02 0.  0.
        -11    1    3    3    0    0  0.11232446428E+03  0.67636890636E+02 -0.33101600032E+03  0.35603809729E+03  0.00000000000E+00 0.  1.
         12    1    3    3    0    0  0.47907993760E+01  0.24088562664E+02 -0.25816287746E+02  0.35632728255E+02  0.00000000000E+00 0. -1.
        -13    1    4    4    0    0  0.49740828959E+02 -0.20602938535E+02 -0.19889012114E+03  0.20604832304E+03  0.00000000000E+00 0.  1.
         13    1    4    4    0    0  0.35145621615E+02  0.35364300257E+02 -0.40325151406E+02  0.64124615299E+02  0.00000000000E+00 0. -1.
         -2    1    1    2    0  502 -0.20200171423E+03 -0.10648681502E+03 -0.52519749113E+03  0.57269235984E+03  0.00000000000E+00 0.  1.
<scales pt_clust_5="13000.00000" pt_clust_6="13000.00000" pt_clust_7="13000.00000" pt_clust_8="13000.00000" pt_clust_9="228.35102"></scales>
<clustering>
<clus scale="   62.827">  5  6 -1 -1</clus>
<clus scale="   91.356">  7  8 -1 -1</clus>
<clus scale="  101.840">  5  7 -1 -1</clus>
<clus scale="  228.351">  1  9  2 -1</clus>
<clus scale="  228.351">  1  5  2 -1</clus>
</clustering>
</event>
<event>
 9    2  0.9254368E-005  0.9824701E+02  0.7546771E-02  0.1286821E+00
          2   -1    0    0  502    0 -0.00000000000E+00  0.00000000000E+00  0.13231501582E+03  0.13231501582E+03  0.00000000000E+00 0. -1.
         21   -1    0    0  501  502  0.00000000000E+00 -0.00000000000E+00 -0.12137664120E+03  0.12137664120E+03  0.00000000000E+00 0.  1.
         23    2    1    2    0    0 -0.29351685533E+02  0.41236795352E+02  0.38509540843E+02  0.10999107041E+03  0.89738821582E+02 0.  0.
         24    2    1    2    0    0  0.18745325891E+02 -0.22707826078E+02  0.20140510643E+02  0.91429928716E+02  0.84182890709E+02 0.  0.
        -13    1    4    4    0    0  0.50365835655E+02 -0.25869868523E+02  0.70398351005E+01  0.57057223704E+02  0.00000000000E+00 0.  1.
         14    1    4    4    0    0 -0.31620509764E+02  0.31620424447E+01  0.13100675542E+02  0.34372705012E+02  0.00000000000E+00 0. -1.
        -11    1    3    3    0    0 -0.27293684800E+02 -0.17757338391E+00  0.58054142668E+02  0.64150294178E+02  0.00000000000E+00 0. -1.
         11    1    3    3    0    0 -0.20580007333E+01  0.41414368736E+02 -0.19544601825E+02  0.45840776230E+02  0.00000000000E+00 0.  1.
          1    1    1    2  501    0  0.10606359643E+02 -0.18528969274E+02 -0.47711676866E+02  0.52270657893E+02  0.00000000000E+00 0. -1.
<scales pt_clust_5="13000.00000" pt_clust_6="13000.00000" pt_clust_7="13000.00000" pt_clust_8="13000.00000" pt_clust_9="21.34988"></scales>
<clustering>
<clus scale="   21.350">  2  9  1 -1</clus>
<clus scale="   84.183">  5  6 -1 -1</clus>
<clus scale="   89.739">  7  8 -1 -1</clus>
<clus scale="   93.200">  2  5  1 -1</clus>
<clus scale="   21.350">  2  5  1 -1</clus>
</clustering>
</event>
<event>
 9    2  0.9254368E-005  0.1455270E+03  0.7546771E-02  0.1208034E+00
          2   -1    0    0  502    0 -0.00000000000E+00  0.00000000000E+00  0.39953139864E+03  0.39953139864E+03  0.00000000000E+00 0. -1.
         21   -1    0    0  501  502  0.00000000000E+00 -0.00000000000E+00 -0.10335042024E+03  0.10335042024E+03  0.00000000000E+00 0.  1.
         23    2    1    2    0    0 -0.77644803511E+02 -0.10160551952E+03  0.28054664847E+03  0.32145268102E+03  0.90956072136E+02 0.  0.
         24    2    1    2    0    0  0.18255232386E+02  0.74889807775E+02 -0.80306756845E+01  0.11214073405E+03  0.81051314997E+02 0.  0.
        -11    1    4    4    0    0 -0.15046665704E+02  0.69264527981E+02 -0.23931655712E+02  0.74811102989E+02  0.00000000000E+00 0.  1.
         12    1    4    4    0    0  0.33301898090E+02  0.56252797938E+01  0.15900980028E+02  0.37329631059E+02  0.00000000000E+00 0. -1.
        -11    1    3    3    0    0 -0.65807976788E+02 -0.24778532789E+02  0.80799246544E+02  0.10711294851E+03  0.00000000000E+00 0.  1.
         11    1    3    3    0    0 -0.11836826722E+02 -0.76826986735E+02  0.19974740193E+03  0.21433973251E+03  0.00000000000E+00 0. -1.
          1    1    1    2  501    0  0.59389571125E+02  0.26715711749E+02  0.23665005611E+02  0.69288403815E+02  0.00000000000E+00 0. -1.
<scales pt_clust_5="13000.00000" pt_clust_6="13000.00000" pt_clust_7="13000.00000" pt_clust_8="13000.00000" pt_clust_9="65.12181"></scales>
<clustering>
<clus scale="   65.122">  2  9  1 -1</clus>
<clus scale="   81.051">  5  6 -1 -1</clus>
<clus scale="   90.956">  7  8 -1 -1</clus>
<clus scale="  139.551">  2  5  1 -1</clus>
<clus scale="   65.122">  2  5  1 -1</clus>
</clustering>
</event>
<event>
 9    2  0.9254368E-005  0.9930573E+02  0.7546771E-02  0.1286280E+00
          4   -1    0    0  502    0 -0.00000000000E+00  0.00000000000E+00  0.66724349619E+03  0.66724349619E+03  0.00000000000E+00 0. -1.
         21   -1    0    0  501  502  0.00000000000E+00 -0.00000000000E+00 -0.20860028371E+02  0.20860028371E+02  0.00000000000E+00 0.  1.
         23    2    1    2    0    0  0.38597935358E+02 -0.30063660650E+02  0.43437013130E+03  0.44642883479E+03  0.90706500659E+02 0.  0.
         24    2    1    2    0    0 -0.25914595226E+02  0.40104357325E+01  0.14232559975E+03  0.16620271946E+03  0.81725869669E+02 0.  0.
        -13    1    4    4    0    0 -0.26243596820E+02 -0.36698339609E+02  0.74086481096E+02  0.86742729871E+02  0.00000000000E+00 0.  1.
         14    1    4    4    0    0  0.32900159469E+00  0.40708775342E+02  0.68239118652E+02  0.79459989594E+02  0.00000000000E+00 0. -1.
        -13    1    3    3    0    0 -0.20405908189E+02 -0.35501554700E+02  0.23104586161E+03  0.23464643965E+03  0.00000000000E+00 0.  1.
         13    1    3    3    0    0  0.59003843547E+02  0.54378940501E+01  0.20332426969E+03  0.21178239514E+03  0.00000000000E+00 0. -1.
          3    1    1    2  501    0 -0.12683340132E+02  0.26053224918E+02  0.69687736764E+02  0.75471970299E+02  0.00000000000E+00 0. -1.
<scales pt_clust_5="13000.00000" pt_clust_6="13000.00000" pt_clust_7="13000.00000" pt_clust_8="13000.00000" pt_clust_9="28.97650"></scales>
<clustering>
<clus scale="   28.977">  2  9  1 -1</clus>
<clus scale="   81.726">  5  6 -1 -1</clus>
<clus scale="   90.707">  7  8 -1 -1</clus>
<clus scale="   91.176">  2  5  1 -1</clus>
<clus scale="   28.977">  2  5  1 -1</clus>
</clustering>
</event>
<event>
 9    2  0.9254368E-005  0.1795760E+03  0.7546771E-02  0.1170581E+00
         -1   -1    0    0    0  501 -0.00000000000E+00  0.00000000000E+00  0.48734224240E+03  0.48734224240E+03  0.00000000000E+00 0.  1.
         21   -1    0    0  501  502  0.00000000000E+00 -0.00000000000E+00 -0.17113006857E+03  0.17113006857E+03  0.00000000000E+00 0. -1.
         23    2    1    2    0    0 -0.14491516029E+03 -0.40348657094E+00  0.36148312503E+03  0.40178685382E+03  0.98803136279E+02 0.  0.
         24    2    1    2    0    0  0.17742101847E+03 -0.40738120191E+02 -0.25249876009E+02  0.20055965137E+03  0.80304453736E+02 0.  0.
        -13    1    4    4    0    0  0.12757336946E+02 -0.24070435329E+02  0.13758953155E+02  0.30519572323E+02  0.00000000000E+00 0.  1.
         14    1    4    4    0    0  0.16466368152E+03 -0.16667684862E+02 -0.39008829163E+02  0.17004007905E+03  0.00000000000E+00 0. -1.
        -13    1    3    3    0    0 -0.22234561349E+02 -0.39098644449E+02  0.12046450999E+03  0.12858762726E+03  0.00000000000E+00 0.  1.
         13    1    3    3    0    0 -0.12268059894E+03  0.38695157878E+02  0.24101861504E+03  0.27319922656E+03  0.00000000000E+00 0. -1.
         -2    1    1    2    0  502 -0.32505858173E+02  0.41141606762E+02 -0.20021075193E+02  0.56125805779E+02  0.00000000000E+00 0.  1.
<scales pt_clust_5="13000.00000" pt_clust_6="13000.00000" pt_clust_7="13000.00000" pt_clust_8="13000.00000" pt_clust_9="52.43341"></scales>
<clustering>
<clus scale="   52.433">  2  9  1 -1</clus>
<clus scale="   80.304">  5  6 -1 -1</clus>
<clus scale="   98.803">  7  8 -1 -1</clus>
<clus scale="  170.101">  2  5  1 -1</clus>
<clus scale="   52.433">  2  5  1 -1</clus>
</clustering>
</event>
<event>
 9    2  0.9254368E-005  0.1236519E+03  0.7546771E-02  0.1240453E+00
         21   -1    0    0  501  502  0.00000000000E+00  0.00000000000E+00  0.10401208753E+03  0.10401208753E+03  0.00000000000E+00 0. -1.
         -1   -1    0    0    0  501 -0.00000000000E+00 -0.00000000000E+00 -0.31141782910E+03  0.31141782910E+03  0.00000000000E+00 0.  1.
         23    2    1    2    0    0 -0.45238554041E+02  0.39872132004E+02 -0.12584272731E+03  0.16948186958E+03  0.96184190050E+02 0.  0.
         24    2    1    2    0    0  0.90734239838E+02 -0.92753622513E+02 -0.28055750915E+02  0.15803140077E+03  0.85737166391E+02 0.  0.
        -11    1    4    4    0    0  0.40994715799E+02 -0.82144327199E+02 -0.47764530921E+02  0.10348771728E+03  0.00000000000E+00 0.  1.
         12    1    4    4    0    0  0.49739524039E+02 -0.10609295314E+02  0.19708780005E+02  0.54543683484E+02  0.00000000000E+00 0. -1.
        -13    1    3    3    0    0  0.19870417020E+02  0.14701364542E+02  0.95848500133E+00  0.24736254475E+02  0.00000000000E+00 0.  1.
         13    1    3    3    0    0 -0.65108971061E+02  0.25170767463E+02 -0.12680121231E+03  0.14474561510E+03  0.00000000000E+00 0. -1.
         -2    1    1    2    0  502 -0.45495685797E+02  0.52881490508E+02 -0.53507263344E+02  0.87916646291E+02  0.00000000000E+00 0.  1.
<scales pt_clust_5="13000.00000" pt_clust_6="13000.00000" pt_clust_7="13000.00000" pt_clust_8="13000.00000" pt_clust_9="69.75897"></scales>
<clustering>
<clus scale="   69.759">  1  9  2 -1</clus>
<clus scale="   85.737">  5  6 -1 -1</clus>
<clus scale="   96.184">  7  8 -1 -1</clus>
<clus scale="  115.712">  1  5  2 -1</clus>
<clus scale="   69.759">  1  5  2 -1</clus>
</clustering>
</event>
<event>
 9    2  0.9254368E-005  0.9557815E+02  0.7546771E-02  0.1296687E+00
         21   -1    0    0  501  502  0.00000000000E+00  0.00000000000E+00  0.22042113965E+03  0.22042113965E+03  0.00000000000E+00 0.  1.
          2   -1    0    0  502    0 -0.00000000000E+00 -0.00000000000E+00 -0.92630027732E+02  0.92630027732E+02  0.00000000000E+00 0. -1.
         23    2    1    2    0    0 -0.20462681876E+01 -0.19266362238E+02 -0.35600747549E+02  0.10027638226E+03  0.91720007012E+02 0.  0.
         24    2    1    2    0    0  0.11127683216E+02  0.49862865326E+02  0.81819195496E+02  0.12518073505E+03  0.79785368358E+02 0.  0.
        -11    1    4    4    0    0  0.11923631896E+02  0.71796030464E+02  0.63759618694E+02  0.96758110585E+02  0.00000000000E+00 0.  1.
         12    1    4    4    0    0 -0.79594868019E+00 -0.21933165138E+02  0.18059576802E+02  0.28422624466E+02  0.00000000000E+00 0. -1.
        -13    1    3    3    0    0 -0.13046535267E+02  0.35289114303E+02 -0.94888755400E+01  0.38801706532E+02  0.00000000000E+00 0.  1.
         13    1    3    3    0    0  0.11000267079E+02 -0.54555476541E+02 -0.26111872009E+02  0.61474675731E+02  0.00000000000E+00 0. -1.
          1    1    1    2  501    0 -0.90814150287E+01 -0.30596503088E+02  0.81572663966E+02  0.87594050064E+02  0.00000000000E+00 0. -1.
<scales pt_clust_5="13000.00000" pt_clust_6="13000.00000" pt_clust_7="13000.00000" pt_clust_8="13000.00000" pt_clust_9="31.91580"></scales>
<clustering>
<clus scale="   31.916">  1  9  2 -1</clus>
<clus scale="   79.785">  5  6 -1 -1</clus>
<clus scale="   84.192">  1  5  2 -1</clus>
<clus scale="   91.720">  7  8 -1 -1</clus>
<clus scale="   31.916">  1  5  2 -1</clus>
</clustering>
</event>
<event>
 9    2  0.9254368E-005  0.9607178E+02  0.7546771E-02  0.1294902E+00
         21   -1    0    0  501  502  0.00000000000E+00  0.00000000000E+00  0.67696598377E+02  0.67696598377E+02  0.00000000000E+00 0.  1.
         -1   -1    0    0    0  501 -0.00000000000E+00 -0.00000000000E+00 -0.32612581767E+03  0.32612581767E+03  0.00000000000E+00 0.  1.
         24    2    1    2    0    0  0.23254456039E+02 -0.79910674428E+01 -0.17936254905E+03  0.19833208133E+03  0.80994219540E+02 0.  0.
         23    2    1    2    0    0 -0.39946131074E+02  0.29796270481E+02  0.73597490350E+01  0.10480624105E+03  0.91905773130E+02 0.  0.
        -11    1    3    3    0    0 -0.17238564875E+02 -0.32505758665E+02 -0.89417953797E+02  0.96692103745E+02  0.00000000000E+00 0.  1.
         12    1    3    3    0    0  0.40493020915E+02  0.24514691223E+02 -0.89944595255E+02  0.10163997759E+03  0.00000000000E+00 0. -1.
        -11    1    4    4    0    0 -0.92458062982E+01 -0.27679265025E+02 -0.18664264689E+02  0.34640748011E+02  0.00000000000E+00 0. -1.
         11    1    4    4    0    0 -0.30700324776E+02  0.57475535506E+02  0.26024013724E+02  0.70165493038E+02  0.00000000000E+00 0.  1.
         -2    1    1    2    0  502  0.16691675034E+02 -0.21805203038E+02 -0.86426419277E+02  0.90684093666E+02  0.00000000000E+00 0.  1.
<scales pt_clust_5="13000.00000" pt_clust_6="13000.00000" pt_clust_7="13000.00000" pt_clust_8="13000.00000" pt_clust_9="27.46051"></scales>
<clustering>
<clus scale="   27.461">  1  9  2 -1</clus>
<clus scale="   80.994">  5  6 -1 -1</clus>
<clus scale="   85.692">  2  5  1 -1</clus>
<clus scale="   91.906">  7  8 -1 -1</clus>
<clus scale="   27.461">  1  5  2 -1</clus>
</clustering>
</event>
<event>
 9    2  0.9254368E-005  0.9758119E+02  0.7546771E-02  0.1291386E+00
         21   -1    0    0  501  502  0.00000000000E+00  0.00000000000E+00  0.36850933864E+02  0.36850933864E+02  0.00000000000E+00 0.  1.
          2   -1    0    0  502    0 -0.00000000000E+00 -0.00000000000E+00 -0.70563997860E+03  0.70563997860E+03  0.00000000000E+00 0. -1.
         24    2    1    2    0    0 -0.76654833613E+01 -0.46863124108E+02 -0.40531346913E+03  0.41592723713E+03  0.80383743966E+02 0.  0.
         23    2    1    2    0    0  0.45359633840E+02 -0.29896110306E+02 -0.12882755023E+03  0.16705530632E+03  0.91431197504E+02 0.  0.
        -11    1    3    3    0    0 -0.34679841010E+01 -0.68658316426E+02 -0.34186317122E+03  0.34870678107E+03  0.00000000000E+00 0.  1.
         12    1    3    3    0    0 -0.41974992603E+01  0.21795192318E+02 -0.63450297905E+02  0.67220456057E+02  0.00000000000E+00 0. -1.
        -13    1    4    4    0    0 -0.11631733532E+02  0.24627188286E+02 -0.28259319399E+02  0.39247735740E+02  0.00000000000E+00 0. -1.
         13    1    4    4    0    0  0.56991367372E+02 -0.54523298592E+02 -0.10056823083E+03  0.12780757058E+03  0.00000000000E+00 0.  1.
          1    1    1    2  501    0 -0.37694150478E+02  0.76759234414E+02 -0.13464802538E+03  0.15950836902E+03  0.00000000000E+00 0. -1.
<scales pt_clust_5="13000.00000" pt_clust_6="13000.00000" pt_clust_7="13000.00000" pt_clust_8="13000.00000" pt_clust_9="85.51508"></scales>
<clustering>
<clus scale="   80.384">  5  6 -1 -1</clus>
<clus scale="   85.515">  1  9  2 -1</clus>
<clus scale="   87.315">  2  5  1 -1</clus>
<clus scale="   91.431">  7  8 -1 -1</clus>
<clus scale="   85.515">  1  5  2 -1</clus>
</clustering>
</event>
<event>
 9    2  0.9254368E-005  0.1216425E+03  0.7546771E-02  0.1253197E+00
          2   -1    0    0  502    0 -0.00000000000E+00  0.00000000000E+00  0.27364525406E+03  0.27364525406E+03  0.00000000000E+00 0. -1.
         21   -1    0    0  501  502  0.00000000000E+00 -0.00000000000E+00 -0.13346322144E+03  0.13346322144E+03  0.00000000000E+00 0.  1.
         24    2    1    2    0    0 -0.27081472286E+02  0.43125180312E+02 -0.63655987904E+02  0.11360459750E+03  0.79124790415E+02 0.  0.
         23    2    1    2    0    0 -0.64839488421E+02 -0.22711736694E+02  0.96094254065E+02  0.15041337898E+03  0.93113353875E+02 0.  0.
        -11    1    3    3    0    0 -0.41948633618E+02  0.50386871148E+02 -0.69977281222E+02  0.95892359099E+02  0.00000000000E+00 0.  1.
         12    1    3    3    0    0  0.14867161332E+02 -0.72616908351E+01  0.63212933176E+01  0.17712238397E+02  0.00000000000E+00 0. -1.
        -11    1    4    4    0    0 -0.31584891358E+02  0.35356284558E+02  0.51499658740E+02  0.69999193354E+02  0.00000000000E+00 0. -1.
         11    1    4    4    0    0 -0.33254597063E+02 -0.58068021251E+02  0.44594595325E+02  0.80414185627E+02  0.00000000000E+00 0.  1.
          1    1    1    2  501    0  0.91920960708E+02 -0.20413443619E+02  0.10774376646E+03  0.14309049902E+03  0.00000000000E+00 0. -1.
<scales pt_clust_5="13000.00000" pt_clust_6="13000.00000" pt_clust_7="13000.00000" pt_clust_8="13000.00000" pt_clust_9="78.27388"></scales>
<clustering>
<clus scale="   79.125">  5  6 -1 -1</clus>
<clus scale="   93.113">  7  8 -1 -1</clus>
<clus scale="   94.095">  1  5  2 -1</clus>
<clus scale="   78.274">  2  9  1 -1</clus>
<clus scale="   78.274">  2  5  1 -1</clus>
</clustering>
</event>
<event>
 9    2  0.9254368E-005  0.2160784E+03  0.7546771E-02  0.1137854E+00
          4   -1    0    0  502    0 -0.00000000000E+00  0.00000000000E+00  0.92922072865E+03  0.92922072865E+03  0.00000000000E+00 0. -1.
         21   -1    0    0  501  502  0.00000000000E+00 -0.00000000000E+00 -0.14395569059E+03  0.14395569059E+03  0.00000000000E+00 0. -1.
         24    2    1    2    0    0 -0.20460068254E+03  0.52076118741E+01  0.73668866243E+03  0.76872993365E+03  0.79667854321E+02 0.  0.
         23    2    1    2    0    0  0.16450923721E+03  0.41421830071E+01  0.11875242466E+03  0.22308666436E+03  0.92655677887E+02 0.  0.
        -11    1    3    3    0    0 -0.51849112697E+02  0.35652104625E+02  0.24562139509E+03  0.25355329377E+03  0.00000000000E+00 0.  1.
         12    1    3    3    0    0 -0.15275156985E+03 -0.30444492751E+02  0.49106726734E+03  0.51517663988E+03  0.00000000000E+00 0. -1.
        -11    1    4    4    0    0  0.15214360769E+03  0.32896692194E+02  0.10993934491E+03  0.19056896200E+03  0.00000000000E+00 0. -1.
         11    1    4    4    0    0  0.12365629517E+02 -0.28754509187E+02  0.88130797505E+01  0.32517702357E+02  0.00000000000E+00 0.  1.
          3    1    1    2  501    0  0.40091445330E+02 -0.93497948812E+01 -0.70176049030E+02  0.81359821229E+02  0.00000000000E+00 0. -1.
<scales pt_clust_5="13000.00000" pt_clust_6="13000.00000" pt_clust_7="13000.00000" pt_clust_8="13000.00000" pt_clust_9="41.16725"></scales>
<clustering>
<clus scale="   41.167">  2  9  1 -1</clus>
<clus scale="   79.668">  5  6 -1 -1</clus>
<clus scale="   92.656">  7  8 -1 -1</clus>
<clus scale="  210.836">  1  5  2 -1</clus>
<clus scale="   41.167">  2  5  1 -1</clus>
</clustering>
</event>
<event>
 9    2  0.9254368E-005  0.1106485E+03  0.7546771E-02  0.1265820E+00
         -3   -1    0    0    0  501 -0.00000000000E+00  0.00000000000E+00  0.24348014044E+03  0.24348014044E+03  0.00000000000E+00 0.  1.
         21   -1    0    0  501  502  0.00000000000E+00 -0.00000000000E+00 -0.14421282936E+03  0.14421282936E+03  0.00000000000E+00 0. -1.
         23    2    1    2    0    0 -0.38266599938E+02 -0.37658787929E+02  0.15466691864E+03  0.18735699790E+03  0.91094851451E+02 0.  0.
         24    2    1    2    0    0  0.93639239932E+02  0.53747173003E+02 -0.20228364319E+02  0.13279352788E+03  0.74618151035E+02 0.  0.
        -11    1    4    4    0    0  0.32080058217E+01  0.26964432394E+02  0.16279049371E+02  0.31660375299E+02  0.00000000000E+00 0.  1.
         12    1    4    4    0    0  0.90431234110E+02  0.26782740609E+02 -0.36507413690E+02  0.10113315258E+03  0.00000000000E+00 0. -1.
        -11    1    3    3    0    0 -0.18733593701E+02 -0.57702718752E+02  0.14592870721E+03  0.15803714397E+03  0.00000000000E+00 0.  1.
         11    1    3    3    0    0 -0.19533006237E+02  0.20043930823E+02  0.87382114221E+01  0.29319853928E+02  0.00000000000E+00 0. -1.
         -4    1    1    2    0  502 -0.55372639995E+02 -0.16088385074E+02 -0.35171243239E+02  0.67542444028E+02  0.00000000000E+00 0.  1.
<scales pt_clust_5="13000.00000" pt_clust_6="13000.00000" pt_clust_7="13000.00000" pt_clust_8="13000.00000" pt_clust_9="57.66251"></scales>
<clustering>
<clus scale="   57.663">  2  9  1 -1</clus>
<clus scale="   74.618">  5  6 -1 -1</clus>
<clus scale="   91.095">  7  8 -1 -1</clus>
<clus scale="   97.533">  2  5  1 -1</clus>
<clus scale="   57.663">  2  5  1 -1</clus>
</clustering>
</event>
<event>
 9    2  0.9254368E-005  0.1791085E+03  0.7546771E-02  0.1169760E+00
         21   -1    0    0  501  502  0.00000000000E+00  0.00000000000E+00  0.71763529793E+02  0.71763529793E+02  0.00000000000E+00 0. -1.
          2   -1    0    0  502    0 -0.00000000000E+00 -0.00000000000E+00 -0.52979674480E+03  0.52979674480E+03  0.00000000000E+00 0. -1.
         24    2    1    2    0    0  0.64214275487E+02  0.13561854136E+03 -0.22821758208E+03  0.28517426377E+03  0.82007524089E+02 0.  0.
         23    2    1    2    0    0 -0.47792604361E+02 -0.15249844770E+03 -0.22775080637E+03  0.29274566333E+03  0.91047701854E+02 0.  0.
        -13    1    3    3    0    0  0.53576737333E+02  0.12375378867E+03 -0.13576075034E+03  0.19135424826E+03  0.00000000000E+00 0.  1.
         14    1    3    3    0    0  0.10637538154E+02  0.11864752688E+02 -0.92456831744E+02  0.93820015510E+02  0.00000000000E+00 0. -1.
        -11    1    4    4    0    0 -0.11536076272E+02 -0.13103867203E+03 -0.12404156070E+03  0.18080520845E+03  0.00000000000E+00 0. -1.
         11    1    4    4    0    0 -0.36256528088E+02 -0.21459775679E+02 -0.10370924567E+03  0.11194045488E+03  0.00000000000E+00 0.  1.
          1    1    1    2  501    0 -0.16421671126E+02  0.16879906349E+02 -0.20648265510E+01  0.23640347493E+02  0.00000000000E+00 0. -1.
<scales pt_clust_5="13000.00000" pt_clust_6="13000.00000" pt_clust_7="13000.00000" pt_clust_8="13000.00000" pt_clust_9="23.55000"></scales>
<clustering>
<clus scale="   23.550">  1  9  2 -1</clus>
<clus scale="   82.008">  5  6 -1 -1</clus>
<clus scale="   91.048">  7  8 -1 -1</clus>
<clus scale="  174.687">  2  5  1 -1</clus>
<clus scale="   23.550">  1  5  2 -1</clus>
</clustering>
</event>
<event>
 9    2  0.9254368E-005  0.8217768E+02  0.7546771E-02  0.1334164E+00
          2   -1    0    0  502    0 -0.00000000000E+00  0.00000000000E+00  0.35308621257E+02  0.35308621257E+02  0.00000000000E+00 0. -1.
         21   -1    0    0  501  502  0.00000000000E+00 -0.00000000000E+00 -0.32716461711E+03  0.32716461711E+03  0.00000000000E+00 0. -1.
         23    2    1    2    0    0 -0.21874651057E+02 -0.11709834130E+02 -0.54405428594E+02  0.87970431424E+02  0.64523062312E+02 0.  0.
         24    2    1    2    0    0  0.12594934190E+02 -0.26415994756E+02 -0.21021258879E+03  0.22673671599E+03  0.79773233286E+02 0.  0.
        -11    1    4    4    0    0 -0.18735468768E+02  0.20363772803E+02 -0.86420580218E+02  0.90742590430E+02  0.00000000000E+00 0.  1.
         12    1    4    4    0    0  0.31330402958E+02 -0.46779767558E+02 -0.12379200857E+03  0.13599412556E+03  0.00000000000E+00 0. -1.
        -13    1    3    3    0    0 -0.39287953764E+02  0.82738470877E+01 -0.43810716205E+02  0.59425404593E+02  0.00000000000E+00 0.  1.
         13    1    3    3    0    0  0.17413302707E+02 -0.19983681217E+02 -0.10594712389E+02  0.28545026831E+02  0.00000000000E+00 0. -1.
          1    1    1    2  501    0  0.92797168678E+01  0.38125828885E+02 -0.27237978473E+02  0.47766090950E+02  0.00000000000E+00 0. -1.
<scales pt_clust_5="13000.00000" pt_clust_6="13000.00000" pt_clust_7="13000.00000" pt_clust_8="13000.00000" pt_clust_9="39.23893"></scales>
<clustering>
<clus scale="   39.239">  2  9  1 -1</clus>
<clus scale="   64.523">  7  8 -1 -1</clus>
<clus scale="   67.473">  1  7  2 -1</clus>
<clus scale="   79.773">  5  6 -1 -1</clus>
<clus scale="   39.239">  2  5  1 -1</clus>
</clustering>
</event>
<event>
 9    2  0.9254368E-005  0.1063171E+03  0.7546771E-02  0.1271943E+00
          4   -1    0    0  502    0 -0.00000000000E+00  0.00000000000E+00  0.59863916406E+03  0.59863916406E+03  0.00000000000E+00 0. -1.
         21   -1    0    0  501  502  0.00000000000E+00 -0.00000000000E+00 -0.83381930497E+02  0.83381930497E+02  0.00000000000E+00 0. -1.
         24    2    1    2    0    0 -0.34638345936E+02 -0.45556022026E+02  0.49821340764E+03  0.50809732178E+03  0.81676941019E+02 0.  0.
         23    2    1    2    0    0  0.22190029762E+02  0.25951953963E+02  0.67077667816E+02  0.11876341205E+03  0.91866387694E+02 0.  0.
        -13    1    3    3    0    0 -0.42998090528E+02  0.93803320239E+01  0.20630971860E+03  0.21095147880E+03  0.00000000000E+00 0.  1.
         14    1    3    3    0    0  0.83597445919E+01 -0.54936354050E+02  0.29190368904E+03  0.29714584298E+03  0.00000000000E+00 0. -1.
        -13    1    4    4    0    0  0.55571201639E+02  0.61311110089E+00  0.44258616814E+02  0.71044771230E+02  0.00000000000E+00 0.  1.
         13    1    4    4    0    0 -0.33381171878E+02  0.25338842862E+02  0.22819051001E+02  0.47718640824E+02  0.00000000000E+00 0. -1.
          3    1    1    2  501    0  0.12448316175E+02  0.19604068063E+02 -0.50033841894E+02  0.55160360721E+02  0.00000000000E+00 0. -1.
<scales pt_clust_5="13000.00000" pt_clust_6="13000.00000" pt_clust_7="13000.00000" pt_clust_8="13000.00000" pt_clust_9="23.22240"></scales>
<clustering>
<clus scale="   23.222">  2  9  1 -1</clus>
<clus scale="   81.677">  5  6 -1 -1</clus>
<clus scale="   91.866">  7  8 -1 -1</clus>
<clus scale="   97.647">  1  5  2 -1</clus>
<clus scale="   23.222">  2  5  1 -1</clus>
</clustering>
</event>
<event>
 9    2  0.9254368E-005  0.1169986E+03  0.7546771E-02  0.1249803E+00
          2   -1    0    0  502    0 -0.00000000000E+00  0.00000000000E+00  0.32940235464E+02  0.32940235464E+02  0.00000000000E+00 0. -1.
         21   -1    0    0  501  502  0.00000000000E+00 -0.00000000000E+00 -0.69351204124E+03  0.69351204124E+03  0.00000000000E+00 0. -1.
         23    2    1    2    0    0  0.57805529649E+02 -0.46965519846E+02 -0.16508074195E+03  0.20068386070E+03  0.86458783650E+02 0.  0.
         24    2    1    2    0    0 -0.94025971026E+02  0.18941594114E+02 -0.40947012452E+03  0.42831656745E+03  0.81176547509E+02 0.  0.
        -11    1    4    4    0    0 -0.33250441909E+02 -0.16912160707E+02 -0.52288636447E+02  0.64231725560E+02  0.00000000000E+00 0.  1.
         12    1    4    4    0    0 -0.60775529116E+02  0.35853754821E+02 -0.35718148807E+03  0.36408484189E+03  0.00000000000E+00 0. -1.
        -13    1    3    3    0    0  0.31665174439E+01  0.22269101680E+02 -0.56389851798E+02  0.60710420096E+02  0.00000000000E+00 0.  1.
         13    1    3    3    0    0  0.54639012205E+02 -0.69234621526E+02 -0.10869089016E+03  0.13997344061E+03  0.00000000000E+00 0. -1.
          1    1    1    2  501    0  0.36220441377E+02  0.28023925732E+02 -0.86020939305E+02  0.97451848550E+02  0.00000000000E+00 0. -1.
<scales pt_clust_5="13000.00000" pt_clust_6="13000.00000" pt_clust_7="13000.00000" pt_clust_8="13000.00000" pt_clust_9="45.79588"></scales>
<clustering>
<clus scale="   45.796">  2  9  1 -1</clus>
<clus scale="   81.177">  5  6 -1 -1</clus>
<clus scale="   86.459">  7  8 -1 -1</clus>
<clus scale="  113.151">  2  5  1 -1</clus>
<clus scale="   45.796">  2  5  1 -1</clus>
</clustering>
</event>
<event>
 9    2  0.9254368E-005  0.9008709E+02  0.7546771E-02  0.1306135E+00
          2   -1    0    0  502    0 -0.00000000000E+00  0.00000000000E+00  0.46370634110E+03  0.46370634110E+03  0.00000000000E+00 0. -1.
         21   -1    0    0  501  502  0.00000000000E+00 -0.00000000000E+00 -0.58328244716E+02  0.58328244716E+02  0.00000000000E+00 0. -1.
         24    2    1    2    0    0  0.10169996096E+02 -0.39438364200E+01  0.24380879256E+03  0.25784768539E+03  0.83208886941E+02 0.  0.
         23    2    1    2    0    0  0.63230750916E+02  0.34715831213E+02  0.14169765809E+03  0.18215356800E+03  0.88872826144E+02 0.  0.
        -13    1    3    3    0    0 -0.46668370483E+01  0.30480697587E+02  0.39410091329E+02  0.50040059872E+02  0.00000000000E+00 0.  1.
         14    1    3    3    0    0  0.14836833145E+02 -0.34424534007E+02  0.20439870123E+03  0.20780762552E+03  0.00000000000E+00 0. -1.
        -13    1    4    4    0    0  0.20560685969E+02 -0.22755316856E+02  0.99947737303E+01  0.32255879382E+02  0.00000000000E+00 0.  1.
         13    1    4    4    0    0  0.42670064946E+02  0.57471148069E+02  0.13170288436E+03  0.14989768861E+03  0.00000000000E+00 0. -1.
          1    1    1    2  501    0 -0.73400747012E+02 -0.30771994793E+02  0.19871645735E+02  0.82033332431E+02  0.00000000000E+00 0. -1.
<scales pt_clust_5="13000.00000" pt_clust_6="13000.00000" pt_clust_7="13000.00000" pt_clust_8="13000.00000" pt_clust_9="79.59011"></scales>
<clustering>
<clus scale="   79.590">  2  9  1 -1</clus>
<clus scale="   83.209">  5  6 -1 -1</clus>
<clus scale="   84.505">  1  5  2 -1</clus>
<clus scale="   88.873">  7  8 -1 -1</clus>
<clus scale="   79.590">  2  5  1 -1</clus>
</clustering>
</event>
<event>
 9    2  0.9254368E-005  0.1936604E+03  0.7546771E-02  0.1184402E+00
          2   -1    0    0  502    0 -0.00000000000E+00  0.00000000000E+00  0.22823474383E+04  0.22823474383E+04  0.00000000000E+00 0. -1.
         21   -1    0    0  501  502  0.00000000000E+00 -0.00000000000E+00 -0.25615710613E+02  0.25615710613E+02  0.00000000000E+00 0. -1.
         23    2    1    2    0    0 -0.32923873343E+02 -0.18392639276E+02  0.32686875592E+03  0.34161032941E+03  0.91826809547E+02 0.  0.
         24    2    1    2    0    0  0.30790642198E+02  0.18622693782E+03  0.87883281490E+03  0.90200452449E+03  0.75076691723E+02 0.  0.
        -13    1    4    4    0    0  0.10683807703E+02  0.32472535490E+02  0.64090640836E+02  0.72637590482E+02  0.00000000000E+00 0.  1.
         14    1    4    4    0    0  0.20106834495E+02  0.15375440233E+03  0.81474217406E+03  0.82936693401E+03  0.00000000000E+00 0. -1.
        -13    1    3    3    0    0  0.22008586153E+02 -0.18651868753E+02  0.38795773921E+02  0.48346480188E+02  0.00000000000E+00 0.  1.
         13    1    3    3    0    0 -0.54932459496E+02  0.25922947669E+00  0.28807298200E+03  0.29326384923E+03  0.00000000000E+00 0. -1.
          1    1    1    2  501    0  0.21332311441E+01 -0.16783429854E+03  0.10510301569E+04  0.10643482950E+04  0.00000000000E+00 0. -1.
<scales pt_clust_5="13000.00000" pt_clust_6="13000.00000" pt_clust_7="13000.00000" pt_clust_8="13000.00000" pt_clust_9="178.51579"></scales>
<clustering>
<clus scale="   75.077">  5  6 -1 -1</clus>
<clus scale="   91.827">  7  8 -1 -1</clus>
<clus scale="   99.270">  1  7  2 -1</clus>
<clus scale="  178.516">  2  9  1 -1</clus>
<clus scale="  178.516">  2  5  1 -1</clus>
</clustering>
</event>
<event>
 9    2  0.9254368E-005  0.1034604E+03  0.7546771E-02  0.1277859E+00
         21   -1    0    0  501  502  0.00000000000E+00  0.00000000000E+00  0.31446317165E+02  0.31446317165E+02  0.00000000000E+00 0.  1.
         -1   -1    0    0    0  501 -0.00000000000E+00 -0.00000000000E+00 -0.63033072174E+03  0.63033072174E+03  0.00000000000E+00 0.  1.
         24    2    1    2    0    0 -0.20704961369E+01  0.28614065200E+02 -0.13356062623E+03  0.15888284224E+03  0.81131159228E+02 0.  0.
         23    2    1    2    0    0 -0.18336998873E+02 -0.73670005351E+02 -0.19680316271E+03  0.22985605900E+03  0.91317072842E+02 0.  0.
        -13    1    3    3    0    0  0.28067017782E+02  0.13085533484E+02 -0.12895232388E+02  0.33545129186E+02  0.00000000000E+00 0.  1.
         14    1    3    3    0    0 -0.30137513919E+02  0.15528531716E+02 -0.12066539384E+03  0.12533771305E+03  0.00000000000E+00 0. -1.
        -11    1    4    4    0    0  0.31791068257E+02 -0.41621031494E+02 -0.13132737147E+03  0.14138550414E+03  0.00000000000E+00 0. -1.
         11    1    4    4    0    0 -0.50128067130E+02 -0.32048973857E+02 -0.65475791235E+02  0.88470554860E+02  0.00000000000E+00 0.  1.
         -2    1    1    2    0  502  0.20407495010E+02  0.45055940151E+02 -0.26852061563E+03  0.27303813766E+03  0.00000000000E+00 0.  1.
<scales pt_clust_5="13000.00000" pt_clust_6="13000.00000" pt_clust_7="13000.00000" pt_clust_8="13000.00000" pt_clust_9="49.46217"></scales>
<clustering>
<clus scale="   49.462">  1  9  2 -1</clus>
<clus scale="   81.131">  5  6 -1 -1</clus>
<clus scale="   91.317">  7  8 -1 -1</clus>
<clus scale="   94.591">  2  5  1 -1</clus>
<clus scale="   49.462">  1  5  2 -1</clus>
</clustering>
</event>
<event>
 9    2  0.9254368E-005  0.1182382E+03  0.7546771E-02  0.1249943E+00
          2   -1    0    0  502    0 -0.00000000000E+00  0.00000000000E+00  0.82746168253E+03  0.82746168253E+03  0.00000000000E+00 0. -1.
         21   -1    0    0  501  502  0.00000000000E+00 -0.00000000000E+00 -0.34262654364E+02  0.34262654364E+02  0.00000000000E+00 0.  1.
         23    2    1    2    0    0 -0.76175058367E+02 -0.11707322302E+02  0.45554038582E+03  0.47069113928E+03  0.89963351297E+02 0.  0.
         24    2    1    2    0    0  0.78155664064E+02 -0.22559302314E+02  0.99075300006E+02  0.14999350045E+03  0.77877500994E+02 0.  0.
        -11    1    4    4    0    0  0.76387176189E+02 -0.28276534833E+02  0.40232603779E+02  0.90847264764E+02  0.00000000000E+00 0.  1.
         12    1    4    4    0    0  0.17684878748E+01  0.57172325192E+01  0.58842696227E+02  0.59146235690E+02  0.00000000000E+00 0. -1.
        -11    1    3    3    0    0  0.10409762309E+02 -0.28025574190E+02  0.98308523220E+02  0.10275388897E+03  0.00000000000E+00 0.  1.
         11    1    3    3    0    0 -0.86584820676E+02  0.16318251888E+02  0.35723186260E+03  0.36793725032E+03  0.00000000000E+00 0. -1.
          1    1    1    2  501    0 -0.19806056967E+01  0.34266624616E+02  0.23858334234E+03  0.24103969715E+03  0.00000000000E+00 0. -1.
<scales pt_clust_5="13000.00000" pt_clust_6="13000.00000" pt_clust_7="13000.00000" pt_clust_8="13000.00000" pt_clust_9="34.32383"></scales>
<clustering>
<clus scale="   34.324">  2  9  1 -1</clus>
<clus scale="   77.878">  5  6 -1 -1</clus>
<clus scale="   89.963">  7  8 -1 -1</clus>
<clus scale="  109.324">  2  5  1 -1</clus>
<clus scale="   34.324">  2  5  1 -1</clus>
</clustering>
</event>
<event>
 9    2  0.9254368E-005  0.1524280E+03  0.7546771E-02  0.1220525E+00
          2   -1    0    0  502    0 -0.00000000000E+00  0.00000000000E+00  0.75611525274E+03  0.75611525274E+03  0.00000000000E+00 0. -1.
         21   -1    0    0  501  502  0.00000000000E+00 -0.00000000000E+00 -0.64474924088E+02  0.64474924088E+02  0.00000000000E+00 0. -1.
         24    2    1    2    0    0 -0.12544171090E+02 -0.45811018559E+02  0.22336569219E+03  0.24202545782E+03  0.80175333714E+02 0.  0.
         23    2    1    2    0    0 -0.95012104847E+02  0.10812225490E+03  0.40720828322E+03  0.44007232872E+03  0.84423613466E+02 0.  0.
        -13    1    3    3    0    0 -0.38372766386E+01 -0.66534698065E+02  0.13117848330E+03  0.14713730058E+03  0.00000000000E+00 0.  1.
         14    1    3    3    0    0 -0.87068944514E+01  0.20723679506E+02  0.92187208885E+02  0.94888157244E+02  0.00000000000E+00 0. -1.
        -13    1    4    4    0    0 -0.95616245788E+02  0.49764029177E+02  0.28310404855E+03  0.30293040020E+03  0.00000000000E+00 0. -1.
         13    1    4    4    0    0  0.60414094095E+00  0.58358225727E+02  0.12410423467E+03  0.13714192852E+03  0.00000000000E+00 0.  1.
          1    1    1    2  501    0  0.10755627594E+03 -0.62311236344E+02  0.61066353238E+02  0.13849239028E+03  0.00000000000E+00 0. -1.
<scales pt_clust_5="13000.00000" pt_clust_6="13000.00000" pt_clust_7="13000.00000" pt_clust_8="13000.00000" pt_clust_9="126.91316"></scales>
<clustering>
<clus scale="   80.175">  5  6 -1 -1</clus>
<clus scale="   84.424">  7  8 -1 -1</clus>
<clus scale="   93.188">  1  5  2 -1</clus>
<clus scale="  126.913">  2  9  1 -1</clus>
<clus scale="  126.913">  2  5  1 -1</clus>
</clustering>
</event>
<event>
 9    2  0.9254368E-005  0.1552600E+03  0.7546771E-02  0.1196007E+00
          2   -1    0    0  502    0 -0.00000000000E+00  0.00000000000E+00  0.89425059327E+03  0.89425059327E+03  0.00000000000E+00 0. -1.
         21   -1    0    0  501  502  0.00000000000E+00 -0.00000000000E+00 -0.69125464894E+02  0.69125464894E+02  0.00000000000E+00 0. -1.
         24    2    1    2    0    0  0.10706591329E+03 -0.28815982234E+02  0.22429714183E+03  0.26278851580E+03  0.80343796173E+02 0.  0.
         23    2    1    2    0    0 -0.12377057823E+03  0.12143845382E+03  0.16945276536E+03  0.25906455369E+03  0.91289370608E+02 0.  0.
        -13    1    3    3    0    0  0.61236955136E+02 -0.46758261743E+02  0.83396772050E+02  0.11353995466E+03  0.00000000000E+00 0.  1.
         14    1    3    3    0    0  0.45828958159E+02  0.17942279508E+02  0.14090036978E+03  0.14924856114E+03  0.00000000000E+00 0. -1.
        -13    1    4    4    0    0 -0.29383124028E+02  0.71612956528E+02  0.29001366672E+02  0.82661132276E+02  0.00000000000E+00 0. -1.
         13    1    4    4    0    0 -0.94387454204E+02  0.49825497295E+02  0.14045139869E+03  0.17640342141E+03  0.00000000000E+00 0.  1.
          1    1    1    2  501    0  0.16704664938E+02 -0.92622471588E+02  0.43137522118E+03  0.44152298867E+03  0.00000000000E+00 0. -1.
<scales pt_clust_5="13000.00000" pt_clust_6="13000.00000" pt_clust_7="13000.00000" pt_clust_8="13000.00000" pt_clust_9="94.11683"></scales>
<clustering>
<clus scale="   80.344">  5  6 -1 -1</clus>
<clus scale="   91.289">  7  8 -1 -1</clus>
<clus scale="   94.117">  2  9  1 -1</clus>
<clus scale="  149.087">  1  5  2 -1</clus>
<clus scale="   94.117">  2  5  1 -1</clus>
</clustering>
</event>
<event>
 9    2  0.9254368E-005  0.1529791E+03  0.7546771E-02  0.1199765E+00
          2   -1    0    0  502    0 -0.00000000000E+00  0.00000000000E+00  0.93236975092E+03  0.93236975092E+03  0.00000000000E+00 0. -1.
         21   -1    0    0  501  502  0.00000000000E+00 -0.00000000000E+00 -0.36610848277E+02  0.36610848277E+02  0.00000000000E+00 0.  1.
         23    2    1    2    0    0  0.13293168509E+03  0.32655720692E+02  0.54005039369E+03  0.56538405672E+03  0.96267724990E+02 0.  0.
         24    2    1    2    0    0 -0.81426368098E+02 -0.62252079763E+02  0.26224166081E+03  0.29285001274E+03  0.80528668419E+02 0.  0.
        -11    1    4    4    0    0 -0.35125107070E+02 -0.14836075809E+02  0.22845594142E+02  0.44450010841E+02  0.00000000000E+00 0.  1.
         12    1    4    4    0    0 -0.46301261027E+02 -0.47416003953E+02  0.23939606667E+03  0.24840000190E+03  0.00000000000E+00 0. -1.
        -11    1    3    3    0    0  0.16045117649E+02 -0.30374980464E+02  0.12241030264E+03  0.12713916561E+03  0.00000000000E+00 0.  1.
         11    1    3    3    0    0  0.11688656744E+03  0.63030701156E+02  0.41764009105E+03  0.43824489112E+03  0.00000000000E+00 0. -1.
          1    1    1    2  501    0 -0.51505316988E+02  0.29596359070E+02  0.93466848130E+02  0.11074652973E+03  0.00000000000E+00 0. -1.
<scales pt_clust_5="13000.00000" pt_clust_6="13000.00000" pt_clust_7="13000.00000" pt_clust_8="13000.00000" pt_clust_9="59.40322"></scales>
<clustering>
<clus scale="   59.403">  2  9  1 -1</clus>
<clus scale="   80.529">  5  6 -1 -1</clus>
<clus scale="   96.268">  7  8 -1 -1</clus>
<clus scale="  143.597">  2  5  1 -1</clus>
<clus scale="   59.403">  2  5  1 -1</clus>
</clustering>
</event>
<event>
 9    2  0.9254368E-005  0.2278951E+03  0.7546771E-02  0.1128748E+00
         21   -1    0    0  501  502  0.00000000000E+00  0.00000000000E+00  0.80837893054E+02  0.80837893054E+02  0.00000000000E+00 0. -1.
         -3   -1    0    0    0  501 -0.00000000000E+00 -0.00000000000E+00 -0.11262004086E+04  0.11262004086E+04  0.00000000000E+00 0.  1.
         23    2    1    2    0    0  0.77598907842E+02 -0.19672243517E+03 -0.85680715676E+03  0.88708317300E+03  0.89870712414E+02 0.  0.
         24    2    1    2    0    0 -0.54121356156E+02  0.19640203531E+03 -0.19732722559E+03  0.29489033791E+03  0.80742781496E+02 0.  0.
        -13    1    4    4    0    0 -0.30283190071E+02  0.17513525273E+03 -0.19346319354E+03  0.26271169674E+03  0.00000000000E+00 0.  1.
         14    1    4    4    0    0 -0.23838166085E+02  0.21266782581E+02 -0.38640320554E+01  0.32178641167E+02  0.00000000000E+00 0. -1.
        -13    1    3    3    0    0  0.50264240747E+02 -0.38431446876E+02 -0.16127885178E+03  0.17324646617E+03  0.00000000000E+00 0. -1.
         13    1    3    3    0    0  0.27334667095E+02 -0.15829098829E+03 -0.69552830497E+03  0.71383670683E+03  0.00000000000E+00 0.  1.
         -4    1    1    2    0  502 -0.23477551686E+02  0.32039985310E+00  0.87718667861E+01  0.25064790766E+02  0.00000000000E+00 0.  1.
<scales pt_clust_5="13000.00000" pt_clust_6="13000.00000" pt_clust_7="13000.00000" pt_clust_8="13000.00000" pt_clust_9="23.47974"></scales>
<clustering>
<clus scale="   23.480">  1  9  2 -1</clus>
<clus scale="   80.743">  5  6 -1 -1</clus>
<clus scale="   89.871">  7  8 -1 -1</clus>
<clus scale="  224.452">  1  5  2 -1</clus>
<clus scale="   23.480">  1  5  2 -1</clus>
</clustering>
</event>
<event>
 9    2  0.9254368E-005  0.2016494E+03  0.7546771E-02  0.1149376E+00
         21   -1    0    0  501  502  0.00000000000E+00  0.00000000000E+00  0.55723415924E+02  0.55723415924E+02  0.00000000000E+00 0.  1.
          2   -1    0    0  502    0 -0.00000000000E+00 -0.00000000000E+00 -0.17217391460E+04  0.17217391460E+04  0.00000000000E+00 0. -1.
         23    2    1    2    0    0 -0.14014434152E+03  0.13072555180E+03 -0.72545389541E+03  0.75606231811E+03  0.92829241922E+02 0.  0.
         24    2    1    2    0    0  0.18026194869E+03 -0.10376867976E+02 -0.24885906049E+03  0.31816062895E+03  0.81812616952E+02 0.  0.
        -13    1    4    4    0    0  0.10300281198E+03  0.15432198435E+02 -0.82278203430E+02  0.13273068516E+03  0.00000000000E+00 0.  1.
         14    1    4    4    0    0  0.77259136705E+02 -0.25809066410E+02 -0.16658085706E+03  0.18542994378E+03  0.00000000000E+00 0. -1.
        -11    1    3    3    0    0 -0.89272408896E+02  0.20635959474E+02 -0.30441967745E+03  0.31790996498E+03  0.00000000000E+00 0. -1.
         11    1    3    3    0    0 -0.50871932626E+02  0.11008959232E+03 -0.42103421796E+03  0.43815235314E+03  0.00000000000E+00 0.  1.
          1    1    1    2  501    0 -0.40117607165E+02 -0.12034868382E+03 -0.69170277422E+03  0.70323961490E+03  0.00000000000E+00 0. -1.
<scales pt_clust_5="13000.00000" pt_clust_6="13000.00000" pt_clust_7="13000.00000" pt_clust_8="13000.00000" pt_clust_9="126.85915"></scales>
<clustering>
<clus scale="   81.813">  5  6 -1 -1</clus>
<clus scale="   92.829">  7  8 -1 -1</clus>
<clus scale="  126.859">  1  9  2 -1</clus>
<clus scale="  196.821">  1  5  2 -1</clus>
<clus scale="  126.859">  1  5  2 -1</clus>
</clustering>
</event>
<event>
 9    2  0.9254368E-005  0.2760336E+03  0.7546771E-02  0.1128902E+00
         21   -1    0    0  501  502  0.00000000000E+00  0.00000000000E+00  0.44167191857E+03  0.44167191857E+03  0.00000000000E+00 0. -1.
          2   -1    0    0  502    0 -0.00000000000E+00 -0.00000000000E+00 -0.37167539629E+03  0.37167539629E+03  0.00000000000E+00 0. -1.
         23    2    1    2    0    0  0.86579146974E+02 -0.17936750085E+02  0.14862380178E+03  0.19473861876E+03  0.89534459770E+02 0.  0.
         24    2    1    2    0    0  0.22921914709E+03 -0.68893377434E+02  0.65371101513E+02  0.26083283426E+03  0.80452915838E+02 0.  0.
        -13    1    4    4    0    0  0.20412475663E+03 -0.32124401182E+02  0.63902636781E+02  0.21629248810E+03  0.00000000000E+00 0.  1.
         14    1    4    4    0    0  0.25094390459E+02 -0.36768976252E+02  0.14684647312E+01  0.44540346157E+02  0.00000000000E+00 0. -1.
        -13    1    3    3    0    0  0.45725991131E+02 -0.53967654307E+02  0.74241349838E+02  0.10254341521E+03  0.00000000000E+00 0.  1.
         13    1    3    3    0    0  0.40853155843E+02  0.36030904221E+02  0.74382451940E+02  0.92195203551E+02  0.00000000000E+00 0. -1.
          1    1    1    2  501    0 -0.31579829407E+03  0.86830127519E+02 -0.14399838101E+03  0.35777586184E+03  0.00000000000E+00 0. -1.
<scales pt_clust_5="13000.00000" pt_clust_6="13000.00000" pt_clust_7="13000.00000" pt_clust_8="13000.00000" pt_clust_9="264.04917"></scales>
<clustering>
<clus scale="   80.453">  5  6 -1 -1</clus>
<clus scale="   89.534">  7  8 -1 -1</clus>
<clus scale="  125.834">  2  7  1 -1</clus>
<clus scale="  264.049">  1  9  2 -1</clus>
<clus scale="  264.049">  1  5  2 -1</clus>
</clustering>
</event>
<event>
 9    2  0.9254368E-005  0.1045005E+03  0.7546771E-02  0.1278121E+00
         21   -1    0    0  501  502  0.00000000000E+00  0.00000000000E+00  0.26535066389E+02  0.26535066389E+02  0.00000000000E+00 0.  1.
          2   -1    0    0  502    0 -0.00000000000E+00 -0.00000000000E+00 -0.81494137110E+03  0.81494137110E+03  0.00000000000E+00 0. -1.
         23    2    1    2    0    0 -0.28976836588E+02 -0.18878579159E+01 -0.43025711226E+03  0.44155878119E+03  0.94919721481E+02 0.  0.
         24    2    1    2    0    0  0.56427557314E+02  0.45141516317E+02 -0.31484633319E+03  0.33283890666E+03  0.80197871178E+02 0.  0.
        -11    1    4    4    0    0  0.72150615765E+02  0.22941657588E+02 -0.17997177978E+03  0.19524823309E+03  0.00000000000E+00 0.  1.
         12    1    4    4    0    0 -0.15723058451E+02  0.22199858729E+02 -0.13487455341E+03  0.13759067357E+03  0.00000000000E+00 0. -1.
        -13    1    3    3    0    0 -0.46427428567E+02 -0.37425937797E+02 -0.26443909110E+03  0.27107976658E+03  0.00000000000E+00 0. -1.
         13    1    3    3    0    0  0.17450591979E+02  0.35538079881E+02 -0.16581802116E+03  0.17047901461E+03  0.00000000000E+00 0.  1.
          1    1    1    2  501    0 -0.27450720726E+02 -0.43253658401E+02 -0.43302859250E+02  0.67078749635E+02  0.00000000000E+00 0. -1.
<scales pt_clust_5="13000.00000" pt_clust_6="13000.00000" pt_clust_7="13000.00000" pt_clust_8="13000.00000" pt_clust_9="51.22910"></scales>
<clustering>
<clus scale="   51.229">  1  9  2 -1</clus>
<clus scale="   80.198">  5  6 -1 -1</clus>
<clus scale="   91.336">  1  5  2 -1</clus>
<clus scale="   94.920">  7  8 -1 -1</clus>
<clus scale="   51.229">  1  5  2 -1</clus>
</clustering>
</event>
<event>
 9    2  0.9254368E-005  0.1661964E+03  0.7546771E-02  0.1182282E+00
          2   -1    0    0  502    0 -0.00000000000E+00  0.00000000000E+00  0.19269222619E+03  0.19269222619E+03  0.00000000000E+00 0. -1.
         21   -1    0    0  501  502  0.00000000000E+00 -0.00000000000E+00 -0.29429264680E+03  0.29429264680E+03  0.00000000000E+00 0. -1.
         24    2    1    2    0    0 -0.80518590381E+02 -0.47167506187E+02 -0.57135291406E+02  0.13617621435E+03  0.81064806141E+02 0.  0.
         23    2    1    2    0    0  0.12399419186E+03  0.15800168355E+03  0.13958291361E+02  0.21819026298E+03  0.84101518082E+02 0.  0.
        -11    1    3    3    0    0 -0.45826875646E+02  0.11443417472E+02  0.65645622601E-01  0.47234083502E+02  0.00000000000E+00 0.  1.
         12    1    3    3    0    0 -0.34691714735E+02 -0.58610923659E+02 -0.57200937028E+02  0.88942130851E+02  0.00000000000E+00 0. -1.
        -11    1    4    4    0    0  0.10206577627E+03  0.16056568458E+03  0.27580107564E+02  0.19224833961E+03  0.00000000000E+00 0. -1.
         11    1    4    4    0    0  0.21928415589E+02 -0.25640010308E+01 -0.13621816203E+02  0.25941923371E+02  0.00000000000E+00 0.  1.
          1    1    1    2  501    0 -0.43475601474E+02 -0.11083417736E+03 -0.58423420568E+02  0.13261839565E+03  0.00000000000E+00 0. -1.
<scales pt_clust_5="13000.00000" pt_clust_6="13000.00000" pt_clust_7="13000.00000" pt_clust_8="13000.00000" pt_clust_9="119.05605"></scales>
<clustering>
<clus scale="   81.065">  5  6 -1 -1</clus>
<clus scale="   84.102">  7  8 -1 -1</clus>
<clus scale="  119.056">  2  9  1 -1</clus>
<clus scale="  164.681">  1  5  2 -1</clus>
<clus scale="  119.056">  2  5  1 -1</clus>
</clustering>
</event>
<event>
 9    2  0.9254368E-005  0.1309120E+03  0.7546771E-02  0.1249024E+00
         21   -1    0    0  501  502  0.00000000000E+00  0.00000000000E+00  0.49995693200E+02  0.49995693200E+02  0.00000000000E+00 0. -1.
          2   -1    0    0  502    0 -0.00000000000E+00 -0.00000000000E+00 -0.57607367031E+03  0.57607367031E+03  0.00000000000E+00 0. -1.
         24    2    1    2    0    0 -0.30527027518E+00 -0.19502861423E+02 -0.18720457501E+03  0.20439213856E+03  0.79687756944E+02 0.  0.
         23    2    1    2    0    0 -0.90549494872E+02  0.35148286171E+02 -0.28498811338E+03  0.31489243200E+03  0.92219335934E+02 0.  0.
        -13    1    3    3    0    0 -0.74170305036E+01 -0.46855888470E+02 -0.75493722250E+02  0.89161587722E+02  0.00000000000E+00 0.  1.
         14    1    3    3    0    0  0.71117602285E+01  0.27353027047E+02 -0.11171085276E+03  0.11523055084E+03  0.00000000000E+00 0. -1.
        -13    1    4    4    0    0 -0.23139127003E+02  0.16147146650E+01 -0.34374459763E+01  0.23448721431E+02  0.00000000000E+00 0.  1.
         13    1    4    4    0    0 -0.67410367869E+02  0.33533571506E+02 -0.28155066740E+03  0.29144371056E+03  0.00000000000E+00 0. -1.
          1    1    1    2  501    0  0.90854765148E+02 -0.15645424748E+02 -0.53885288726E+02  0.10678479296E+03  0.00000000000E+00 0. -1.
<scales pt_clust_5="13000.00000" pt_clust_6="13000.00000" pt_clust_7="13000.00000" pt_clust_8="13000.00000" pt_clust_9="92.91689"></scales>
<clustering>
<clus scale="   79.688">  5  6 -1 -1</clus>
<clus scale="   82.040">  2  5  1 -1</clus>
<clus scale="   92.219">  7  8 -1 -1</clus>
<clus scale="   92.917">  1  9  2 -1</clus>
<clus scale="   92.917">  1  5  2 -1</clus>
</clustering>
</event>
<event>
 9    2  0.9254368E-005  0.1761146E+03  0.7546771E-02  0.1173010E+00
         21   -1    0    0  501  502  0.00000000000E+00  0.00000000000E+00  0.44123813298E+02  0.44123813298E+02  0.00000000000E+00 0. -1.
          2   -1    0    0  502    0 -0.00000000000E+00 -0.00000000000E+00 -0.17599737538E+04  0.17599737538E+04  0.00000000000E+00 0. -1.
         24    2    1    2    0    0  0.34210897862E+02 -0.19138318971E+03 -0.13244086727E+04  0.13410228016E+04  0.80535155528E+02 0.  0.
         23    2    1    2    0    0 -0.22836851097E+01  0.80540073339E+02 -0.26609624478E+03  0.29273123565E+03  0.91610295317E+02 0.  0.
        -11    1    3    3    0    0 -0.21464732244E+02 -0.88475018199E+02 -0.48139632917E+03  0.48992957588E+03  0.00000000000E+00 0.  1.
         12    1    3    3    0    0  0.55675630106E+02 -0.10290817151E+03 -0.84301234356E+03  0.85109322576E+03  0.00000000000E+00 0. -1.
        -13    1    4    4    0    0  0.43598227643E+02  0.26778647187E+02 -0.10445363888E+03  0.11631192576E+03  0.00000000000E+00 0.  1.
         13    1    4    4    0    0 -0.45881912753E+02  0.53761426152E+02 -0.16164260590E+03  0.17641930989E+03  0.00000000000E+00 0. -1.
          1    1    1    2  501    0 -0.31927212753E+02  0.11084311637E+03 -0.12534502301E+03  0.17034352983E+03  0.00000000000E+00 0. -1.
<scales pt_clust_5="13000.00000" pt_clust_6="13000.00000" pt_clust_7="13000.00000" pt_clust_8="13000.00000" pt_clust_9="115.34966"></scales>
<clustering>
<clus scale="   80.535">  5  6 -1 -1</clus>
<clus scale="   91.610">  7  8 -1 -1</clus>
<clus scale="  115.350">  1  9  2 -1</clus>
<clus scale="  170.616">  2  5  1 -1</clus>
<clus scale="  115.350">  1  5  2 -1</clus>
</clustering>
</event>
<event>
 9    2  0.9254368E-005  0.9771417E+02  0.7546771E-02  0.1289999E+00
         21   -1    0    0  501  502  0.00000000000E+00  0.00000000000E+00  0.21369609023E+03  0.21369609023E+03  0.00000000000E+00 0. -1.
          2   -1    0    0  502    0 -0.00000000000E+00 -0.00000000000E+00 -0.25830381698E+03  0.25830381698E+03  0.00000000000E+00 0. -1.
         24    2    1    2    0    0 -0.68565767474E+00 -0.25666650327E+02 -0.17037250340E+03  0.19092624262E+03  0.82260519935E+02 0.  0.
         23    2    1    2    0    0 -0.10844587304E+02  0.77678831998E+02 -0.23404833050E+02  0.12267610764E+03  0.91378526805E+02 0.  0.
        -11    1    3    3    0    0  0.27229507777E+02  0.89917936452E+01 -0.22344626624E+02  0.36353552587E+02  0.00000000000E+00 0.  1.
         12    1    3    3    0    0 -0.27915165451E+02 -0.34658443972E+02 -0.14802787678E+03  0.15457269003E+03  0.00000000000E+00 0. -1.
        -11    1    4    4    0    0  0.30014555003E+02  0.34095682091E+02 -0.40158276217E+02  0.60630653947E+02  0.00000000000E+00 0. -1.
         11    1    4    4    0    0 -0.40859142307E+02  0.43583149906E+02  0.16753443167E+02  0.62045453691E+02  0.00000000000E+00 0.  1.
          1    1    1    2  501    0  0.11530244979E+02 -0.52012181671E+02  0.14916960970E+03  0.15839755695E+03  0.00000000000E+00 0. -1.
<scales pt_clust_5="13000.00000" pt_clust_6="13000.00000" pt_clust_7="13000.00000" pt_clust_8="13000.00000" pt_clust_9="53.27489"></scales>
<clustering>
<clus scale="   53.275">  1  9  2 -1</clus>
<clus scale="   82.261">  5  6 -1 -1</clus>
<clus scale="   89.246">  2  5  1 -1</clus>
<clus scale="   91.379">  7  8 -1 -1</clus>
<clus scale="   53.275">  1  5  2 -1</clus>
</clustering>
</event>
<event>
 9    2  0.9254368E-005  0.2020026E+03  0.7546771E-02  0.1148428E+00
         21   -1    0    0  501  502  0.00000000000E+00  0.00000000000E+00  0.18031069047E+03  0.18031069047E+03  0.00000000000E+00 0.  1.
         -1   -1    0    0    0  501 -0.00000000000E+00 -0.00000000000E+00 -0.31715143049E+03  0.31715143049E+03  0.00000000000E+00 0.  1.
         23    2    1    2    0    0 -0.15347727931E+03  0.12975959255E+03 -0.13040154895E+03  0.25411365500E+03  0.84713390730E+02 0.  0.
         24    2    1    2    0    0  0.14405718899E+03 -0.68895889896E+02  0.11593444205E+02  0.17917444990E+03  0.80436050410E+02 0.  0.
        -11    1    4    4    0    0  0.90661496588E+02  0.76530580572E+00  0.11595813212E+02  0.91403257822E+02  0.00000000000E+00 0.  1.
         12    1    4    4    0    0  0.53395692400E+02 -0.69661195702E+02 -0.23690063327E-02  0.87771192080E+02  0.00000000000E+00 0. -1.
        -11    1    3    3    0    0 -0.34276652275E-01  0.40670550527E+02 -0.24787956215E+02  0.47629167832E+02  0.00000000000E+00 0. -1.
         11    1    3    3    0    0 -0.15344300266E+03  0.89089042021E+02 -0.10561359273E+03  0.20648448717E+03  0.00000000000E+00 0.  1.
         -2    1    1    2    0  502  0.94200903216E+01 -0.60863702651E+02 -0.18032635270E+02  0.64174016057E+02  0.00000000000E+00 0.  1.
<scales pt_clust_5="13000.00000" pt_clust_6="13000.00000" pt_clust_7="13000.00000" pt_clust_8="13000.00000" pt_clust_9="61.58841"></scales>
<clustering>
<clus scale="   61.588">  1  9  2 -1</clus>
<clus scale="   80.436">  5  6 -1 -1</clus>
<clus scale="   84.713">  7  8 -1 -1</clus>
<clus scale="  200.246">  1  5  2 -1</clus>
<clus scale="   61.588">  1  5  2 -1</clus>
</clustering>
</event>
<event>
 9    2  0.9254368E-005  0.1149744E+03  0.7546771E-02  0.1261823E+00
          2   -1    0    0  502    0 -0.00000000000E+00  0.00000000000E+00  0.42948543849E+03  0.42948543849E+03  0.00000000000E+00 0. -1.
         21   -1    0    0  501  502  0.00000000000E+00 -0.00000000000E+00 -0.10110070567E+03  0.10110070567E+03  0.00000000000E+00 0. -1.
         23    2    1    2    0    0  0.70144849387E+02  0.81968481348E+01  0.35116104228E+03  0.37133315366E+03  0.97911925618E+02 0.  0.
         24    2    1    2    0    0 -0.24595555611E+02 -0.31775303366E+02  0.27900545610E+02  0.87150110151E+02  0.72125515556E+02 0.  0.
        -11    1    4    4    0    0 -0.10756137808E+01  0.22797560669E+02  0.43810224014E+01  0.23239601433E+02  0.00000000000E+00 0.  1.
         12    1    4    4    0    0 -0.23519941830E+02 -0.54572864035E+02  0.23519523208E+02  0.63910508718E+02  0.00000000000E+00 0. -1.
        -11    1    3    3    0    0  0.47058764577E+02  0.30412212676E+02  0.32549275956E+03  0.33028013341E+03  0.00000000000E+00 0. -1.
         11    1    3    3    0    0  0.23086084810E+02 -0.22215364541E+02  0.25668282721E+02  0.41053020247E+02  0.00000000000E+00 0.  1.
          1    1    1    2  501    0 -0.45549293776E+02  0.23578455231E+02 -0.50676855072E+02  0.72102880349E+02  0.00000000000E+00 0. -1.
<scales pt_clust_5="13000.00000" pt_clust_6="13000.00000" pt_clust_7="13000.00000" pt_clust_8="13000.00000" pt_clust_9="51.29017"></scales>
<clustering>
<clus scale="   51.290">  2  9  1 -1</clus>
<clus scale="   72.126">  5  6 -1 -1</clus>
<clus scale="   93.992">  2  5  1 -1</clus>
<clus scale="   97.912">  7  8 -1 -1</clus>
<clus scale="   51.290">  2  5  1 -1</clus>
</clustering>
</event>
<event>
 9    2  0.9254368E-005  0.9866313E+02  0.7546771E-02  0.1287901E+00
          2   -1    0    0  502    0 -0.00000000000E+00  0.00000000000E+00  0.10613169758E+03  0.10613169758E+03  0.00000000000E+00 0. -1.
         21   -1    0    0  501  502  0.00000000000E+00 -0.00000000000E+00 -0.16945386120E+03  0.16945386120E+03  0.00000000000E+00 0.  1.
         24    2    1    2    0    0  0.45362637817E+01  0.29527570331E+02  0.15762613332E+02  0.89231469470E+02  0.82591404311E+02 0.  0.
         23    2    1    2    0    0  0.46189527521E+02 -0.43231121133E+02 -0.32454948847E+02  0.11610286814E+03  0.91783168380E+02 0.  0.
        -11    1    3    3    0    0 -0.17802870729E+02 -0.98551027035E+01 -0.22221952349E+02  0.30131054108E+02  0.00000000000E+00 0.  1.
         12    1    3    3    0    0  0.22339134511E+02  0.39382673035E+02  0.37984565680E+02  0.59100415362E+02  0.00000000000E+00 0. -1.
        -13    1    4    4    0    0 -0.28202579614E+02 -0.14128002820E+02 -0.76465013003E+01  0.32456970633E+02  0.00000000000E+00 0. -1.
         13    1    4    4    0    0  0.74392107135E+02 -0.29103118313E+02 -0.24808447547E+02  0.83645897504E+02  0.00000000000E+00 0.  1.
          1    1    1    2  501    0 -0.50725791303E+02  0.13703550802E+02 -0.46629828098E+02  0.70251221174E+02  0.00000000000E+00 0. -1.
<scales pt_clust_5="13000.00000" pt_clust_6="13000.00000" pt_clust_7="13000.00000" pt_clust_8="13000.00000" pt_clust_9="52.54420"></scales>
<clustering>
<clus scale="   52.544">  2  9  1 -1</clus>
<clus scale="   82.591">  5  6 -1 -1</clus>
<clus scale="   90.175">  1  5  2 -1</clus>
<clus scale="   91.783">  7  8 -1 -1</clus>
<clus scale="   52.544">  2  5  1 -1</clus>
</clustering>
</event>
<event>
 9    2  0.9254368E-005  0.1833870E+03  0.7546771E-02  0.1166134E+00
          2   -1    0    0  502    0 -0.00000000000E+00  0.00000000000E+00  0.99363594517E+03  0.99363594517E+03  0.00000000000E+00 0. -1.
         21   -1    0    0  501  502  0.00000000000E+00 -0.00000000000E+00 -0.58281583664E+02  0.58281583664E+02  0.00000000000E+00 0. -1.
         23    2    1    2    0    0 -0.15445055828E+03 -0.57024772853E+02  0.60284335411E+03  0.63187166326E+03  0.93460631123E+02 0.  0.
         24    2    1    2    0    0  0.14026690786E+03  0.16225211375E+02  0.11646079003E+03  0.19972002373E+03  0.79918141496E+02 0.  0.
        -11    1    4    4    0    0  0.85456266537E+02  0.42923834287E+02  0.44713887414E+02  0.10556780176E+03  0.00000000000E+00 0.  1.
         12    1    4    4    0    0  0.54810641326E+02 -0.26698622913E+02  0.71746902614E+02  0.94152221974E+02  0.00000000000E+00 0. -1.
        -13    1    3    3    0    0 -0.21912914570E+02 -0.24115423624E+01  0.14665819058E+02  0.26477870196E+02  0.00000000000E+00 0.  1.
         13    1    3    3    0    0 -0.13253764371E+03 -0.54613230491E+02  0.58817753505E+03  0.60539379306E+03  0.00000000000E+00 0. -1.
          1    1    1    2  501    0  0.14183650418E+02  0.40799561479E+02  0.21605021737E+03  0.22032584184E+03  0.00000000000E+00 0. -1.
<scales pt_clust_5="13000.00000" pt_clust_6="13000.00000" pt_clust_7="13000.00000" pt_clust_8="13000.00000" pt_clust_9="43.19470"></scales>
<clustering>
<clus scale="   43.195">  2  9  1 -1</clus>
<clus scale="   79.918">  5  6 -1 -1</clus>
<clus scale="   93.461">  7  8 -1 -1</clus>
<clus scale="  176.869">  2  5  1 -1</clus>
<clus scale="   43.195">  2  5  1 -1</clus>
</clustering>
</event>
<event>
 9    2  0.9254368E-005  0.1253609E+03  0.7546771E-02  0.1237353E+00
         21   -1    0    0  501  502  0.00000000000E+00  0.00000000000E+00  0.39050251701E+02  0.39050251701E+02  0.00000000000E+00 0. -1.
         -1   -1    0    0    0  501 -0.00000000000E+00 -0.00000000000E+00 -0.65286426214E+03  0.65286426214E+03  0.00000000000E+00 0.  1.
         24    2    1    2    0    0  0.51854444894E+02 -0.98153187858E+02 -0.27091785310E+03  0.30381960914E+03  0.81159965665E+02 0.  0.
         23    2    1    2    0    0 -0.58473602420E+01  0.61178108986E+02 -0.14747888932E+03  0.18395838926E+03  0.91179567582E+02 0.  0.
        -11    1    3    3    0    0  0.49469503272E+02 -0.39291533327E+02 -0.20906724972E+03  0.21840368873E+03  0.00000000000E+00 0.  1.
         12    1    3    3    0    0  0.23849416223E+01 -0.58861654531E+02 -0.61850603376E+02  0.85415920405E+02  0.00000000000E+00 0. -1.
        -13    1    4    4    0    0 -0.34594056152E+02  0.75073883851E+01 -0.10198625274E+03  0.10795510803E+03  0.00000000000E+00 0.  1.
         13    1    4    4    0    0  0.28746695910E+02  0.53670720601E+02 -0.45492636581E+02  0.76003281236E+02  0.00000000000E+00 0. -1.
         -2    1    1    2    0  502 -0.46007084652E+02  0.36975078872E+02 -0.19541726802E+03  0.20413651544E+03  0.00000000000E+00 0.  1.
<scales pt_clust_5="13000.00000" pt_clust_6="13000.00000" pt_clust_7="13000.00000" pt_clust_8="13000.00000" pt_clust_9="59.02382"></scales>
<clustering>
<clus scale="   59.024">  1  9  2 -1</clus>
<clus scale="   81.160">  5  6 -1 -1</clus>
<clus scale="   91.180">  7  8 -1 -1</clus>
<clus scale="  118.273">  2  5  1 -1</clus>
<clus scale="   59.024">  1  5  2 -1</clus>
</clustering>
</event>
<event>
 9    2  0.9254368E-005  0.1030449E+03  0.7546771E-02  0.1279189E+00
          2   -1    0    0  502    0 -0.00000000000E+00  0.00000000000E+00  0.74138796997E+03  0.74138796997E+03  0.00000000000E+00 0. -1.
         21   -1    0    0  501  502  0.00000000000E+00 -0.00000000000E+00 -0.62044414633E+02  0.62044414633E+02  0.00000000000E+00 0. -1.
         24    2    1    2    0    0 -0.17747894247E+01 -0.42962560019E+02  0.57590739964E+03  0.58333779980E+03  0.82247943855E+02 0.  0.
         23    2    1    2    0    0  0.69840065746E+02  0.47422476717E+02  0.73542321927E+02  0.14562033426E+03  0.93114352023E+02 0.  0.
        -13    1    3    3    0    0 -0.26235434483E+02  0.13261725988E+02  0.13325532320E+03  0.13645934398E+03  0.00000000000E+00 0.  1.
         14    1    3    3    0    0  0.24460645058E+02 -0.56224286007E+02  0.44265207644E+03  0.44687845581E+03  0.00000000000E+00 0. -1.
        -11    1    4    4    0    0  0.16960390550E+01 -0.24692979662E+02  0.24941476343E+02  0.35138256007E+02  0.00000000000E+00 0.  1.
         11    1    4    4    0    0  0.68144026691E+02  0.72115456379E+02  0.48600845585E+02  0.11048207825E+03  0.00000000000E+00 0. -1.
          1    1    1    2  501    0 -0.68065276322E+02 -0.44599166979E+01  0.29893833766E+02  0.74474250550E+02  0.00000000000E+00 0. -1.
<scales pt_clust_5="13000.00000" pt_clust_6="13000.00000" pt_clust_7="13000.00000" pt_clust_8="13000.00000" pt_clust_9="68.21124"></scales>
<clustering>
<clus scale="   68.211">  2  9  1 -1</clus>
<clus scale="   82.248">  5  6 -1 -1</clus>
<clus scale="   93.114">  7  8 -1 -1</clus>
<clus scale="   93.342">  1  5  2 -1</clus>
<clus scale="   68.211">  2  5  1 -1</clus>
</clustering>
</event>
<event>
 9    2  0.9254368E-005  0.2633243E+03  0.7546771E-02  0.1143870E+00
         21   -1    0    0  501  502  0.00000000000E+00  0.00000000000E+00  0.75897901164E+02  0.75897901164E+02  0.00000000000E+00 0. -1.
          2   -1    0    0  502    0 -0.00000000000E+00 -0.00000000000E+00 -0.15254990922E+04  0.15254990922E+04  0.00000000000E+00 0. -1.
         23    2    1    2    0    0 -0.42171572455E+02 -0.12327237802E+02 -0.78215184043E+02  0.12757189830E+03  0.90700451513E+02 0.  0.
         24    2    1    2    0    0 -0.30115133684E+02 -0.23587097340E+03 -0.92032181092E+03  0.95393411716E+03  0.80349404820E+02 0.  0.
        -13    1    4    4    0    0 -0.29035420731E+02 -0.28317454406E+02 -0.21129288492E+03  0.21515021984E+03  0.00000000000E+00 0.  1.
         14    1    4    4    0    0 -0.10797129529E+01 -0.20755351900E+03 -0.70902892600E+03  0.73878389731E+03  0.00000000000E+00 0. -1.
        -13    1    3    3    0    0 -0.68025441676E+02 -0.10143826798E+02 -0.74445977892E+02  0.10135364602E+03  0.00000000000E+00 0.  1.
         13    1    3    3    0    0  0.25853869221E+02 -0.21834110033E+01 -0.37692061504E+01  0.26218252274E+02  0.00000000000E+00 0. -1.
          1    1    1    2  501    0  0.72286706139E+02  0.24819821121E+03 -0.45106419606E+03  0.51989097790E+03  0.00000000000E+00 0. -1.
<scales pt_clust_5="13000.00000" pt_clust_6="13000.00000" pt_clust_7="13000.00000" pt_clust_8="13000.00000" pt_clust_9="250.76618"></scales>
<clustering>
<clus scale="   80.349">  5  6 -1 -1</clus>
<clus scale="   90.700">  7  8 -1 -1</clus>
<clus scale="  100.782">  2  7  1 -1</clus>
<clus scale="  250.766">  1  9  2 -1</clus>
<clus scale="  250.766">  1  5  2 -1</clus>
</clustering>
</event>
<event>
 9    2  0.9254368E-005  0.1228476E+03  0.7546771E-02  0.1241573E+00
         -3   -1    0    0    0  501 -0.00000000000E+00  0.00000000000E+00  0.90408774791E+02  0.90408774791E+02  0.00000000000E+00 0.  1.
         21   -1    0    0  501  502  0.00000000000E+00 -0.00000000000E+00 -0.69289771121E+03  0.69289771121E+03  0.00000000000E+00 0.  1.
         24    2    1    2    0    0  0.41878969806E+02  0.51413653862E+02 -0.11714684550E+03  0.16111335189E+03  0.88526362358E+02 0.  0.
         23    2    1    2    0    0 -0.37370033224E+02 -0.10121800258E+03 -0.53331700019E+03  0.55289381536E+03  0.98096610298E+02 0.  0.
        -11    1    3    3    0    0 -0.17962689204E+02  0.22836898924E+02 -0.31420677994E+01  0.29224215061E+02  0.00000000000E+00 0.  1.
         12    1    3    3    0    0  0.59841659010E+02  0.28576754938E+02 -0.11400477770E+03  0.13188913683E+03  0.00000000000E+00 0. -1.
        -11    1    4    4    0    0 -0.47026153012E+02 -0.29496629017E+02 -0.10766057238E+03  0.12112930709E+03  0.00000000000E+00 0. -1.
         11    1    4    4    0    0  0.96561197882E+01 -0.71721373562E+02 -0.42565642780E+03  0.43176450827E+03  0.00000000000E+00 0.  1.
         -4    1    1    2    0  502 -0.45089365824E+01  0.49804348718E+02  0.47974909261E+02  0.69299318748E+02  0.00000000000E+00 0.  1.
<scales pt_clust_5="13000.00000" pt_clust_6="13000.00000" pt_clust_7="13000.00000" pt_clust_8="13000.00000" pt_clust_9="50.00806"></scales>
<clustering>
<clus scale="   50.008">  2  9  1 -1</clus>
<clus scale="   88.526">  5  6 -1 -1</clus>
<clus scale="   98.097">  7  8 -1 -1</clus>
<clus scale="  115.349">  1  5  2 -1</clus>
<clus scale="   50.008">  2  5  1 -1</clus>
</clustering>
</event>
<event>
 9    2  0.9254368E-005  0.1487661E+03  0.7546771E-02  0.1203520E+00
         21   -1    0    0  501  502  0.00000000000E+00  0.00000000000E+00  0.13301635318E+03  0.13301635318E+03  0.00000000000E+00 0. -1.
          2   -1    0    0  502    0 -0.00000000000E+00 -0.00000000000E+00 -0.37899102357E+03  0.37899102357E+03  0.00000000000E+00 0. -1.
         23    2    1    2    0    0 -0.90318794581E+02  0.90661429404E+02 -0.25370790553E+03  0.29813617865E+03  0.90224720856E+02 0.  0.
         24    2    1    2    0    0  0.41448146867E+02 -0.63847729068E+02  0.68655822644E+02  0.13129470991E+03  0.82037780819E+02 0.  0.
        -13    1    4    4    0    0  0.18127505425E+01 -0.38095279033E+02 -0.10091443527E+02  0.39450900897E+02  0.00000000000E+00 0.  1.
         14    1    4    4    0    0  0.39635396325E+02 -0.25752450035E+02  0.78747266171E+02  0.91843809013E+02  0.00000000000E+00 0. -1.
        -13    1    3    3    0    0 -0.95793480628E+01  0.63838636276E+02 -0.15450001593E+03  0.16744369296E+03  0.00000000000E+00 0.  1.
         13    1    3    3    0    0 -0.80739446518E+02  0.26822793129E+02 -0.99207889600E+02  0.13069248568E+03  0.00000000000E+00 0. -1.
          1    1    1    2  501    0  0.48870647714E+02 -0.26813700336E+02 -0.60922587505E+02  0.82576488191E+02  0.00000000000E+00 0. -1.
<scales pt_clust_5="13000.00000" pt_clust_6="13000.00000" pt_clust_7="13000.00000" pt_clust_8="13000.00000" pt_clust_9="55.74332"></scales>
<clustering>
<clus scale="   55.743">  1  9  2 -1</clus>
<clus scale="   82.038">  5  6 -1 -1</clus>
<clus scale="   90.225">  7  8 -1 -1</clus>
<clus scale="  143.948">  1  5  2 -1</clus>
<clus scale="   55.743">  1  5  2 -1</clus>
</clustering>
</event>
<event>
 9    2  0.9254368E-005  0.1325144E+03  0.7546771E-02  0.1225650E+00
         21   -1    0    0  501  502  0.00000000000E+00  0.00000000000E+00  0.21233383422E+03  0.21233383422E+03  0.00000000000E+00 0. -1.
         -3   -1    0    0    0  501 -0.00000000000E+00 -0.00000000000E+00 -0.10356268784E+03  0.10356268784E+03  0.00000000000E+00 0.  1.
         24    2    1    2    0    0 -0.76784076415E+02 -0.53783800293E+02  0.14421925825E+02  0.12661205354E+03  0.83869712008E+02 0.  0.
         23    2    1    2    0    0  0.64982788665E+02  0.78365088564E+02  0.78008331384E+02  0.15749555875E+03  0.91409525388E+02 0.  0.
        -11    1    3    3    0    0 -0.40901022185E+02 -0.41922282508E+02 -0.32008314641E+02  0.66745064182E+02  0.00000000000E+00 0.  1.
         12    1    3    3    0    0 -0.35883054230E+02 -0.11861517785E+02  0.46430240467E+02  0.59866989358E+02  0.00000000000E+00 0. -1.
        -11    1    4    4    0    0  0.21829215243E+02  0.28583883383E+02  0.83966387364E+02  0.91344990198E+02  0.00000000000E+00 0.  1.
         11    1    4    4    0    0  0.43153573422E+02  0.49781205182E+02 -0.59580559798E+01  0.66150568550E+02  0.00000000000E+00 0. -1.
         -4    1    1    2    0  502  0.11801287751E+02 -0.24581288271E+02  0.16340889168E+02  0.31788909771E+02  0.00000000000E+00 0.  1.
<scales pt_clust_5="13000.00000" pt_clust_6="13000.00000" pt_clust_7="13000.00000" pt_clust_8="13000.00000" pt_clust_9="27.26738"></scales>
<clustering>
<clus scale="   27.267">  1  9  2 -1</clus>
<clus scale="   83.870">  5  6 -1 -1</clus>
<clus scale="   91.410">  7  8 -1 -1</clus>
<clus scale="  127.430">  2  5  1 -1</clus>
<clus scale="   27.267">  1  5  2 -1</clus>
</clustering>
</event>
<event>
 9    2  0.9254368E-005  0.2042130E+03  0.7546771E-02  0.1147345E+00
         21   -1    0    0  501  502  0.00000000000E+00  0.00000000000E+00  0.42111312184E+03  0.42111312184E+03  0.00000000000E+00 0.  1.
         -1   -1    0    0    0  501 -0.00000000000E+00 -0.00000000000E+00 -0.14574141397E+03  0.14574141397E+03  0.00000000000E+00 0.  1.
         24    2    1    2    0    0  0.15865633153E+03 -0.11136170762E+03  0.90697565556E+02  0.22875109607E+03  0.80794517747E+02 0.  0.
         23    2    1    2    0    0 -0.88098431375E+02  0.15261789063E+03  0.14926860802E+03  0.24903020150E+03  0.93173868503E+02 0.  0.
        -13    1    3    3    0    0  0.15629905772E+03 -0.74770587317E+02  0.77118808978E+02  0.18965059153E+03  0.00000000000E+00 0.  1.
         14    1    3    3    0    0  0.23572738105E+01 -0.36591120302E+02  0.13578756578E+02  0.39100504536E+02  0.00000000000E+00 0. -1.
        -11    1    4    4    0    0 -0.32079607682E+02  0.86095055053E+02  0.21312306403E+02  0.94316881510E+02  0.00000000000E+00 0.  1.
         11    1    4    4    0    0 -0.56018823694E+02  0.66522835573E+02  0.12795630161E+03  0.15471331999E+03  0.00000000000E+00 0. -1.
         -2    1    1    2    0  502 -0.70557900153E+02 -0.41256183006E+02  0.35405534302E+02  0.89073238234E+02  0.00000000000E+00 0.  1.
<scales pt_clust_5="13000.00000" pt_clust_6="13000.00000" pt_clust_7="13000.00000" pt_clust_8="13000.00000" pt_clust_9="81.73430"></scales>
<clustering>
<clus scale="   80.795">  5  6 -1 -1</clus>
<clus scale="   81.734">  1  9  2 -1</clus>
<clus scale="   93.174">  7  8 -1 -1</clus>
<clus scale="  198.870">  2  5  1 -1</clus>
<clus scale="   81.734">  1  5  2 -1</clus>
</clustering>
</event>
<event>
 9    2  0.9254368E-005  0.1526060E+03  0.7546771E-02  0.1213837E+00
          2   -1    0    0  502    0 -0.00000000000E+00  0.00000000000E+00  0.93275934233E+03  0.93275934233E+03  0.00000000000E+00 0. -1.
         21   -1    0    0  501  502  0.00000000000E+00 -0.00000000000E+00 -0.91896467664E+02  0.91896467664E+02  0.00000000000E+00 0.  1.
         24    2    1    2    0    0  0.34244749656E+02 -0.61307367149E+02  0.62394956155E+03  0.63304630942E+03  0.80642906481E+02 0.  0.
         23    2    1    2    0    0  0.79627840687E+02 -0.13672600471E+02  0.22460335201E+03  0.25505145769E+03  0.89872394660E+02 0.  0.
        -11    1    3    3    0    0  0.33558799634E+01  0.19759904701E+02  0.10507820487E+03  0.10697263624E+03  0.00000000000E+00 0.  1.
         12    1    3    3    0    0  0.30888869693E+02 -0.81067271850E+02  0.51887135668E+03  0.52607367319E+03  0.00000000000E+00 0. -1.
        -13    1    4    4    0    0  0.42459636151E+02 -0.49309860266E+02  0.15791851733E+03  0.17079971059E+03  0.00000000000E+00 0.  1.
         13    1    4    4    0    0  0.37168204536E+02  0.35637259795E+02  0.66684834681E+02  0.84251747107E+02  0.00000000000E+00 0. -1.
          1    1    1    2  501    0 -0.11387259034E+03  0.74979967620E+02 -0.76900388983E+01  0.13655804288E+03  0.00000000000E+00 0. -1.
<scales pt_clust_5="13000.00000" pt_clust_6="13000.00000" pt_clust_7="13000.00000" pt_clust_8="13000.00000" pt_clust_9="123.33506"></scales>
<clustering>
<clus scale="   80.643">  5  6 -1 -1</clus>
<clus scale="   89.872">  7  8 -1 -1</clus>
<clus scale="  106.933">  1  5  2 -1</clus>
<clus scale="  123.335">  2  9  1 -1</clus>
<clus scale="  123.335">  2  5  1 -1</clus>
</clustering>
</event>
<event>
 9    2  0.9254368E-005  0.9368080E+02  0.7546771E-02  0.1300581E+00
         -3   -1    0    0    0  501 -0.00000000000E+00  0.00000000000E+00  0.19533340246E+03  0.19533340246E+03  0.00000000000E+00 0.  1.
         21   -1    0    0  501  502  0.00000000000E+00 -0.00000000000E+00 -0.13070012105E+03  0.13070012105E+03  0.00000000000E+00 0.  1.
         23    2    1    2    0    0  0.11036454277E+01  0.22855566686E+02  0.11781834268E+03  0.15087196316E+03  0.91419868932E+02 0.  0.
         24    2    1    2    0    0 -0.22072980714E+02 -0.10830005281E+02  0.29258172805E+02  0.89247568498E+02  0.80650990788E+02 0.  0.
        -11    1    4    4    0    0 -0.47914036025E+02  0.10549129914E+02  0.26069982191E+02  0.55557924382E+02  0.00000000000E+00 0.  1.
         12    1    4    4    0    0  0.25841055312E+02 -0.21379135195E+02  0.31881906134E+01  0.33689644116E+02  0.00000000000E+00 0. -1.
        -13    1    3    3    0    0 -0.17836760548E+02  0.37829714002E+02  0.13729861003E+02  0.44019840657E+02  0.00000000000E+00 0.  1.
         13    1    3    3    0    0  0.18940405976E+02 -0.14974147317E+02  0.10408848168E+03  0.10685212251E+03  0.00000000000E+00 0. -1.
         -4    1    1    2    0  502  0.20969335286E+02 -0.12025561405E+02 -0.82443234080E+02  0.85913991847E+02  0.00000000000E+00 0.  1.
<scales pt_clust_5="13000.00000" pt_clust_6="13000.00000" pt_clust_7="13000.00000" pt_clust_8="13000.00000" pt_clust_9="24.17286"></scales>
<clustering>
<clus scale="   24.173">  2  9  1 -1</clus>
<clus scale="   80.651">  5  6 -1 -1</clus>
<clus scale="   83.205">  2  5  1 -1</clus>
<clus scale="   91.420">  7  8 -1 -1</clus>
<clus scale="   24.173">  2  5  1 -1</clus>
</clustering>
</event>
<event>
 9    2  0.9254368E-005  0.1022849E+03  0.7546771E-02  0.1281509E+00
          4   -1    0    0  502    0 -0.00000000000E+00  0.00000000000E+00  0.19169850349E+03  0.19169850349E+03  0.00000000000E+00 0. -1.
         21   -1    0    0  501  502  0.00000000000E+00 -0.00000000000E+00 -0.97540644118E+02  0.97540644118E+02  0.00000000000E+00 0. -1.
         23    2    1    2    0    0 -0.13973938540E+02 -0.24534336884E+02  0.16664983591E+02  0.97835736925E+02  0.92178658576E+02 0.  0.
         24    2    1    2    0    0  0.36951213094E+02  0.53914093580E+02 -0.24287114962E+01  0.10320712186E+03  0.79835391445E+02 0.  0.
        -13    1    4    4    0    0 -0.21699951053E+02  0.25438819426E+02 -0.15266386457E+02  0.36757094076E+02  0.00000000000E+00 0.  1.
         14    1    4    4    0    0  0.58651164147E+02  0.28475274155E+02  0.12837674961E+02  0.66450027783E+02  0.00000000000E+00 0. -1.
        -11    1    3    3    0    0 -0.16275634491E+02 -0.57977035192E+02  0.21553702001E+02  0.63959322680E+02  0.00000000000E+00 0.  1.
         11    1    3    3    0    0  0.23016959510E+01  0.33442698308E+02 -0.48887184100E+01  0.33876414245E+02  0.00000000000E+00 0. -1.
          3    1    1    2  501    0 -0.22977274554E+02 -0.29379756696E+02  0.79921587273E+02  0.88196288820E+02  0.00000000000E+00 0. -1.
<scales pt_clust_5="13000.00000" pt_clust_6="13000.00000" pt_clust_7="13000.00000" pt_clust_8="13000.00000" pt_clust_9="37.29781"></scales>
<clustering>
<clus scale="   37.298">  2  9  1 -1</clus>
<clus scale="   79.835">  5  6 -1 -1</clus>
<clus scale="   91.318">  2  5  1 -1</clus>
<clus scale="   92.179">  7  8 -1 -1</clus>
<clus scale="   37.298">  2  5  1 -1</clus>
</clustering>
</event>
<event>
 9    2  0.9254368E-005  0.9961343E+02  0.7546771E-02  0.1286353E+00
         21   -1    0    0  501  502  0.00000000000E+00  0.00000000000E+00  0.56824653208E+02  0.56824653208E+02  0.00000000000E+00 0. -1.
          2   -1    0    0  502    0 -0.00000000000E+00 -0.00000000000E+00 -0.49473055738E+03  0.49473055738E+03  0.00000000000E+00 0. -1.
         24    2    1    2    0    0  0.39841796290E+02  0.21050218702E+02 -0.39236478559E+03  0.40302124215E+03  0.80283972300E+02 0.  0.
         23    2    1    2    0    0 -0.22359143723E+02 -0.83013176419E+01 -0.69127802636E+02  0.11652601187E+03  0.90723840099E+02 0.  0.
        -13    1    3    3    0    0 -0.21550169206E+02 -0.94223224020E+01 -0.98167217007E+02  0.10094549246E+03  0.00000000000E+00 0.  1.
         14    1    3    3    0    0  0.61391965497E+02  0.30472541104E+02 -0.29419756859E+03  0.30207574969E+03  0.00000000000E+00 0. -1.
        -11    1    4    4    0    0 -0.45226819537E+02  0.98596379331E+01 -0.56236063714E+01  0.46629417905E+02  0.00000000000E+00 0.  1.
         11    1    4    4    0    0  0.22867675814E+02 -0.18160955575E+02 -0.63504196264E+02  0.69896593964E+02  0.00000000000E+00 0. -1.
          1    1    1    2  501    0 -0.17482652567E+02 -0.12748901060E+02  0.23586684058E+02  0.32007956571E+02  0.00000000000E+00 0. -1.
<scales pt_clust_5="13000.00000" pt_clust_6="13000.00000" pt_clust_7="13000.00000" pt_clust_8="13000.00000" pt_clust_9="21.63741"></scales>
<clustering>
<clus scale="   21.637">  1  9  2 -1</clus>
<clus scale="   80.284">  5  6 -1 -1</clus>
<clus scale="   90.208">  2  5  1 -1</clus>
<clus scale="   90.724">  7  8 -1 -1</clus>
<clus scale="   21.637">  1  5  2 -1</clus>
</clustering>
</event>
<event>
 9    2  0.9254368E-005  0.1141871E+03  0.7546771E-02  0.1273107E+00
          2   -1    0    0  502    0 -0.00000000000E+00  0.00000000000E+00  0.35189096471E+03  0.35189096471E+03  0.00000000000E+00 0. -1.
         21   -1    0    0  501  502  0.00000000000E+00 -0.00000000000E+00 -0.80300148308E+02  0.80300148308E+02  0.00000000000E+00 0. -1.
         23    2    1    2    0    0 -0.44229149364E+02 -0.60703380899E+02  0.48707047190E+02  0.13712656235E+03  0.10387588532E+03 0.  0.
         24    2    1    2    0    0 -0.15174329371E+02  0.36366070104E+02  0.10477491681E+02  0.73169294479E+02  0.60755382444E+02 0.  0.
        -11    1    4    4    0    0 -0.29231233946E+02  0.33516851754E+02  0.26416651707E+02  0.51727013029E+02  0.00000000000E+00 0.  1.
         12    1    4    4    0    0  0.14056904575E+02  0.28492183506E+01 -0.15939160026E+02  0.21442281450E+02  0.00000000000E+00 0. -1.
        -11    1    3    3    0    0  0.30325852239E+02 -0.34395230234E+02  0.33453501114E+01  0.45976956666E+02  0.00000000000E+00 0.  1.
         11    1    3    3    0    0 -0.74555001603E+02 -0.26308150665E+02  0.45361697078E+02  0.91149605689E+02  0.00000000000E+00 0. -1.
          1    1    1    2  501    0  0.59403478735E+02  0.24337310795E+02  0.21240627753E+03  0.22189525619E+03  0.00000000000E+00 0. -1.
<scales pt_clust_5="13000.00000" pt_clust_6="13000.00000" pt_clust_7="13000.00000" pt_clust_8="13000.00000" pt_clust_9="64.19565"></scales>
<clustering>
<clus scale="   60.755">  5  6 -1 -1</clus>
<clus scale="   64.196">  2  9  1 -1</clus>
<clus scale="   77.070">  2  5  1 -1</clus>
<clus scale="  103.876">  7  8 -1 -1</clus>
<clus scale="   64.196">  2  5  1 -1</clus>
</clustering>
</event>
<event>
 9    2  0.9254368E-005  0.1186810E+03  0.7546771E-02  0.1248139E+00
          2   -1    0    0  502    0 -0.00000000000E+00  0.00000000000E+00  0.82175939273E+02  0.82175939273E+02  0.00000000000E+00 0. -1.
         21   -1    0    0  501  502  0.00000000000E+00 -0.00000000000E+00 -0.80412136873E+03  0.80412136873E+03  0.00000000000E+00 0. -1.
         24    2    1    2    0    0  0.49072109296E+02 -0.32464967265E+02 -0.20909238667E+02  0.10272021589E+03  0.81561023046E+02 0.  0.
         23    2    1    2    0    0 -0.71348578219E+02  0.10922243508E+03 -0.12505380298E+03  0.20207587887E+03  0.90421497683E+02 0.  0.
        -11    1    3    3    0    0 -0.18995022815E+02 -0.13493637417E+02 -0.22007405139E+02  0.32050195373E+02  0.00000000000E+00 0.  1.
         12    1    3    3    0    0  0.68067132111E+02 -0.18971329848E+02  0.10981664723E+01  0.70670020515E+02  0.00000000000E+00 0. -1.
        -13    1    4    4    0    0  0.92922198860E+00  0.30092481945E+02 -0.80620937609E+02  0.86059029184E+02  0.00000000000E+00 0.  1.
         13    1    4    4    0    0 -0.72277800207E+02  0.79129953137E+02 -0.44432865366E+02  0.11601684969E+03  0.00000000000E+00 0. -1.
          1    1    1    2  501    0  0.22276468923E+02 -0.76757467817E+02 -0.57598238781E+03  0.58150121325E+03  0.00000000000E+00 0. -1.
<scales pt_clust_5="13000.00000" pt_clust_6="13000.00000" pt_clust_7="13000.00000" pt_clust_8="13000.00000" pt_clust_9="79.92465"></scales>
<clustering>
<clus scale="   79.925">  2  9  1 -1</clus>
<clus scale="   81.561">  5  6 -1 -1</clus>
<clus scale="   90.421">  7  8 -1 -1</clus>
<clus scale="  112.077">  1  5  2 -1</clus>
<clus scale="   79.925">  2  5  1 -1</clus>
</clustering>
</event>
<event>
 9    2  0.9254368E-005  0.1273026E+03  0.7546771E-02  0.1236346E+00
          4   -1    0    0  502    0 -0.00000000000E+00  0.00000000000E+00  0.23635915622E+02  0.23635915622E+02  0.00000000000E+00 0. -1.
         21   -1    0    0  501  502  0.00000000000E+00 -0.00000000000E+00 -0.11629040843E+04  0.11629040843E+04  0.00000000000E+00 0.  1.
         24    2    1    2    0    0 -0.33841203626E+02 -0.68555005437E+02 -0.21574835312E+03  0.24161391820E+03  0.77362250237E+02 0.  0.
         23    2    1    2    0    0  0.60151105312E+02  0.10138083813E+03 -0.80798698293E+03  0.82197250661E+03  0.94337729583E+02 0.  0.
        -11    1    3    3    0    0 -0.38183814143E+02 -0.86440652368E+01 -0.40378078462E+02  0.56241557114E+02  0.00000000000E+00 0.  1.
         12    1    3    3    0    0  0.43426105175E+01 -0.59910940200E+02 -0.17537027466E+03  0.18537236109E+03  0.00000000000E+00 0. -1.
        -11    1    4    4    0    0  0.32491231806E+02  0.11394665453E+03 -0.69210279531E+03  0.70217220074E+03  0.00000000000E+00 0.  1.
         11    1    4    4    0    0  0.27659873506E+02 -0.12565816403E+02 -0.11588418763E+03  0.11980030587E+03  0.00000000000E+00 0. -1.
          3    1    1    2  501    0 -0.26309901686E+02 -0.32825832691E+02 -0.11553283266E+03  0.12295357515E+03  0.00000000000E+00 0. -1.
<scales pt_clust_5="13000.00000" pt_clust_6="13000.00000" pt_clust_7="13000.00000" pt_clust_8="13000.00000" pt_clust_9="42.06837"></scales>
<clustering>
<clus scale="   42.068">  2  9  1 -1</clus>
<clus scale="   77.362">  5  6 -1 -1</clus>
<clus scale="   94.338">  7  8 -1 -1</clus>
<clus scale="  115.288">  1  5  2 -1</clus>
<clus scale="   42.068">  2  5  1 -1</clus>
</clustering>
</event>
<event>
 9    2  0.9254368E-005  0.9859271E+02  0.7546771E-02  0.1289867E+00
         -1   -1    0    0    0  501 -0.00000000000E+00  0.00000000000E+00  0.41270647803E+03  0.41270647803E+03  0.00000000000E+00 0.  1.
         21   -1    0    0  501  502  0.00000000000E+00 -0.00000000000E+00 -0.93285425295E+02  0.93285425295E+02  0.00000000000E+00 0.  1.
         23    2    1    2    0    0 -0.39417791418E+02  0.36626179835E+02  0.28124646973E+03  0.30060856086E+03  0.91491479361E+02 0.  0.
         24    2    1    2    0    0  0.60586378482E+01 -0.11415623274E+02  0.10165437772E+03  0.12936959618E+03  0.78967438593E+02 0.  0.
        -11    1    4    4    0    0  0.15379045478E+02  0.31962501438E+02  0.40879373690E+02  0.54122451268E+02  0.00000000000E+00 0.  1.
         12    1    4    4    0    0 -0.93204076302E+01 -0.43378124712E+02  0.60775004035E+02  0.75247144912E+02  0.00000000000E+00 0. -1.
        -11    1    3    3    0    0 -0.67467750395E+02  0.17478060566E+02  0.21729443028E+03  0.22819782947E+03  0.00000000000E+00 0.  1.
         11    1    3    3    0    0  0.28049958977E+02  0.19148119269E+02  0.63952039449E+02  0.72410731386E+02  0.00000000000E+00 0. -1.
         -2    1    1    2    0  502  0.33359153570E+02 -0.25210556561E+02 -0.63479794712E+02  0.76013746294E+02  0.00000000000E+00 0.  1.
<scales pt_clust_5="13000.00000" pt_clust_6="13000.00000" pt_clust_7="13000.00000" pt_clust_8="13000.00000" pt_clust_9="41.81394"></scales>
<clustering>
<clus scale="   41.814">  2  9  1 -1</clus>
<clus scale="   78.967">  5  6 -1 -1</clus>
<clus scale="   87.096">  2  5  1 -1</clus>
<clus scale="   91.491">  7  8 -1 -1</clus>
<clus scale="   41.814">  2  5  1 -1</clus>
</clustering>
</event>
<event>
 9    2  0.9254368E-005  0.1140353E+03  0.7546771E-02  0.1258880E+00
         -3   -1    0    0    0  501 -0.00000000000E+00  0.00000000000E+00  0.90682253890E+02  0.90682253890E+02  0.00000000000E+00 0.  1.
         21   -1    0    0  501  502  0.00000000000E+00 -0.00000000000E+00 -0.20627803073E+03  0.20627803073E+03  0.00000000000E+00 0. -1.
         24    2    1    2    0    0 -0.52947166830E+02 -0.44935733799E+02  0.19006636110E+02  0.10666397081E+03  0.78697698858E+02 0.  0.
         23    2    1    2    0    0  0.48505810812E+02  0.24781466109E+02 -0.89003088571E+02  0.14024415568E+03  0.93701327006E+02 0.  0.
        -13    1    3    3    0    0  0.10549684260E+01 -0.49427727014E+02  0.62630757444E+00  0.49442951139E+02  0.00000000000E+00 0.  1.
         14    1    3    3    0    0 -0.54002135256E+02  0.44919932143E+01  0.18380328535E+02  0.57221019672E+02  0.00000000000E+00 0. -1.
        -13    1    4    4    0    0  0.76024142895E+02  0.89716174794E+01 -0.65555316293E+02  0.10078521577E+03  0.00000000000E+00 0.  1.
         13    1    4    4    0    0 -0.27518332083E+02  0.15809848630E+02 -0.23447772278E+02  0.39458939914E+02  0.00000000000E+00 0. -1.
         -4    1    1    2    0  502  0.44413560177E+01  0.20154267690E+02 -0.45599324376E+02  0.50052158125E+02  0.00000000000E+00 0.  1.
<scales pt_clust_5="13000.00000" pt_clust_6="13000.00000" pt_clust_7="13000.00000" pt_clust_8="13000.00000" pt_clust_9="20.63783"></scales>
<clustering>
<clus scale="   20.638">  2  9  1 -1</clus>
<clus scale="   78.698">  5  6 -1 -1</clus>
<clus scale="   93.701">  7  8 -1 -1</clus>
<clus scale="  102.066">  1  5  2 -1</clus>
<clus scale="   20.638">  2  5  1 -1</clus>
</clustering>
</event>
<event>
 9    2  0.9254368E-005  0.1355487E+03  0.7546771E-02  0.1222203E+00
         21   -1    0    0  501  502  0.00000000000E+00  0.00000000000E+00  0.26620102519E+03  0.26620102519E+03  0.00000000000E+00 0. -1.
          2   -1    0    0  502    0 -0.00000000000E+00 -0.00000000000E+00 -0.27664079006E+03  0.27664079006E+03  0.00000000000E+00 0. -1.
         24    2    1    2    0    0  0.89152776535E+02 -0.56572076982E+02 -0.15324007544E+03  0.20293978017E+03  0.80953172864E+02 0.  0.
         23    2    1    2    0    0 -0.25624008006E+02  0.32646191331E+02  0.21688629240E+03  0.23941778189E+03  0.92514036007E+02 0.  0.
        -11    1    3    3    0    0  0.10337053565E+03 -0.46454751958E+02 -0.14383195042E+03  0.18311510473E+03  0.00000000000E+00 0.  1.
         12    1    3    3    0    0 -0.14217759113E+02 -0.10117325024E+02 -0.94081250243E+01  0.19824675441E+02  0.00000000000E+00 0. -1.
        -11    1    4    4    0    0 -0.45803275416E+02  0.52465549872E+01  0.45818881649E+02  0.64998740708E+02  0.00000000000E+00 0.  1.
         11    1    4    4    0    0  0.20179267410E+02  0.27399636343E+02  0.17106741075E+03  0.17441904118E+03  0.00000000000E+00 0. -1.
          1    1    1    2  501    0 -0.63528768529E+02  0.23925885651E+02 -0.74085981824E+02  0.10048425318E+03  0.00000000000E+00 0. -1.
<scales pt_clust_5="13000.00000" pt_clust_6="13000.00000" pt_clust_7="13000.00000" pt_clust_8="13000.00000" pt_clust_9="67.88488"></scales>
<clustering>
<clus scale="   67.885">  1  9  2 -1</clus>
<clus scale="   80.953">  5  6 -1 -1</clus>
<clus scale="   92.514">  7  8 -1 -1</clus>
<clus scale="  127.938">  2  5  1 -1</clus>
<clus scale="   67.885">  1  5  2 -1</clus>
</clustering>
</event>
<event>
 9    2  0.9254368E-005  0.1145911E+03  0.7546771E-02  0.1254154E+00
          2   -1    0    0  502    0 -0.00000000000E+00  0.00000000000E+00  0.54150846615E+03  0.54150846615E+03  0.00000000000E+00 0. -1.
         21   -1    0    0  501  502  0.00000000000E+00 -0.00000000000E+00 -0.17920396787E+03  0.17920396787E+03  0.00000000000E+00 0. -1.
         24    2    1    2    0    0  0.39028015830E+01 -0.59976279371E+02  0.34797080768E+03  0.36331578003E+03  0.85453420505E+02 0.  0.
         23    2    1    2    0    0  0.12500197028E+02  0.10447061010E+03  0.15546574871E+03  0.20851058461E+03  0.90756275661E+02 0.  0.
        -13    1    3    3    0    0  0.38982585422E+02 -0.64769210881E+01  0.10948477590E+03  0.11639806109E+03  0.00000000000E+00 0.  1.
         14    1    3    3    0    0 -0.35079783839E+02 -0.53499358283E+02  0.23848603178E+03  0.24691771894E+03  0.00000000000E+00 0. -1.
        -13    1    4    4    0    0  0.39705196011E+02  0.10025162213E+03  0.14071291548E+03  0.17727666207E+03  0.00000000000E+00 0.  1.
         13    1    4    4    0    0 -0.27204998983E+02  0.42189879682E+01  0.14752833228E+02  0.31233922542E+02  0.00000000000E+00 0. -1.
          1    1    1    2  501    0 -0.16402998611E+02 -0.44494330728E+02 -0.14113205810E+03  0.14888606938E+03  0.00000000000E+00 0. -1.
<scales pt_clust_5="13000.00000" pt_clust_6="13000.00000" pt_clust_7="13000.00000" pt_clust_8="13000.00000" pt_clust_9="47.42155"></scales>
<clustering>
<clus scale="   47.422">  2  9  1 -1</clus>
<clus scale="   85.453">  5  6 -1 -1</clus>
<clus scale="   90.756">  7  8 -1 -1</clus>
<clus scale="  110.439">  1  5  2 -1</clus>
<clus scale="   47.422">  2  5  1 -1</clus>
</clustering>
</event>
<event>
 9    2  0.9254368E-005  0.1180634E+03  0.7546771E-02  0.1257490E+00
         21   -1    0    0  501  502  0.00000000000E+00  0.00000000000E+00  0.36345430338E+02  0.36345430338E+02  0.00000000000E+00 0.  1.
          2   -1    0    0  502    0 -0.00000000000E+00 -0.00000000000E+00 -0.80636596998E+03  0.80636596998E+03  0.00000000000E+00 0. -1.
         24    2    1    2    0    0  0.43099118083E+02  0.22193791600E+02 -0.39481474239E+03  0.40597290972E+03  0.81149394694E+02 0.  0.
         23    2    1    2    0    0 -0.72464950270E+01  0.67562876121E+02 -0.12502343091E+03  0.16853542125E+03  0.90310996101E+02 0.  0.
        -13    1    3    3    0    0 -0.45164903227E+01  0.40462998388E+02 -0.22542051624E+03  0.22906781107E+03  0.00000000000E+00 0.  1.
         14    1    3    3    0    0  0.47615608406E+02 -0.18269206787E+02 -0.16939422614E+03  0.17690509866E+03  0.00000000000E+00 0. -1.
        -11    1    4    4    0    0 -0.26261766584E+02  0.39388604595E+02 -0.97226903125E+01  0.48328803658E+02  0.00000000000E+00 0.  1.
         11    1    4    4    0    0  0.19015271557E+02  0.28174271526E+02 -0.11530074060E+03  0.12020661759E+03  0.00000000000E+00 0. -1.
          1    1    1    2  501    0 -0.35852623056E+02 -0.89756667722E+02 -0.25018236634E+03  0.26820306935E+03  0.00000000000E+00 0. -1.
<scales pt_clust_5="13000.00000" pt_clust_6="13000.00000" pt_clust_7="13000.00000" pt_clust_8="13000.00000" pt_clust_9="76.04536"></scales>
<clustering>
<clus scale="   81.149">  5  6 -1 -1</clus>
<clus scale="   90.311">  7  8 -1 -1</clus>
<clus scale="   94.527">  2  5  1 -1</clus>
<clus scale="   76.045">  1  9  2 -1</clus>
<clus scale="   76.045">  1  5  2 -1</clus>
</clustering>
</event>
<event>
 9    2  0.9254368E-005  0.1988332E+03  0.7546771E-02  0.1169051E+00
         21   -1    0    0  501  502  0.00000000000E+00  0.00000000000E+00  0.33962968569E+03  0.33962968569E+03  0.00000000000E+00 0.  1.
         -3   -1    0    0    0  501 -0.00000000000E+00 -0.00000000000E+00 -0.21055042726E+03  0.21055042726E+03  0.00000000000E+00 0.  1.
         24    2    1    2    0    0  0.57451241241E+02  0.77799348805E+02 -0.63602359348E+00  0.12977746344E+03  0.86535551626E+02 0.  0.
         23    2    1    2    0    0 -0.16611517333E+03  0.72957241019E+02  0.15321881723E+02  0.20217971410E+03  0.87891222009E+02 0.  0.
        -13    1    3    3    0    0  0.64803020474E+00  0.55467629253E+02 -0.28862895901E+02  0.62531149021E+02  0.00000000000E+00 0.  1.
         14    1    3    3    0    0  0.56803211036E+02  0.22331719552E+02  0.28226872307E+02  0.67246314415E+02  0.00000000000E+00 0. -1.
        -13    1    4    4    0    0 -0.12722528473E+03  0.83638479758E+02 -0.13134940208E+02  0.15282079382E+03  0.00000000000E+00 0. -1.
         13    1    4    4    0    0 -0.38889888598E+02 -0.10681238739E+02  0.28456821931E+02  0.49358920274E+02  0.00000000000E+00 0.  1.
         -4    1    1    2    0  502  0.10866393208E+03 -0.15075658982E+03  0.11439340030E+03  0.21822293542E+03  0.00000000000E+00 0.  1.
<scales pt_clust_5="13000.00000" pt_clust_6="13000.00000" pt_clust_7="13000.00000" pt_clust_8="13000.00000" pt_clust_9="178.35290"></scales>
<clustering>
<clus scale="   86.536">  5  6 -1 -1</clus>
<clus scale="   87.891">  7  8 -1 -1</clus>
<clus scale="  129.776">  2  5  1 -1</clus>
<clus scale="  178.353">  1  9  2 -1</clus>
<clus scale="  178.353">  1  5  2 -1</clus>
</clustering>
</event>
<event>
 9    2  0.9254368E-005  0.1103011E+03  0.7546771E-02  0.1265290E+00
         21   -1    0    0  501  502  0.00000000000E+00  0.00000000000E+00  0.64678464862E+02  0.64678464862E+02  0.00000000000E+00 0. -1.
          2   -1    0    0  502    0 -0.00000000000E+00 -0.00000000000E+00 -0.50805639212E+03  0.50805639212E+03  0.00000000000E+00 0. -1.
         24    2    1    2    0    0 -0.67543112100E+02  0.24878230518E+02 -0.32350495196E+03  0.34019184433E+03  0.76772642658E+02 0.  0.
         23    2    1    2    0    0  0.21273523334E+02  0.22156371238E+02  0.31567890038E+00  0.95435605103E+02  0.90357000208E+02 0.  0.
        -11    1    3    3    0    0 -0.28772396514E+02 -0.22548990971E+02 -0.65459541438E+02  0.74975058254E+02  0.00000000000E+00 0.  1.
         12    1    3    3    0    0 -0.38770715586E+02  0.47427221489E+02 -0.25804541052E+03  0.26521678607E+03  0.00000000000E+00 0. -1.
        -13    1    4    4    0    0 -0.27401879153E+02  0.58109550213E+01  0.25826963067E+02  0.38100685041E+02  0.00000000000E+00 0. -1.
         13    1    4    4    0    0  0.48675402487E+02  0.16345416217E+02 -0.25511284167E+02  0.57334920061E+02  0.00000000000E+00 0.  1.
          1    1    1    2  501    0  0.46269588765E+02 -0.47034601756E+02 -0.12018865420E+03  0.13710740755E+03  0.00000000000E+00 0. -1.
<scales pt_clust_5="13000.00000" pt_clust_6="13000.00000" pt_clust_7="13000.00000" pt_clust_8="13000.00000" pt_clust_9="65.97828"></scales>
<clustering>
<clus scale="   65.978">  1  9  2 -1</clus>
<clus scale="   76.773">  5  6 -1 -1</clus>
<clus scale="   90.357">  7  8 -1 -1</clus>
<clus scale="   99.479">  2  5  1 -1</clus>
<clus scale="   65.978">  1  5  2 -1</clus>
</clustering>
</event>
<event>
 9    2  0.9254368E-005  0.9393313E+02  0.7546771E-02  0.1299291E+00
         -3   -1    0    0    0  501 -0.00000000000E+00  0.00000000000E+00  0.62784118334E+02  0.62784118334E+02  0.00000000000E+00 0.  1.
         21   -1    0    0  501  502  0.00000000000E+00 -0.00000000000E+00 -0.46418627576E+03  0.46418627576E+03  0.00000000000E+00 0. -1.
         24    2    1    2    0    0  0.21445305880E+02  0.88772205380E+01  0.59172549309E+01  0.83028884120E+02  0.79498902530E+02 0.  0.
         23    2    1    2    0    0 -0.74245121719E+02 -0.19571719784E+02 -0.32345885316E+03  0.34426811204E+03  0.89439996465E+02 0.  0.
        -11    1    3    3    0    0  0.49995507520E+02 -0.56184003072E+01  0.79982078594E+01  0.50942011377E+02  0.00000000000E+00 0.  1.
         12    1    3    3    0    0 -0.28550201639E+02  0.14495620845E+02 -0.20809529285E+01  0.32086872743E+02  0.00000000000E+00 0. -1.
        -13    1    4    4    0    0  0.14739167484E+02 -0.20839255518E+02 -0.42752246803E+02  0.49792290923E+02  0.00000000000E+00 0.  1.
         13    1    4    4    0    0 -0.88984289203E+02  0.12675357337E+01 -0.28070660636E+03  0.29447582112E+03  0.00000000000E+00 0. -1.
         -4    1    1    2    0  502  0.52799815838E+02  0.10694499246E+02 -0.83860559203E+02  0.99673397938E+02  0.00000000000E+00 0.  1.
<scales pt_clust_5="13000.00000" pt_clust_6="13000.00000" pt_clust_7="13000.00000" pt_clust_8="13000.00000" pt_clust_9="53.87200"></scales>
<clustering>
<clus scale="   53.872">  2  9  1 -1</clus>
<clus scale="   79.499">  5  6 -1 -1</clus>
<clus scale="   84.522">  1  5  2 -1</clus>
<clus scale="   89.440">  7  8 -1 -1</clus>
<clus scale="   53.872">  2  5  1 -1</clus>
</clustering>
</event>
<event>
 9    2  0.9254368E-005  0.1135196E+03  0.7546771E-02  0.1258049E+00
         21   -1    0    0  501  502  0.00000000000E+00  0.00000000000E+00  0.17048387901E+03  0.17048387901E+03  0.00000000000E+00 0.  1.
          2   -1    0    0  502    0 -0.00000000000E+00 -0.00000000000E+00 -0.31493281171E+03  0.31493281171E+03  0.00000000000E+00 0. -1.
         23    2    1    2    0    0  0.57242824816E+02  0.40238716703E+02 -0.28101522030E+03  0.30354028509E+03  0.90946442020E+02 0.  0.
         24    2    1    2    0    0 -0.35042702959E+02 -0.33507572711E+02  0.90669582255E+02  0.13045013538E+03  0.80283972344E+02 0.  0.
        -11    1    4    4    0    0 -0.23575509396E+01 -0.32110513633E+02  0.92239663326E+02  0.97697485242E+02  0.00000000000E+00 0.  1.
         12    1    4    4    0    0 -0.32685152020E+02 -0.13970590781E+01 -0.15700810709E+01  0.32752650140E+02  0.00000000000E+00 0. -1.
        -11    1    3    3    0    0  0.30204439325E+02  0.34533702009E+02 -0.26987269589E+03  0.27374469258E+03  0.00000000000E+00 0. -1.
         11    1    3    3    0    0  0.27038385491E+02  0.57050146943E+01 -0.11142524411E+02  0.29795592508E+02  0.00000000000E+00 0.  1.
          1    1    1    2  501    0 -0.22200121857E+02 -0.67311439915E+01  0.45896705343E+02  0.51426270244E+02  0.00000000000E+00 0. -1.
<scales pt_clust_5="13000.00000" pt_clust_6="13000.00000" pt_clust_7="13000.00000" pt_clust_8="13000.00000" pt_clust_9="23.19814"></scales>
<clustering>
<clus scale="   23.198">  1  9  2 -1</clus>
<clus scale="   80.284">  5  6 -1 -1</clus>
<clus scale="   90.946">  7  8 -1 -1</clus>
<clus scale="  105.171">  1  5  2 -1</clus>
<clus scale="   23.198">  1  5  2 -1</clus>
</clustering>
</event>
<event>
 9    2  0.9254368E-005  0.1082899E+03  0.7546771E-02  0.1268365E+00
         -1   -1    0    0    0  501 -0.00000000000E+00  0.00000000000E+00  0.86768944165E+02  0.86768944165E+02  0.00000000000E+00 0.  1.
         21   -1    0    0  501  502  0.00000000000E+00 -0.00000000000E+00 -0.22361103764E+03  0.22361103764E+03  0.00000000000E+00 0. -1.
         24    2    1    2    0    0 -0.24503714623E+02  0.59057303276E+02  0.18653374090E+02  0.10469909984E+03  0.80782151747E+02 0.  0.
         23    2    1    2    0    0  0.30869561812E+02 -0.27776842199E+02 -0.10237381397E+03  0.14370587623E+03  0.91904832667E+02 0.  0.
        -11    1    3    3    0    0 -0.76287673995E+01 -0.18937387422E+02 -0.58229434041E+01  0.21230388698E+02  0.00000000000E+00 0.  1.
         12    1    3    3    0    0 -0.16874947223E+02  0.77994690698E+02  0.24476317494E+02  0.83468711137E+02  0.00000000000E+00 0. -1.
        -13    1    4    4    0    0 -0.20020469512E+02 -0.11592686025E+02  0.51054381002E+01  0.23691244521E+02  0.00000000000E+00 0.  1.
         13    1    4    4    0    0  0.50890031324E+02 -0.16184156174E+02 -0.10747925207E+03  0.12001463171E+03  0.00000000000E+00 0. -1.
         -2    1    1    2    0  502 -0.63658471896E+01 -0.31280461077E+02 -0.53121653604E+02  0.61975005746E+02  0.00000000000E+00 0.  1.
<scales pt_clust_5="13000.00000" pt_clust_6="13000.00000" pt_clust_7="13000.00000" pt_clust_8="13000.00000" pt_clust_9="31.92164"></scales>
<clustering>
<clus scale="   31.922">  2  9  1 -1</clus>
<clus scale="   80.782">  5  6 -1 -1</clus>
<clus scale="   91.905">  7  8 -1 -1</clus>
<clus scale="   99.025">  1  5  2 -1</clus>
<clus scale="   31.922">  2  5  1 -1</clus>
</clustering>
</event>
<event>
 9    2  0.9254368E-005  0.1282072E+03  0.7546771E-02  0.1232455E+00
         -1   -1    0    0    0  501 -0.00000000000E+00  0.00000000000E+00  0.61151470759E+03  0.61151470759E+03  0.00000000000E+00 0.  1.
         21   -1    0    0  501  502  0.00000000000E+00 -0.00000000000E+00 -0.47413296539E+02  0.47413296539E+02  0.00000000000E+00 0. -1.
         23    2    1    2    0    0 -0.55532485432E+02 -0.80555388854E+02  0.30130579624E+03  0.32941756080E+03  0.90320091366E+02 0.  0.
         24    2    1    2    0    0  0.51346212378E+02  0.55613143321E+02  0.62576975836E+02  0.12770077090E+03  0.81623242689E+02 0.  0.
        -13    1    4    4    0    0  0.43222332478E+01 -0.20051011993E+02  0.21119317146E+02  0.29440623956E+02  0.00000000000E+00 0.  1.
         14    1    4    4    0    0  0.47023979130E+02  0.75664155314E+02  0.41457658691E+02  0.98260146940E+02  0.00000000000E+00 0. -1.
        -13    1    3    3    0    0  0.21262826136E+02 -0.14042748579E+02  0.10884624210E+03  0.11178913624E+03  0.00000000000E+00 0.  1.
         13    1    3    3    0    0 -0.76795311569E+02 -0.66512640275E+02  0.19245955414E+03  0.21762842456E+03  0.00000000000E+00 0. -1.
         -2    1    1    2    0  502  0.41862730545E+01  0.24942245533E+02  0.20021863897E+03  0.20180967243E+03  0.00000000000E+00 0.  1.
<scales pt_clust_5="13000.00000" pt_clust_6="13000.00000" pt_clust_7="13000.00000" pt_clust_8="13000.00000" pt_clust_9="25.29113"></scales>
<clustering>
<clus scale="   25.291">  2  9  1 -1</clus>
<clus scale="   81.623">  5  6 -1 -1</clus>
<clus scale="   90.320">  7  8 -1 -1</clus>
<clus scale="  122.236">  2  5  1 -1</clus>
<clus scale="   25.291">  2  5  1 -1</clus>
</clustering>
</event>
<event>
 9    2  0.9254368E-005  0.9678773E+02  0.7546771E-02  0.1293698E+00
         21   -1    0    0  501  502  0.00000000000E+00  0.00000000000E+00  0.33151597463E+03  0.33151597463E+03  0.00000000000E+00 0.  1.
         -1   -1    0    0    0  501 -0.00000000000E+00 -0.00000000000E+00 -0.11067014427E+03  0.11067014427E+03  0.00000000000E+00 0.  1.
         23    2    1    2    0    0  0.25020041073E+02  0.11430144766E+02 -0.76653367175E+02  0.12360194579E+03  0.92978769836E+02 0.  0.
         24    2    1    2    0    0 -0.73918413757E+01 -0.29995643818E+02  0.24843061421E+03  0.26323837787E+03  0.81377487917E+02 0.  0.
        -11    1    4    4    0    0 -0.37944876739E+02 -0.10301671237E+02  0.62881219129E+02  0.74161889270E+02  0.00000000000E+00 0.  1.
         12    1    4    4    0    0  0.30553035364E+02 -0.19693972581E+02  0.18554939508E+03  0.18907648860E+03  0.00000000000E+00 0. -1.
        -11    1    3    3    0    0 -0.20967037369E+02 -0.28922635459E+02 -0.30331645747E+02  0.46863036944E+02  0.00000000000E+00 0. -1.
         11    1    3    3    0    0  0.45987078442E+02  0.40352780225E+02 -0.46321721428E+02  0.76738908850E+02  0.00000000000E+00 0.  1.
         -2    1    1    2    0  502 -0.17628199698E+02  0.18565499052E+02  0.49068583324E+02  0.55345795224E+02  0.00000000000E+00 0.  1.
<scales pt_clust_5="13000.00000" pt_clust_6="13000.00000" pt_clust_7="13000.00000" pt_clust_8="13000.00000" pt_clust_9="25.60139"></scales>
<clustering>
<clus scale="   25.601">  1  9  2 -1</clus>
<clus scale="   81.377">  5  6 -1 -1</clus>
<clus scale="   85.704">  1  5  2 -1</clus>
<clus scale="   92.979">  7  8 -1 -1</clus>
<clus scale="   25.601">  1  5  2 -1</clus>
</clustering>
</event>
<event>
 9    2  0.9254368E-005  0.1191703E+03  0.7546771E-02  0.1248819E+00
         21   -1    0    0  501  502  0.00000000000E+00  0.00000000000E+00  0.31847310703E+03  0.31847310703E+03  0.00000000000E+00 0. -1.
         -1   -1    0    0    0  501 -0.00000000000E+00 -0.00000000000E+00 -0.52684351326E+02  0.52684351326E+02  0.00000000000E+00 0.  1.
         23    2    1    2    0    0  0.76932971860E+02  0.27600323270E+02  0.81820150437E+02  0.14884266235E+03  0.93697071002E+02 0.  0.
         24    2    1    2    0    0 -0.56056381918E+02 -0.24089322691E+02  0.16679194087E+03  0.19505315753E+03  0.80644710306E+02 0.  0.
        -13    1    4    4    0    0 -0.56490044714E+02  0.27507828633E+01  0.50886197793E+02  0.76079544452E+02  0.00000000000E+00 0.  1.
         14    1    4    4    0    0  0.43366279644E+00 -0.26840105555E+02  0.11590574308E+03  0.11897361308E+03  0.00000000000E+00 0. -1.
        -11    1    3    3    0    0  0.16377987886E+02 -0.25162891708E+02 -0.51468049553E+01  0.30461438041E+02  0.00000000000E+00 0. -1.
         11    1    3    3    0    0  0.60554983974E+02  0.52763214978E+02  0.86966955392E+02  0.11838122431E+03  0.00000000000E+00 0.  1.
         -2    1    1    2    0  502 -0.20876589942E+02 -0.35110005791E+01  0.17176664392E+02  0.27261638474E+02  0.00000000000E+00 0.  1.
<scales pt_clust_5="13000.00000" pt_clust_6="13000.00000" pt_clust_7="13000.00000" pt_clust_8="13000.00000" pt_clust_9="21.16978"></scales>
<clustering>
<clus scale="   21.170">  1  9  2 -1</clus>
<clus scale="   80.645">  5  6 -1 -1</clus>
<clus scale="   93.697">  7  8 -1 -1</clus>
<clus scale="  109.206">  1  5  2 -1</clus>
<clus scale="   21.170">  1  5  2 -1</clus>
</clustering>
</event>
<event>
 9    2  0.9254368E-005  0.1509993E+03  0.7546771E-02  0.1201282E+00
          2   -1    0    0  502    0 -0.00000000000E+00  0.00000000000E+00  0.57320742125E+03  0.57320742125E+03  0.00000000000E+00 0. -1.
         21   -1    0    0  501  502  0.00000000000E+00 -0.00000000000E+00 -0.49478833544E+03  0.49478833544E+03  0.00000000000E+00 0. -1.
         24    2    1    2    0    0  0.80535199002E+02  0.75277231686E+02  0.24673960455E+03  0.28164200774E+03  0.79304528140E+02 0.  0.
         23    2    1    2    0    0 -0.46410185006E+02 -0.13606113838E+03  0.28277049644E+03  0.32990845773E+03  0.90630558718E+02 0.  0.
        -13    1    3    3    0    0  0.43481528089E+02  0.12534697751E+02  0.33518937032E+02  0.56314128533E+02  0.00000000000E+00 0.  1.
         14    1    3    3    0    0  0.37053670913E+02  0.62742533935E+02  0.21322066752E+03  0.22532787921E+03  0.00000000000E+00 0. -1.
        -13    1    4    4    0    0 -0.49186081629E+02 -0.26746413764E+02  0.13440249772E+03  0.14559763964E+03  0.00000000000E+00 0.  1.
         13    1    4    4    0    0  0.27758966231E+01 -0.10931472462E+03  0.14836799872E+03  0.18431081809E+03  0.00000000000E+00 0. -1.
          1    1    1    2  501    0 -0.34125013996E+02  0.60783906694E+02 -0.45109101518E+03  0.45644529121E+03  0.00000000000E+00 0. -1.
<scales pt_clust_5="13000.00000" pt_clust_6="13000.00000" pt_clust_7="13000.00000" pt_clust_8="13000.00000" pt_clust_9="69.70796"></scales>
<clustering>
<clus scale="   69.708">  2  9  1 -1</clus>
<clus scale="   79.305">  5  6 -1 -1</clus>
<clus scale="   90.631">  7  8 -1 -1</clus>
<clus scale="  144.486">  1  5  2 -1</clus>
<clus scale="   69.708">  2  5  1 -1</clus>
</clustering>
</event>
<event>
 9    2  0.9254368E-005  0.1056244E+03  0.7546771E-02  0.1272374E+00
         -3   -1    0    0    0  501 -0.00000000000E+00  0.00000000000E+00  0.44941288386E+02  0.44941288386E+02  0.00000000000E+00 0.  1.
         21   -1    0    0  501  502  0.00000000000E+00 -0.00000000000E+00 -0.35593493282E+03  0.35593493282E+03  0.00000000000E+00 0.  1.
         23    2    1    2    0    0  0.32108551499E+02 -0.46582708025E+02 -0.64593153304E+02  0.12424770375E+03  0.89801495908E+02 0.  0.
         24    2    1    2    0    0 -0.85061736742E+01  0.56867047064E+02 -0.20129331867E+03  0.22469108513E+03  0.81614138276E+02 0.  0.
        -13    1    4    4    0    0  0.15851556782E+01  0.42193140392E+02 -0.28405770037E+02  0.50888717670E+02  0.00000000000E+00 0.  1.
         14    1    4    4    0    0 -0.10091329352E+02  0.14673906672E+02 -0.17288754863E+03  0.17380236747E+03  0.00000000000E+00 0. -1.
        -11    1    3    3    0    0 -0.25121614520E+02  0.83173167751E+01 -0.11779000986E+02  0.28965809822E+02  0.00000000000E+00 0. -1.
         11    1    3    3    0    0  0.57230166019E+02 -0.54900024800E+02 -0.52814152318E+02  0.95281893929E+02  0.00000000000E+00 0.  1.
         -4    1    1    2    0  502 -0.23602377825E+02 -0.10284339040E+02 -0.45107172461E+02  0.51937432319E+02  0.00000000000E+00 0.  1.
<scales pt_clust_5="13000.00000" pt_clust_6="13000.00000" pt_clust_7="13000.00000" pt_clust_8="13000.00000" pt_clust_9="25.74568"></scales>
<clustering>
<clus scale="   25.746">  2  9  1 -1</clus>
<clus scale="   81.614">  5  6 -1 -1</clus>
<clus scale="   89.801">  7  8 -1 -1</clus>
<clus scale="   98.758">  2  5  1 -1</clus>
<clus scale="   25.746">  2  5  1 -1</clus>
</clustering>
</event>
<event>
 9    2  0.9254368E-005  0.8181571E+02  0.7546771E-02  0.1324708E+00
          4   -1    0    0  502    0 -0.00000000000E+00  0.00000000000E+00  0.14836169425E+03  0.14836169425E+03  0.00000000000E+00 0. -1.
         21   -1    0    0  501  502  0.00000000000E+00 -0.00000000000E+00 -0.14045715418E+03  0.14045715418E+03  0.00000000000E+00 0.  1.
         23    2    1    2    0    0  0.80512595149E+01 -0.76761072943E+00  0.80106753753E+02  0.11429729589E+03  0.81125630008E+02 0.  0.
         24    2    1    2    0    0  0.26341830820E+02  0.41823881732E+02 -0.13491575741E+02  0.95051803210E+02  0.80060561723E+02 0.  0.
        -13    1    4    4    0    0  0.37575568862E+01  0.27627697938E+02 -0.45513304499E+02  0.53374805044E+02  0.00000000000E+00 0.  1.
         14    1    4    4    0    0  0.22584273934E+02  0.14196183794E+02  0.32021728758E+02  0.41676998166E+02  0.00000000000E+00 0. -1.
        -11    1    3    3    0    0 -0.30509892900E+02  0.20525844013E+02  0.43985236327E+02  0.57331185684E+02  0.00000000000E+00 0. -1.
         11    1    3    3    0    0  0.38561152415E+02 -0.21293454742E+02  0.36121517426E+02  0.56966110202E+02  0.00000000000E+00 0.  1.
          3    1    1    2  501    0 -0.34393090335E+02 -0.41056271003E+02 -0.58710637944E+02  0.79469749334E+02  0.00000000000E+00 0. -1.
<scales pt_clust_5="13000.00000" pt_clust_6="13000.00000" pt_clust_7="13000.00000" pt_clust_8="13000.00000" pt_clust_9="53.55840"></scales>
<clustering>
<clus scale="   53.558">  2  9  1 -1</clus>
<clus scale="   80.061">  5  6 -1 -1</clus>
<clus scale="   80.760">  2  5  1 -1</clus>
<clus scale="   81.126">  7  8 -1 -1</clus>
<clus scale="   53.558">  2  5  1 -1</clus>
</clustering>
</event>
<event>
 9    2  0.9254368E-005  0.1457665E+03  0.7546771E-02  0.1207894E+00
         21   -1    0    0  501  502  0.00000000000E+00  0.00000000000E+00  0.23024456659E+03  0.23024456659E+03  0.00000000000E+00 0.  1.
         -1   -1    0    0    0  501 -0.00000000000E+00 -0.00000000000E+00 -0.36707946879E+03  0.36707946879E+03  0.00000000000E+00 0.  1.
         24    2    1    2    0    0  0.81353350770E+02  0.15868819593E+02 -0.12432422686E+03  0.16958749704E+03  0.80207347851E+02 0.  0.
         23    2    1    2    0    0 -0.18731543925E+03 -0.21093473183E+02 -0.14748556375E+03  0.25605811307E+03  0.91004161236E+02 0.  0.
        -11    1    3    3    0    0  0.48963398103E+02  0.12928927946E+02 -0.12722680096E+03  0.13693513214E+03  0.00000000000E+00 0.  1.
         12    1    3    3    0    0  0.32389952666E+02  0.29398916474E+01  0.29025741016E+01  0.32652364892E+02  0.00000000000E+00 0. -1.
        -11    1    4    4    0    0 -0.82932978728E+02 -0.33024702857E+02 -0.11601658805E+03  0.14638428421E+03  0.00000000000E+00 0. -1.
         11    1    4    4    0    0 -0.10438246052E+03  0.11931229674E+02 -0.31468975697E+02  0.10967382886E+03  0.00000000000E+00 0.  1.
         -2    1    1    2    0  502  0.10596208848E+03  0.52246535892E+01  0.13497488842E+03  0.17167842527E+03  0.00000000000E+00 0.  1.
<scales pt_clust_5="13000.00000" pt_clust_6="13000.00000" pt_clust_7="13000.00000" pt_clust_8="13000.00000" pt_clust_9="106.09082"></scales>
<clustering>
<clus scale="   80.207">  5  6 -1 -1</clus>
<clus scale="   91.004">  7  8 -1 -1</clus>
<clus scale="  106.091">  1  9  2 -1</clus>
<clus scale="  139.282">  2  5  1 -1</clus>
<clus scale="  106.091">  1  5  2 -1</clus>
</clustering>
</event>
<event>
 9    2  0.9254368E-005  0.2303120E+03  0.7546771E-02  0.1163072E+00
         -1   -1    0    0    0  501 -0.00000000000E+00  0.00000000000E+00  0.91519072918E+03  0.91519072918E+03  0.00000000000E+00 0.  1.
         21   -1    0    0  501  502  0.00000000000E+00 -0.00000000000E+00 -0.11720982914E+03  0.11720982914E+03  0.00000000000E+00 0.  1.
         24    2    1    2    0    0 -0.46058244778E+02  0.10025562443E+02 -0.23073219701E+02  0.98571472500E+02  0.83439126967E+02 0.  0.
         23    2    1    2    0    0 -0.64144331736E+02  0.18750516490E+03  0.39918575345E+03  0.45514765251E+03  0.92398255795E+02 0.  0.
        -11    1    3    3    0    0 -0.39811461906E+02  0.44802176600E+02 -0.93162434595E+01  0.60654595205E+02  0.00000000000E+00 0.  1.
         12    1    3    3    0    0 -0.62467828719E+01 -0.34776614157E+02 -0.13756976242E+02  0.37916877295E+02  0.00000000000E+00 0. -1.
        -13    1    4    4    0    0 -0.44458066044E+02  0.15154242086E+03  0.37652226305E+03  0.40830214245E+03  0.00000000000E+00 0.  1.
         13    1    4    4    0    0 -0.19686265692E+02  0.35962744041E+02  0.22663490391E+02  0.46845510058E+02  0.00000000000E+00 0. -1.
         -2    1    1    2    0  502  0.11020257651E+03 -0.19753072735E+03  0.42186836629E+03  0.47868143331E+03  0.00000000000E+00 0.  1.
<scales pt_clust_5="13000.00000" pt_clust_6="13000.00000" pt_clust_7="13000.00000" pt_clust_8="13000.00000" pt_clust_9="210.96500"></scales>
<clustering>
<clus scale="   83.439">  5  6 -1 -1</clus>
<clus scale="   92.398">  7  8 -1 -1</clus>
<clus scale="   95.833">  1  5  2 -1</clus>
<clus scale="  210.965">  2  9  1 -1</clus>
<clus scale="  210.965">  2  5  1 -1</clus>
</clustering>
</event>
<event>
 9    2  0.9254368E-005  0.1432636E+03  0.7546771E-02  0.1210057E+00
         -3   -1    0    0    0  501 -0.00000000000E+00  0.00000000000E+00  0.32096658337E+02  0.32096658337E+02  0.00000000000E+00 0.  1.
         21   -1    0    0  501  502  0.00000000000E+00 -0.00000000000E+00 -0.80966093800E+03  0.80966093800E+03  0.00000000000E+00 0. -1.
         24    2    1    2    0    0  0.98246114627E+02  0.42307651559E+02 -0.28333065849E+03  0.31335197471E+03  0.80442287366E+02 0.  0.
         23    2    1    2    0    0 -0.10768380426E+03 -0.61556427515E+02 -0.33085867725E+03  0.36363014510E+03  0.85874458635E+02 0.  0.
        -13    1    3    3    0    0  0.53369276905E+02  0.51388415481E+02 -0.10038971791E+03  0.12476836308E+03  0.00000000000E+00 0.  1.
         14    1    3    3    0    0  0.44876837722E+02 -0.90807639217E+01 -0.18294094058E+03  0.18858361164E+03  0.00000000000E+00 0. -1.
        -13    1    4    4    0    0 -0.78172999425E+02 -0.25548749813E+02 -0.10685529081E+03  0.13483994078E+03  0.00000000000E+00 0.  1.
         13    1    4    4    0    0 -0.29510804834E+02 -0.36007677702E+02 -0.22400338644E+03  0.22879020432E+03  0.00000000000E+00 0. -1.
         -4    1    1    2    0  502  0.94376896317E+01  0.19248775956E+02 -0.16337494392E+03  0.16477547652E+03  0.00000000000E+00 0.  1.
<scales pt_clust_5="13000.00000" pt_clust_6="13000.00000" pt_clust_7="13000.00000" pt_clust_8="13000.00000" pt_clust_9="21.43794"></scales>
<clustering>
<clus scale="   21.438">  2  9  1 -1</clus>
<clus scale="   80.442">  5  6 -1 -1</clus>
<clus scale="   85.874">  7  8 -1 -1</clus>
<clus scale="  140.075">  1  5  2 -1</clus>
<clus scale="   21.438">  2  5  1 -1</clus>
</clustering>
</event>
