<event>
 9    1  0.1487426E-004  0.2174567E+03  0.7546771E-02  0.1136408E+00
          1   -1    0    0  502    0 -0.00000000000E+00  0.00000000000E+00  0.79425936468E+03  0.79425936468E+03  0.00000000000E+00 0. -1.
         21   -1    0    0  501  502  0.00000000000E+00 -0.00000000000E+00 -0.76651562382E+02  0.76651562382E+02  0.00000000000E+00 0. -1.
         23    2    1    2    0    0 -0.19385067619E+03 -0.33692206930E+02  0.37804403451E+03  0.43534574076E+03  0.88855908646E+02 0.  0.
        -24    2    1    2    0    0  0.18596461696E+03  0.85679114761E+02  0.26843475179E+03  0.34711087362E+03  0.80653537730E+02 0.  0.
         13    1    4    4    0    0  0.14857224252E+03  0.68633051113E+02  0.15093923527E+03  0.22263615991E+03  0.00000000000E+00 0. -1.
        -14    1    4    4    0    0  0.37392374437E+02  0.17046063648E+02  0.11749551652E+03  0.12447471371E+03  0.00000000000E+00 0.  1.
        -13    1    3    3    0    0 -0.35844779439E+02  0.88481121519E+01  0.20721376924E+02  0.42338076991E+02  0.00000000000E+00 0.  1.
         13    1    3    3    0    0 -0.15800589675E+03 -0.42540319082E+02  0.35732265759E+03  0.39300766377E+03  0.00000000000E+00 0. -1.
          2    1    1    2  501    0  0.78860592254E+01 -0.51986907830E+02  0.71129015997E+02  0.88454312685E+02  0.00000000000E+00 0. -1.
<scales pt_clust_5="13000.00000" pt_clust_6="13000.00000" pt_clust_7="13000.00000" pt_clust_8="13000.00000" pt_clust_9="52.58164"></scales>
<clustering>
<clus scale="   52.582">  2  9  1 -1</clus>
<clus scale="   80.654">  5  6 -1 -1</clus>
<clus scale="   88.856">  7  8 -1 -1</clus>
<clus scale="  214.236">  2  5  1 -1</clus>
<clus scale="   52.582">  2  5  1 -1</clus>
</clustering>
</event>
<event>
 9    1  0.1487426E-004  0.2000985E+03  0.7546771E-02  0.1169039E+00
         -2   -1    0    0    0  501 -0.00000000000E+00  0.00000000000E+00  0.17187882438E+03  0.17187882438E+03  0.00000000000E+00 0.  1.
         21   -1    0    0  501  502  0.00000000000E+00 -0.00000000000E+00 -0.41236329968E+03  0.41236329968E+03  0.00000000000E+00 0. -1.
        -24    2    1    2    0    0 -0.35360809354E+02 -0.85239952566E+02 -0.12460107068E+03  0.17817787082E+03  0.87782062424E+02 0.  0.
         23    2    1    2    0    0  0.11506126003E+03 -0.10459602882E+03 -0.29511686270E+02  0.18279326230E+03  0.91449517818E+02 0.  0.
         13    1    3    3    0    0  0.23998939343E+02 -0.56428705145E+01 -0.43381465550E+02  0.49897320875E+02  0.00000000000E+00 0. -1.
        -14    1    3    3    0    0 -0.59359748697E+02 -0.79597082051E+02 -0.81219605125E+02  0.12828054994E+03  0.00000000000E+00 0.  1.
        -11    1    4    4    0    0  0.20965939339E+02 -0.29527481291E+02 -0.48922045120E+02  0.60867144359E+02  0.00000000000E+00 0.  1.
         11    1    4    4    0    0  0.94095320694E+02 -0.75068547530E+02  0.19410358849E+02  0.12192611794E+03  0.00000000000E+00 0. -1.
         -1    1    1    2    0  502 -0.79700450680E+02  0.18983598139E+03 -0.86371718358E+02  0.22327099095E+03  0.00000000000E+00 0.  1.
<scales pt_clust_5="13000.00000" pt_clust_6="13000.00000" pt_clust_7="13000.00000" pt_clust_8="13000.00000" pt_clust_9="177.97876"></scales>
<clustering>
<clus scale="   87.782">  5  6 -1 -1</clus>
<clus scale="   91.450">  7  8 -1 -1</clus>
<clus scale="  127.365">  1  5  2 -1</clus>
<clus scale="  177.979">  2  9  1 -1</clus>
<clus scale="  177.979">  2  5  1 -1</clus>
</clustering>
</event>
<event>
 9    1  0.1487426E-004  0.1399901E+03  0.7546771E-02  0.1215595E+00
         21   -1    0    0  501  502  0.00000000000E+00  0.00000000000E+00  0.16672565744E+03  0.16672565744E+03  0.00000000000E+00 0.  1.
         -2   -1    0    0    0  501 -0.00000000000E+00 -0.00000000000E+00 -0.53660545264E+03  0.53660545264E+03  0.00000000000E+00 0.  1.
         23    2    1    2    0    0  0.92169921234E+02 -0.87980393423E+00 -0.31713058171E+03  0.34242020343E+03  0.90463923359E+02 0.  0.
        -24    2    1    2    0    0 -0.14758426191E+03  0.38691823461E+01 -0.16517331135E+03  0.23553601556E+03  0.79993167884E+02 0.  0.
         13    1    4    4    0    0 -0.11839350434E+03 -0.24016865929E+02 -0.14955251501E+03  0.19224928209E+03  0.00000000000E+00 0. -1.
        -14    1    4    4    0    0 -0.29190757572E+02  0.27886048276E+02 -0.15620796336E+02  0.43286733467E+02  0.00000000000E+00 0.  1.
        -13    1    3    3    0    0  0.58491944962E+02  0.40463944093E+02 -0.13428497481E+03  0.15195753636E+03  0.00000000000E+00 0.  1.
         13    1    3    3    0    0  0.33677976272E+02 -0.41343748027E+02 -0.18284560689E+03  0.19046266707E+03  0.00000000000E+00 0. -1.
         -1    1    1    2    0  502  0.55414340673E+02 -0.29893784119E+01  0.11242409786E+03  0.12537489109E+03  0.00000000000E+00 0.  1.
<scales pt_clust_5="13000.00000" pt_clust_6="13000.00000" pt_clust_7="13000.00000" pt_clust_8="13000.00000" pt_clust_9="55.49491"></scales>
<clustering>
<clus scale="   55.495">  1  9  2 -1</clus>
<clus scale="   79.993">  5  6 -1 -1</clus>
<clus scale="   90.464">  7  8 -1 -1</clus>
<clus scale="  133.463">  1  5  2 -1</clus>
<clus scale="   55.495">  1  5  2 -1</clus>
</clustering>
</event>
<event>
 9    1  0.1487426E-004  0.2536483E+03  0.7546771E-02  0.1127261E+00
         21   -1    0    0  501  502  0.00000000000E+00  0.00000000000E+00  0.35612929366E+03  0.35612929366E+03  0.00000000000E+00 0. -1.
          1   -1    0    0  502    0 -0.00000000000E+00 -0.00000000000E+00 -0.35948568972E+03  0.35948568972E+03  0.00000000000E+00 0. -1.
        -24    2    1    2    0    0  0.61531802289E+02 -0.13968636683E+03  0.43596043307E+02  0.17440635365E+03  0.72239306693E+02 0.  0.
         23    2    1    2    0    0  0.12563373454E+03  0.21935506488E+03  0.94520260890E+02  0.29343339984E+03  0.11518941220E+03 0.  0.
         13    1    3    3    0    0  0.61588219211E+02 -0.14713863331E+03  0.35516345849E+02  0.16341449441E+03  0.00000000000E+00 0. -1.
        -14    1    3    3    0    0 -0.56416921933E-01  0.74522664872E+01  0.80796974578E+01  0.10991859246E+02  0.00000000000E+00 0.  1.
        -13    1    4    4    0    0  0.12051585659E+03  0.11414601297E+03  0.88054914094E+02  0.18790170798E+03  0.00000000000E+00 0. -1.
         13    1    4    4    0    0  0.51178779473E+01  0.10520905191E+03  0.64653467963E+01  0.10553169186E+03  0.00000000000E+00 0.  1.
          2    1    1    2  501    0 -0.18716553683E+03 -0.79668698048E+02 -0.14147270026E+03  0.24777522988E+03  0.00000000000E+00 0. -1.
<scales pt_clust_5="13000.00000" pt_clust_6="13000.00000" pt_clust_7="13000.00000" pt_clust_8="13000.00000" pt_clust_9="225.98433"></scales>
<clustering>
<clus scale="   72.239">  5  6 -1 -1</clus>
<clus scale="  115.189">  7  8 -1 -1</clus>
<clus scale="  168.870">  2  5  1 -1</clus>
<clus scale="  225.984">  1  9  2 -1</clus>
<clus scale="  225.984">  1  5  2 -1</clus>
</clustering>
</event>
<event>
 9    1  0.1487426E-004  0.1028776E+03  0.7546771E-02  0.1280647E+00
         21   -1    0    0  501  502  0.00000000000E+00  0.00000000000E+00  0.45879382789E+03  0.45879382789E+03  0.00000000000E+00 0.  1.
         -4   -1    0    0    0  501 -0.00000000000E+00 -0.00000000000E+00 -0.68570917139E+02  0.68570917139E+02  0.00000000000E+00 0.  1.
        -24    2    1    2    0    0  0.10085052603E+02  0.46453622275E+02 -0.56745359893E+01  0.94213710225E+02  0.81144165084E+02 0.  0.
         23    2    1    2    0    0  0.43084501569E+02 -0.79399793592E+01  0.29557662450E+03  0.31325704180E+03  0.94048475498E+02 0.  0.
         11    1    3    3    0    0 -0.26494594218E+02  0.29819786322E+02  0.21873859964E+02  0.45493394342E+02  0.00000000000E+00 0. -1.
        -12    1    3    3    0    0  0.36579646821E+02  0.16633835953E+02 -0.27548395953E+02  0.48720315883E+02  0.00000000000E+00 0.  1.
        -11    1    4    4    0    0  0.72219982406E+02  0.18491449097E+01  0.22395359345E+03  0.23531756674E+03  0.00000000000E+00 0.  1.
         11    1    4    4    0    0 -0.29135480837E+02 -0.97891242690E+01  0.71623031043E+02  0.77939475065E+02  0.00000000000E+00 0. -1.
         -3    1    1    2    0  502 -0.53169554173E+02 -0.38513642916E+02  0.10032082224E+03  0.11989399300E+03  0.00000000000E+00 0.  1.
<scales pt_clust_5="13000.00000" pt_clust_6="13000.00000" pt_clust_7="13000.00000" pt_clust_8="13000.00000" pt_clust_9="65.65289"></scales>
<clustering>
<clus scale="   65.653">  1  9  2 -1</clus>
<clus scale="   81.144">  5  6 -1 -1</clus>
<clus scale="   91.231">  2  5  1 -1</clus>
<clus scale="   94.048">  7  8 -1 -1</clus>
<clus scale="   65.653">  1  5  2 -1</clus>
</clustering>
</event>
<event>
 9    1  0.1487426E-004  0.1324177E+03  0.7546771E-02  0.1226277E+00
         21   -1    0    0  501  502  0.00000000000E+00  0.00000000000E+00  0.44908632067E+02  0.44908632067E+02  0.00000000000E+00 0.  1.
          1   -1    0    0  502    0 -0.00000000000E+00 -0.00000000000E+00 -0.63010752438E+03  0.63010752438E+03  0.00000000000E+00 0. -1.
        -24    2    1    2    0    0 -0.42037328172E+02  0.78917315539E+02 -0.27622469198E+03  0.30109867548E+03  0.79782531093E+02 0.  0.
         23    2    1    2    0    0  0.17294174878E+02 -0.10995180703E+03 -0.30137701918E+03  0.33350609076E+03  0.89497019675E+02 0.  0.
         13    1    3    3    0    0 -0.30495816268E+02  0.54418438164E+01 -0.16100865241E+03  0.16396156448E+03  0.00000000000E+00 0. -1.
        -14    1    3    3    0    0 -0.11541511904E+02  0.73475471723E+02 -0.11521603956E+03  0.13713711100E+03  0.00000000000E+00 0.  1.
        -13    1    4    4    0    0  0.41277913679E+02 -0.10184508656E+03 -0.19187948843E+03  0.22111993554E+03  0.00000000000E+00 0. -1.
         13    1    4    4    0    0 -0.23983738802E+02 -0.81067204616E+01 -0.10949753075E+03  0.11238615522E+03  0.00000000000E+00 0.  1.
          2    1    1    2  501    0  0.24743153295E+02  0.31034491486E+02 -0.75971811553E+01  0.40411390205E+02  0.00000000000E+00 0. -1.
<scales pt_clust_5="13000.00000" pt_clust_6="13000.00000" pt_clust_7="13000.00000" pt_clust_8="13000.00000" pt_clust_9="39.69085"></scales>
<clustering>
<clus scale="   39.691">  1  9  2 -1</clus>
<clus scale="   79.783">  5  6 -1 -1</clus>
<clus scale="   89.497">  7  8 -1 -1</clus>
<clus scale="  126.055">  2  5  1 -1</clus>
<clus scale="   39.691">  1  5  2 -1</clus>
</clustering>
</event>
<event>
 9    1  0.1487426E-004  0.1240968E+03  0.7546771E-02  0.1238244E+00
         21   -1    0    0  501  502  0.00000000000E+00  0.00000000000E+00  0.82894732979E+02  0.82894732979E+02  0.00000000000E+00 0. -1.
          1   -1    0    0  502    0 -0.00000000000E+00 -0.00000000000E+00 -0.54342560281E+03  0.54342560281E+03  0.00000000000E+00 0. -1.
        -24    2    1    2    0    0  0.73044531497E+02  0.54181544057E+02 -0.45833648561E+03  0.47442444711E+03  0.82067525091E+02 0.  0.
         23    2    1    2    0    0 -0.65075437615E+02 -0.13765714797E+02  0.11145657591E+01  0.11056920406E+03  0.88317603818E+02 0.  0.
         13    1    3    3    0    0  0.40082088545E+02  0.73910405973E+02 -0.31257713377E+03  0.32368779169E+03  0.00000000000E+00 0. -1.
        -14    1    3    3    0    0  0.32962442952E+02 -0.19728861916E+02 -0.14575935184E+03  0.15073665542E+03  0.00000000000E+00 0.  1.
        -13    1    4    4    0    0 -0.39481986050E+02 -0.49704598425E+02 -0.11869933624E+02  0.64577625005E+02  0.00000000000E+00 0.  1.
         13    1    4    4    0    0 -0.25593451565E+02  0.35938883628E+02  0.12984499383E+02  0.45991579051E+02  0.00000000000E+00 0. -1.
          2    1    1    2  501    0 -0.79690938821E+01 -0.40415829260E+02 -0.33089499790E+01  0.41326684624E+02  0.00000000000E+00 0. -1.
<scales pt_clust_5="13000.00000" pt_clust_6="13000.00000" pt_clust_7="13000.00000" pt_clust_8="13000.00000" pt_clust_9="41.19400"></scales>
<clustering>
<clus scale="   41.194">  1  9  2 -1</clus>
<clus scale="   82.068">  5  6 -1 -1</clus>
<clus scale="   88.318">  7  8 -1 -1</clus>
<clus scale="  119.729">  2  5  1 -1</clus>
<clus scale="   41.194">  1  5  2 -1</clus>
</clustering>
</event>
<event>
 9    1  0.1487426E-004  0.1396946E+03  0.7546771E-02  0.1216363E+00
          1   -1    0    0  502    0 -0.00000000000E+00  0.00000000000E+00  0.97396842581E+03  0.97396842581E+03  0.00000000000E+00 0. -1.
         21   -1    0    0  501  502  0.00000000000E+00 -0.00000000000E+00 -0.22460870369E+02  0.22460870369E+02  0.00000000000E+00 0. -1.
         23    2    1    2    0    0 -0.87790787427E+02 -0.47045902138E+02  0.42166819917E+03  0.44311836546E+03  0.92893898357E+02 0.  0.
        -24    2    1    2    0    0  0.85146094567E+02  0.69388922912E+02  0.44006676711E+03  0.46076190187E+03  0.81105429220E+02 0.  0.
         13    1    4    4    0    0  0.10030017899E+03  0.61248914698E+02  0.40494326502E+03  0.42165223033E+03  0.00000000000E+00 0. -1.
        -14    1    4    4    0    0 -0.15154084418E+02  0.81400082144E+01  0.35123502090E+02  0.39109671532E+02  0.00000000000E+00 0.  1.
        -13    1    3    3    0    0 -0.70073584852E+02  0.13728045254E+02  0.25584480999E+03  0.26562253917E+03  0.00000000000E+00 0.  1.
         13    1    3    3    0    0 -0.17717202575E+02 -0.60773947391E+02  0.16582338918E+03  0.17749582628E+03  0.00000000000E+00 0. -1.
          2    1    1    2  501    0  0.26446928603E+01 -0.22343020775E+02  0.89772589158E+02  0.92549028854E+02  0.00000000000E+00 0. -1.
<scales pt_clust_5="13000.00000" pt_clust_6="13000.00000" pt_clust_7="13000.00000" pt_clust_8="13000.00000" pt_clust_9="22.49901"></scales>
<clustering>
<clus scale="   22.499">  2  9  1 -1</clus>
<clus scale="   81.105">  5  6 -1 -1</clus>
<clus scale="   92.894">  7  8 -1 -1</clus>
<clus scale="  132.149">  2  5  1 -1</clus>
<clus scale="   22.499">  2  5  1 -1</clus>
</clustering>
</event>
<event>
 9    1  0.1487426E-004  0.9529364E+02  0.7546771E-02  0.1293347E+00
         21   -1    0    0  501  502  0.00000000000E+00  0.00000000000E+00  0.72968841657E+03  0.72968841657E+03  0.00000000000E+00 0.  1.
          3   -1    0    0  502    0 -0.00000000000E+00 -0.00000000000E+00 -0.20609332643E+02  0.20609332643E+02  0.00000000000E+00 0. -1.
         23    2    1    2    0    0  0.21149051118E+02 -0.44913079237E+02  0.18041132395E+03  0.20581475905E+03  0.85714655585E+02 0.  0.
        -24    2    1    2    0    0  0.17252878760E+02  0.31898235998E+02  0.40013608225E+03  0.40970730043E+03  0.80224861657E+02 0.  0.
         11    1    4    4    0    0  0.50184142014E+01  0.51523232931E+02  0.15359808001E+03  0.16208700810E+03  0.00000000000E+00 0. -1.
        -12    1    4    4    0    0  0.12234464558E+02 -0.19624996933E+02  0.24653800224E+03  0.24762029233E+03  0.00000000000E+00 0.  1.
        -11    1    3    3    0    0  0.45710846025E+02 -0.35780619765E+02  0.63635397176E+02  0.86134766319E+02  0.00000000000E+00 0. -1.
         11    1    3    3    0    0 -0.24561794907E+02 -0.91324594724E+01  0.11677592678E+03  0.11967999273E+03  0.00000000000E+00 0.  1.
          4    1    1    2  501    0 -0.38401929878E+02  0.13014843239E+02  0.12853167772E+03  0.13477568973E+03  0.00000000000E+00 0. -1.
<scales pt_clust_5="13000.00000" pt_clust_6="13000.00000" pt_clust_7="13000.00000" pt_clust_8="13000.00000" pt_clust_9="40.54743"></scales>
<clustering>
<clus scale="   40.547">  1  9  2 -1</clus>
<clus scale="   80.225">  5  6 -1 -1</clus>
<clus scale="   85.715">  7  8 -1 -1</clus>
<clus scale="   90.388">  1  5  2 -1</clus>
<clus scale="   40.547">  1  5  2 -1</clus>
</clustering>
</event>
<event>
 9    1  0.1487426E-004  0.9549323E+02  0.7546771E-02  0.1297944E+00
         21   -1    0    0  501  502  0.00000000000E+00  0.00000000000E+00  0.34315437115E+03  0.34315437115E+03  0.00000000000E+00 0. -1.
          3   -1    0    0  502    0 -0.00000000000E+00 -0.00000000000E+00 -0.63465041483E+02  0.63465041483E+02  0.00000000000E+00 0. -1.
         23    2    1    2    0    0 -0.28616735742E+02  0.43662075823E+02  0.37038087091E+02  0.11245342151E+03  0.92458951351E+02 0.  0.
        -24    2    1    2    0    0 -0.42733092277E+01  0.30797076181E+02  0.12016618860E+03  0.14709964955E+03  0.78940945916E+02 0.  0.
         13    1    4    4    0    0  0.26342588038E+01  0.35082611676E+02  0.99186396616E+01  0.36552816227E+02  0.00000000000E+00 0. -1.
        -14    1    4    4    0    0 -0.69075680315E+01 -0.42855354941E+01  0.11024754894E+03  0.11054683333E+03  0.00000000000E+00 0.  1.
        -13    1    3    3    0    0  0.30522283038E+02  0.24065064115E+02  0.31270359336E+02  0.49885593569E+02  0.00000000000E+00 0.  1.
         13    1    3    3    0    0 -0.59139018780E+02  0.19597011708E+02  0.57677277547E+01  0.62567827943E+02  0.00000000000E+00 0. -1.
          4    1    1    2  501    0  0.32890044969E+02 -0.74459152004E+02  0.12248505398E+03  0.14706634157E+03  0.00000000000E+00 0. -1.
<scales pt_clust_5="13000.00000" pt_clust_6="13000.00000" pt_clust_7="13000.00000" pt_clust_8="13000.00000" pt_clust_9="81.39976"></scales>
<clustering>
<clus scale="   78.941">  5  6 -1 -1</clus>
<clus scale="   81.400">  1  9  2 -1</clus>
<clus scale="   82.474">  1  5  2 -1</clus>
<clus scale="   92.459">  7  8 -1 -1</clus>
<clus scale="   81.400">  1  5  2 -1</clus>
</clustering>
</event>
<event>
 9    1  0.1487426E-004  0.3012653E+03  0.7546771E-02  0.1099772E+00
          1   -1    0    0  502    0 -0.00000000000E+00  0.00000000000E+00  0.67066228089E+03  0.67066228089E+03  0.00000000000E+00 0. -1.
         21   -1    0    0  501  502  0.00000000000E+00 -0.00000000000E+00 -0.31517752498E+03  0.31517752498E+03  0.00000000000E+00 0. -1.
        -24    2    1    2    0    0  0.16350797058E+03 -0.88364766019E+02  0.60477113965E+02  0.21096068379E+03  0.79396098608E+02 0.  0.
         23    2    1    2    0    0 -0.40882777255E+03  0.11804812992E+03  0.29835031626E+03  0.52774741468E+03  0.91809116616E+02 0.  0.
         11    1    3    3    0    0  0.10036425919E+03 -0.92697961717E+02  0.55524569059E+02  0.14747499584E+03  0.00000000000E+00 0. -1.
        -12    1    3    3    0    0  0.63143711391E+02  0.43331956976E+01  0.49525449065E+01  0.63485687948E+02  0.00000000000E+00 0.  1.
        -13    1    4    4    0    0 -0.19661624342E+03  0.10822089315E+02  0.12090890751E+03  0.23107147965E+03  0.00000000000E+00 0.  1.
         13    1    4    4    0    0 -0.21221152914E+03  0.10722604061E+03  0.17744140875E+03  0.29667593503E+03  0.00000000000E+00 0. -1.
          2    1    1    2  501    0  0.24531980197E+03 -0.29683363906E+02 -0.33426743196E+01  0.24713170740E+03  0.00000000000E+00 0. -1.
<scales pt_clust_5="13000.00000" pt_clust_6="13000.00000" pt_clust_7="13000.00000" pt_clust_8="13000.00000" pt_clust_9="286.93535"></scales>
<clustering>
<clus scale="   79.396">  5  6 -1 -1</clus>
<clus scale="   91.809">  7  8 -1 -1</clus>
<clus scale="  202.106">  1  5  2 -1</clus>
<clus scale="  286.935">  2  9  1 -1</clus>
<clus scale="  286.935">  2  5  1 -1</clus>
</clustering>
</event>
<event>
 9    1  0.1487426E-004  0.1008368E+03  0.7546771E-02  0.1283722E+00
         21   -1    0    0  501  502  0.00000000000E+00  0.00000000000E+00  0.22139894845E+03  0.22139894845E+03  0.00000000000E+00 0.  1.
         -2   -1    0    0    0  501 -0.00000000000E+00 -0.00000000000E+00 -0.15023775772E+03  0.15023775772E+03  0.00000000000E+00 0.  1.
         23    2    1    2    0    0  0.14860884832E+02  0.50656558931E+02 -0.10555458130E+03  0.14891707394E+03  0.90816256346E+02 0.  0.
        -24    2    1    2    0    0  0.43543491923E+01  0.59304770080E+00  0.95578062220E+02  0.12484688142E+03  0.80201407471E+02 0.  0.
         13    1    4    4    0    0 -0.39267792543E+01 -0.32524911258E+02  0.12563922541E+02  0.35087627410E+02  0.00000000000E+00 0. -1.
        -14    1    4    4    0    0  0.82811284466E+01  0.33117958959E+02  0.83014139679E+02  0.89759254011E+02  0.00000000000E+00 0.  1.
        -13    1    3    3    0    0  0.14868385696E+02  0.16290918782E+02 -0.11182905345E+03  0.11398333265E+03  0.00000000000E+00 0.  1.
         13    1    3    3    0    0 -0.75008646007E-02  0.34365640149E+02  0.62744721531E+01  0.34933741282E+02  0.00000000000E+00 0. -1.
         -1    1    1    2    0  502 -0.19215234024E+02 -0.51249606632E+02  0.81137709803E+02  0.97872750807E+02  0.00000000000E+00 0.  1.
<scales pt_clust_5="13000.00000" pt_clust_6="13000.00000" pt_clust_7="13000.00000" pt_clust_8="13000.00000" pt_clust_9="54.73342"></scales>
<clustering>
<clus scale="   54.733">  1  9  2 -1</clus>
<clus scale="   80.201">  5  6 -1 -1</clus>
<clus scale="   90.816">  7  8 -1 -1</clus>
<clus scale="   91.393">  1  5  2 -1</clus>
<clus scale="   54.733">  1  5  2 -1</clus>
</clustering>
</event>
<event>
 9    1  0.1487426E-004  0.9372393E+02  0.7546771E-02  0.1299920E+00
         21   -1    0    0  501  502  0.00000000000E+00  0.00000000000E+00  0.17904319547E+02  0.17904319547E+02  0.00000000000E+00 0. -1.
         -2   -1    0    0    0  501 -0.00000000000E+00 -0.00000000000E+00 -0.10624141691E+04  0.10624141691E+04  0.00000000000E+00 0.  1.
        -24    2    1    2    0    0 -0.21037443519E+02  0.65309438582E+01 -0.82398364496E+03  0.82830345309E+03  0.81561853660E+02 0.  0.
         23    2    1    2    0    0  0.15775855511E+02  0.18398147260E+02 -0.15351295404E+03  0.18032180268E+03  0.91445918563E+02 0.  0.
         11    1    3    3    0    0 -0.32296601612E+02  0.54787383875E+01 -0.12477713407E+03  0.12900550468E+03  0.00000000000E+00 0. -1.
        -12    1    3    3    0    0  0.11259158093E+02  0.10522054707E+01 -0.69920651089E+03  0.69929794841E+03  0.00000000000E+00 0.  1.
        -13    1    4    4    0    0 -0.14474161261E+01  0.52118988296E+02 -0.60322787135E+02  0.79732820107E+02  0.00000000000E+00 0.  1.
         13    1    4    4    0    0  0.17223271637E+02 -0.33720841036E+02 -0.93190166909E+02  0.10058898257E+03  0.00000000000E+00 0. -1.
         -1    1    1    2    0  502  0.52615880082E+01 -0.24929091118E+02 -0.67013250534E+02  0.71693232871E+02  0.00000000000E+00 0.  1.
<scales pt_clust_5="13000.00000" pt_clust_6="13000.00000" pt_clust_7="13000.00000" pt_clust_8="13000.00000" pt_clust_9="25.47830"></scales>
<clustering>
<clus scale="   25.478">  1  9  2 -1</clus>
<clus scale="   81.562">  5  6 -1 -1</clus>
<clus scale="   84.108">  2  5  1 -1</clus>
<clus scale="   91.446">  7  8 -1 -1</clus>
<clus scale="   25.478">  1  5  2 -1</clus>
</clustering>
</event>
<event>
 9    1  0.1487426E-004  0.1150133E+03  0.7546771E-02  0.1257487E+00
          1   -1    0    0  502    0 -0.00000000000E+00  0.00000000000E+00  0.18073103826E+03  0.18073103826E+03  0.00000000000E+00 0. -1.
         21   -1    0    0  501  502  0.00000000000E+00 -0.00000000000E+00 -0.94623427618E+02  0.94623427618E+02  0.00000000000E+00 0.  1.
        -24    2    1    2    0    0 -0.49470968585E+02  0.27184608436E+02  0.57430588349E+02  0.11420589532E+03  0.80983543877E+02 0.  0.
         23    2    1    2    0    0  0.69023016545E+02 -0.19728423126E+02  0.50859518384E+02  0.13065364620E+03  0.96593463357E+02 0.  0.
         13    1    3    3    0    0 -0.55153352295E+02 -0.71591816958E+01  0.56648520293E+02  0.79386403138E+02  0.00000000000E+00 0. -1.
        -14    1    3    3    0    0  0.56823837100E+01  0.34343790132E+02  0.78206805635E+00  0.34819492180E+02  0.00000000000E+00 0.  1.
        -11    1    4    4    0    0  0.13968842409E+02  0.24369462017E+02  0.53109327214E+02  0.60079945692E+02  0.00000000000E+00 0.  1.
         11    1    4    4    0    0  0.55054174135E+02 -0.44097885143E+02 -0.22498088293E+01  0.70573700509E+02  0.00000000000E+00 0. -1.
          2    1    1    2  501    0 -0.19552047960E+02 -0.74561853104E+01 -0.22182496092E+02  0.30494924359E+02  0.00000000000E+00 0. -1.
<scales pt_clust_5="13000.00000" pt_clust_6="13000.00000" pt_clust_7="13000.00000" pt_clust_8="13000.00000" pt_clust_9="20.92552"></scales>
<clustering>
<clus scale="   20.926">  2  9  1 -1</clus>
<clus scale="   80.984">  5  6 -1 -1</clus>
<clus scale="   96.593">  7  8 -1 -1</clus>
<clus scale="  102.255">  1  5  2 -1</clus>
<clus scale="   20.926">  2  5  1 -1</clus>
</clustering>
</event>
<event>
 9    1  0.1487426E-004  0.1229165E+03  0.7546771E-02  0.1241181E+00
         -4   -1    0    0    0  501 -0.00000000000E+00  0.00000000000E+00  0.48490190890E+03  0.48490190890E+03  0.00000000000E+00 0.  1.
         21   -1    0    0  501  502  0.00000000000E+00 -0.00000000000E+00 -0.62759021244E+02  0.62759021244E+02  0.00000000000E+00 0. -1.
         23    2    1    2    0    0  0.62371511111E+02  0.10413705403E+02  0.16607772659E+03  0.19926005726E+03  0.90133836552E+02 0.  0.
        -24    2    1    2    0    0 -0.93437802906E+02 -0.88500966403E+02  0.17419039331E+03  0.23107136930E+03  0.80552098181E+02 0.  0.
         13    1    4    4    0    0 -0.47252907881E+02 -0.54895862468E+02  0.34648962929E+02  0.80292861771E+02  0.00000000000E+00 0. -1.
        -14    1    4    4    0    0 -0.46184895026E+02 -0.33605103936E+02  0.13954143039E+03  0.15077850753E+03  0.00000000000E+00 0.  1.
        -13    1    3    3    0    0  0.84899244405E+02  0.16780414800E+02  0.13486831995E+03  0.16024645939E+03  0.00000000000E+00 0.  1.
         13    1    3    3    0    0 -0.22527733293E+02 -0.63667093962E+01  0.31209406644E+02  0.39013597872E+02  0.00000000000E+00 0. -1.
         -3    1    1    2    0  502  0.31066291795E+02  0.78087261000E+02  0.81874767748E+02  0.11732950358E+03  0.00000000000E+00 0.  1.
<scales pt_clust_5="13000.00000" pt_clust_6="13000.00000" pt_clust_7="13000.00000" pt_clust_8="13000.00000" pt_clust_9="84.04008"></scales>
<clustering>
<clus scale="   80.552">  5  6 -1 -1</clus>
<clus scale="   84.040">  2  9  1 -1</clus>
<clus scale="   90.134">  7  8 -1 -1</clus>
<clus scale="  116.073">  2  5  1 -1</clus>
<clus scale="   84.040">  2  5  1 -1</clus>
</clustering>
</event>
<event>
 9    1  0.1487426E-004  0.1679058E+03  0.7546771E-02  0.1181726E+00
         21   -1    0    0  501  502  0.00000000000E+00  0.00000000000E+00  0.59487887976E+03  0.59487887976E+03  0.00000000000E+00 0. -1.
          1   -1    0    0  502    0 -0.00000000000E+00 -0.00000000000E+00 -0.97923736383E+02  0.97923736383E+02  0.00000000000E+00 0. -1.
        -24    2    1    2    0    0  0.13180707611E+03 -0.71816323359E+02  0.21018168228E+02  0.17613724050E+03  0.89732237696E+02 0.  0.
         23    2    1    2    0    0 -0.72152420717E+02  0.33043929019E+02  0.33849364747E+03  0.36189895552E+03  0.10047403430E+03 0.  0.
         11    1    3    3    0    0  0.13752526735E+03 -0.51419215066E+02  0.34766314416E+02  0.15088350293E+03  0.00000000000E+00 0. -1.
        -12    1    3    3    0    0 -0.57181912393E+01 -0.20397108293E+02 -0.13748146189E+02  0.25253737573E+02  0.00000000000E+00 0.  1.
        -11    1    4    4    0    0  0.87811463589E+01  0.45286829233E+02  0.12690500281E+03  0.13502920118E+03  0.00000000000E+00 0.  1.
         11    1    4    4    0    0 -0.80933567076E+02 -0.12242900215E+02  0.21158864466E+03  0.22686975434E+03  0.00000000000E+00 0. -1.
          2    1    1    2  501    0 -0.59654655395E+02  0.38772394340E+02  0.13744332768E+03  0.15476642012E+03  0.00000000000E+00 0. -1.
<scales pt_clust_5="13000.00000" pt_clust_6="13000.00000" pt_clust_7="13000.00000" pt_clust_8="13000.00000" pt_clust_9="71.14757"></scales>
<clustering>
<clus scale="   71.148">  1  9  2 -1</clus>
<clus scale="   89.732">  5  6 -1 -1</clus>
<clus scale="  100.474">  7  8 -1 -1</clus>
<clus scale="  161.707">  2  5  1 -1</clus>
<clus scale="   71.148">  1  5  2 -1</clus>
</clustering>
</event>
<event>
 9    1  0.1704630E-004  0.1128275E+03  0.7546771E-02  0.1258090E+00
          3   -1    0    0  502    0 -0.00000000000E+00  0.00000000000E+00  0.22854903276E+03  0.22854903276E+03  0.00000000000E+00 0. -1.
         21   -1    0    0  501  502  0.00000000000E+00 -0.00000000000E+00 -0.18175891193E+03  0.18175891193E+03  0.00000000000E+00 0.  1.
         23    2    1    2    0    0 -0.18589140798E+02  0.62170395084E+02  0.16331458965E+03  0.19778462115E+03  0.90754542521E+02 0.  0.
        -24    2    1    2    0    0  0.37678936959E+02 -0.79080749084E+02 -0.13481608550E+03  0.18113919331E+03  0.83441975495E+02 0.  0.
         13    1    4    4    0    0  0.45418743305E+02 -0.60843524209E+01 -0.37319975522E+02  0.59098749232E+02  0.00000000000E+00 0. -1.
        -14    1    4    4    0    0 -0.77398063457E+01 -0.72996396664E+02 -0.97496109982E+02  0.12204044407E+03  0.00000000000E+00 0.  1.
        -13    1    3    3    0    0 -0.27535446068E+02 -0.12393233012E+02  0.20713542036E+02  0.36617534575E+02  0.00000000000E+00 0.  1.
         13    1    3    3    0    0  0.89463052708E+01  0.74563628096E+02  0.14260104761E+03  0.16116708657E+03  0.00000000000E+00 0. -1.
          4    1    1    2  501    0 -0.19089796161E+02  0.16910354000E+02  0.18291616684E+02  0.31384130238E+02  0.00000000000E+00 0. -1.
<scales pt_clust_5="13000.00000" pt_clust_6="13000.00000" pt_clust_7="13000.00000" pt_clust_8="13000.00000" pt_clust_9="25.50257"></scales>
<clustering>
<clus scale="   25.503">  2  9  1 -1</clus>
<clus scale="   83.442">  5  6 -1 -1</clus>
<clus scale="   90.755">  7  8 -1 -1</clus>
<clus scale="  107.034">  2  5  1 -1</clus>
<clus scale="   25.503">  2  5  1 -1</clus>
</clustering>
</event>
<event>
 9    1  0.1487426E-004  0.9177132E+02  0.7546771E-02  0.1303543E+00
         21   -1    0    0  501  502  0.00000000000E+00  0.00000000000E+00  0.98325027289E+02  0.98325027289E+02  0.00000000000E+00 0. -1.
          1   -1    0    0  502    0 -0.00000000000E+00 -0.00000000000E+00 -0.43176385708E+03  0.43176385708E+03  0.00000000000E+00 0. -1.
         23    2    1    2    0    0  0.23013145780E+02  0.31295794768E+02 -0.29855013053E+03  0.31380183040E+03  0.88489415610E+02 0.  0.
        -24    2    1    2    0    0  0.21379825967E+02 -0.68787453608E+01 -0.10232307500E+03  0.13194060607E+03  0.80211581181E+02 0.  0.
         11    1    4    4    0    0  0.21740473210E+02 -0.28713643764E+02 -0.10397924801E+03  0.11004001786E+03  0.00000000000E+00 0. -1.
        -12    1    4    4    0    0 -0.36064724285E+00  0.21834898403E+02  0.16561730117E+01  0.21900588206E+02  0.00000000000E+00 0.  1.
        -11    1    3    3    0    0  0.48229139386E+02  0.27576324174E+02 -0.26944746849E+03  0.27511532458E+03  0.00000000000E+00 0. -1.
         11    1    3    3    0    0 -0.25215993606E+02  0.37194705940E+01 -0.29102662031E+02  0.38686505817E+02  0.00000000000E+00 0.  1.
          2    1    1    2  501    0 -0.44392971748E+02 -0.24417049407E+02  0.67434375738E+02  0.84346447902E+02  0.00000000000E+00 0. -1.
<scales pt_clust_5="13000.00000" pt_clust_6="13000.00000" pt_clust_7="13000.00000" pt_clust_8="13000.00000" pt_clust_9="50.66486"></scales>
<clustering>
<clus scale="   50.665">  1  9  2 -1</clus>
<clus scale="   80.212">  5  6 -1 -1</clus>
<clus scale="   83.818">  1  5  2 -1</clus>
<clus scale="   88.489">  7  8 -1 -1</clus>
<clus scale="   50.665">  1  5  2 -1</clus>
</clustering>
</event>
<event>
 9    1  0.1487426E-004  0.1067174E+03  0.7546771E-02  0.1275197E+00
          1   -1    0    0  502    0 -0.00000000000E+00  0.00000000000E+00  0.16790260274E+03  0.16790260274E+03  0.00000000000E+00 0. -1.
         21   -1    0    0  501  502  0.00000000000E+00 -0.00000000000E+00 -0.25099246884E+03  0.25099246884E+03  0.00000000000E+00 0. -1.
        -24    2    1    2    0    0  0.33264823764E+02 -0.16757674946E+02  0.10269010093E+03  0.13592261668E+03  0.80884687840E+02 0.  0.
         23    2    1    2    0    0 -0.27887757043E+02  0.69268416760E+02 -0.43219452362E+02  0.13095340612E+03  0.98514125686E+02 0.  0.
         11    1    3    3    0    0  0.11644869715E+02  0.25637742071E+02  0.76684297148E+02  0.81690747568E+02  0.00000000000E+00 0. -1.
        -12    1    3    3    0    0  0.21619954048E+02 -0.42395417017E+02  0.26005803778E+02  0.54231869111E+02  0.00000000000E+00 0.  1.
        -13    1    4    4    0    0 -0.58094055485E+02  0.22316405512E+02 -0.32997774793E+01  0.62320380046E+02  0.00000000000E+00 0.  1.
         13    1    4    4    0    0  0.30206298442E+02  0.46952011248E+02 -0.39919674883E+02  0.68633026078E+02  0.00000000000E+00 0. -1.
          2    1    1    2  501    0 -0.53770667206E+01 -0.52510741814E+02 -0.14256051466E+03  0.15201904879E+03  0.00000000000E+00 0. -1.
<scales pt_clust_5="13000.00000" pt_clust_6="13000.00000" pt_clust_7="13000.00000" pt_clust_8="13000.00000" pt_clust_9="52.78533"></scales>
<clustering>
<clus scale="   52.785">  2  9  1 -1</clus>
<clus scale="   80.885">  5  6 -1 -1</clus>
<clus scale="   90.697">  1  5  2 -1</clus>
<clus scale="   98.514">  7  8 -1 -1</clus>
<clus scale="   52.785">  2  5  1 -1</clus>
</clustering>
</event>
<event>
 9    1  0.1487426E-004  0.1047145E+03  0.7546771E-02  0.1275339E+00
         21   -1    0    0  501  502  0.00000000000E+00  0.00000000000E+00  0.22446403147E+03  0.22446403147E+03  0.00000000000E+00 0. -1.
          1   -1    0    0  502    0 -0.00000000000E+00 -0.00000000000E+00 -0.24180872617E+03  0.24180872617E+03  0.00000000000E+00 0. -1.
        -24    2    1    2    0    0  0.63909499225E+01  0.53126181733E+02 -0.20169358608E+03  0.22434103444E+03  0.82373306609E+02 0.  0.
         23    2    1    2    0    0 -0.57679278964E+01  0.94335663302E+01  0.12215202985E+03  0.15371290537E+03  0.92651377305E+02 0.  0.
         11    1    3    3    0    0  0.57418338545E+01  0.75547049834E+02 -0.15317891857E+03  0.17089209019E+03  0.00000000000E+00 0. -1.
        -12    1    3    3    0    0  0.64911606796E+00 -0.22420868101E+02 -0.48514667512E+02  0.53448944254E+02  0.00000000000E+00 0.  1.
        -13    1    4    4    0    0  0.39033871950E+02  0.24274123666E+02  0.55960224793E+02  0.72418388535E+02  0.00000000000E+00 0. -1.
         13    1    4    4    0    0 -0.44801799847E+02 -0.14840557336E+02  0.66191805055E+02  0.81294516838E+02  0.00000000000E+00 0.  1.
          2    1    1    2  501    0 -0.62302202610E+00 -0.62559748063E+02  0.62196861532E+02  0.88218817826E+02  0.00000000000E+00 0. -1.
<scales pt_clust_5="13000.00000" pt_clust_6="13000.00000" pt_clust_7="13000.00000" pt_clust_8="13000.00000" pt_clust_9="62.56285"></scales>
<clustering>
<clus scale="   62.563">  1  9  2 -1</clus>
<clus scale="   82.373">  5  6 -1 -1</clus>
<clus scale="   92.651">  7  8 -1 -1</clus>
<clus scale="   95.740">  2  5  1 -1</clus>
<clus scale="   62.563">  1  5  2 -1</clus>
</clustering>
</event>
<event>
 9    1  0.1487426E-004  0.1984579E+03  0.7546771E-02  0.1152259E+00
         21   -1    0    0  501  502  0.00000000000E+00  0.00000000000E+00  0.59189528671E+03  0.59189528671E+03  0.00000000000E+00 0.  1.
          1   -1    0    0  502    0 -0.00000000000E+00 -0.00000000000E+00 -0.86484546579E+02  0.86484546579E+02  0.00000000000E+00 0. -1.
         23    2    1    2    0    0  0.10600305893E+03 -0.14355980349E+03  0.17832842831E+03  0.26842602407E+03  0.91681166964E+02 0.  0.
        -24    2    1    2    0    0 -0.12526444212E+03  0.12176283636E+03  0.19019171926E+03  0.27000688003E+03  0.78825480702E+02 0.  0.
         11    1    4    4    0    0 -0.29355816327E+02  0.66599769597E+02  0.38753005127E+02  0.82456586571E+02  0.00000000000E+00 0. -1.
        -12    1    4    4    0    0 -0.95908625796E+02  0.55163066760E+02  0.15143871413E+03  0.18755029345E+03  0.00000000000E+00 0.  1.
        -13    1    3    3    0    0  0.38845161183E+02 -0.14521222488E+02  0.44302926857E+01  0.41706593521E+02  0.00000000000E+00 0. -1.
         13    1    3    3    0    0  0.67157897752E+02 -0.12903858100E+03  0.17389813562E+03  0.22671943055E+03  0.00000000000E+00 0.  1.
          2    1    1    2  501    0  0.19261383187E+02  0.21796967129E+02  0.13689059256E+03  0.13994692919E+03  0.00000000000E+00 0. -1.
<scales pt_clust_5="13000.00000" pt_clust_6="13000.00000" pt_clust_7="13000.00000" pt_clust_8="13000.00000" pt_clust_9="29.08795"></scales>
<clustering>
<clus scale="   29.088">  1  9  2 -1</clus>
<clus scale="   78.825">  5  6 -1 -1</clus>
<clus scale="   91.681">  7  8 -1 -1</clus>
<clus scale="  192.856">  1  5  2 -1</clus>
<clus scale="   29.088">  1  5  2 -1</clus>
</clustering>
</event>
<event>
 9    1  0.1487426E-004  0.3355446E+03  0.7546771E-02  0.1088692E+00
         -2   -1    0    0    0  501 -0.00000000000E+00  0.00000000000E+00  0.55009887181E+03  0.55009887181E+03  0.00000000000E+00 0.  1.
         21   -1    0    0  501  502  0.00000000000E+00 -0.00000000000E+00 -0.36933403830E+03  0.36933403830E+03  0.00000000000E+00 0.  1.
        -24    2    1    2    0    0 -0.11778600730E+02 -0.17840069060E+03  0.12724148374E+00  0.19560579849E+03  0.79347781138E+02 0.  0.
         23    2    1    2    0    0  0.44753034079E+02  0.43290778577E+03  0.10806301653E+03  0.45712832318E+03  0.88750793058E+02 0.  0.
         13    1    3    3    0    0 -0.22384374962E+02 -0.20766878437E+02  0.19805536088E+02  0.36394817518E+02  0.00000000000E+00 0. -1.
        -14    1    3    3    0    0  0.10605774232E+02 -0.15763381216E+03 -0.19678294604E+02  0.15921098097E+03  0.00000000000E+00 0.  1.
        -11    1    4    4    0    0  0.48153512664E+02  0.40093172221E+03  0.74464543459E+02  0.41062144962E+03  0.00000000000E+00 0.  1.
         11    1    4    4    0    0 -0.34004785845E+01  0.31976063565E+02  0.33598473068E+02  0.46506873559E+02  0.00000000000E+00 0. -1.
         -1    1    1    2    0  502 -0.32974433349E+02 -0.25450709518E+03  0.72574575499E+02  0.26669878845E+03  0.00000000000E+00 0.  1.
<scales pt_clust_5="13000.00000" pt_clust_6="13000.00000" pt_clust_7="13000.00000" pt_clust_8="13000.00000" pt_clust_9="323.59460"></scales>
<clustering>
<clus scale="   79.348">  5  6 -1 -1</clus>
<clus scale="   88.751">  7  8 -1 -1</clus>
<clus scale="  195.606">  1  5  2 -1</clus>
<clus scale="  323.595">  2  9  1 -1</clus>
<clus scale="  323.595">  2  5  1 -1</clus>
</clustering>
</event>
<event>
 9    1  0.1487426E-004  0.9483139E+02  0.7546771E-02  0.1296816E+00
         21   -1    0    0  501  502  0.00000000000E+00  0.00000000000E+00  0.47518850264E+02  0.47518850264E+02  0.00000000000E+00 0.  1.
          3   -1    0    0  502    0 -0.00000000000E+00 -0.00000000000E+00 -0.39104957773E+03  0.39104957773E+03  0.00000000000E+00 0. -1.
        -24    2    1    2    0    0  0.61797520803E+01 -0.25363954943E+02 -0.26578786218E+03  0.27932852706E+03  0.81851810004E+02 0.  0.
         23    2    1    2    0    0 -0.41829608564E+02  0.12693857074E+02 -0.59194463684E+02  0.11710337463E+03  0.91095365731E+02 0.  0.
         13    1    3    3    0    0  0.38081944352E+02 -0.22061156484E+02 -0.85002015980E+02  0.95719756747E+02  0.00000000000E+00 0. -1.
        -14    1    3    3    0    0 -0.31902192272E+02 -0.33027984591E+01 -0.18078584620E+03  0.18360877031E+03  0.00000000000E+00 0.  1.
        -11    1    4    4    0    0  0.56480953208E+01 -0.22285017922E+02 -0.53044251034E+02  0.57811898190E+02  0.00000000000E+00 0. -1.
         11    1    4    4    0    0 -0.47477703885E+02  0.34978874997E+02 -0.61502126502E+01  0.59291476435E+02  0.00000000000E+00 0.  1.
          4    1    1    2  501    0  0.35649856484E+02  0.12670097869E+02 -0.18548401601E+02  0.42136526308E+02  0.00000000000E+00 0. -1.
<scales pt_clust_5="13000.00000" pt_clust_6="13000.00000" pt_clust_7="13000.00000" pt_clust_8="13000.00000" pt_clust_9="37.83442"></scales>
<clustering>
<clus scale="   37.834">  1  9  2 -1</clus>
<clus scale="   81.852">  5  6 -1 -1</clus>
<clus scale="   85.990">  2  5  1 -1</clus>
<clus scale="   91.095">  7  8 -1 -1</clus>
<clus scale="   37.834">  1  5  2 -1</clus>
</clustering>
</event>
<event>
 9    1  0.1487426E-004  0.1284682E+03  0.7546771E-02  0.1232034E+00
         -4   -1    0    0    0  501 -0.00000000000E+00  0.00000000000E+00  0.17963498804E+03  0.17963498804E+03  0.00000000000E+00 0.  1.
         21   -1    0    0  501  502  0.00000000000E+00 -0.00000000000E+00 -0.25739328896E+03  0.25739328896E+03  0.00000000000E+00 0.  1.
         23    2    1    2    0    0  0.77808584785E+02 -0.22332972780E+02  0.36674412754E+02  0.12616035272E+03  0.89545991024E+02 0.  0.
        -24    2    1    2    0    0 -0.94246101954E+02  0.43372342449E+02  0.52651475951E+02  0.14166398382E+03  0.80827090560E+02 0.  0.
         11    1    4    4    0    0 -0.30477782538E+02  0.14201558942E+02 -0.21259231420E+02  0.39781081250E+02  0.00000000000E+00 0. -1.
        -12    1    4    4    0    0 -0.63768319416E+02  0.29170783507E+02  0.73910707372E+02  0.10188290257E+03  0.00000000000E+00 0.  1.
        -13    1    3    3    0    0  0.67789663378E+02  0.19321218077E+02  0.11387032160E+01  0.70498543063E+02  0.00000000000E+00 0.  1.
         13    1    3    3    0    0  0.10018921407E+02 -0.41654190858E+02  0.35535709538E+02  0.55661809659E+02  0.00000000000E+00 0. -1.
         -3    1    1    2    0  502  0.16437517169E+02 -0.21039369668E+02 -0.16708418963E+03  0.16920394047E+03  0.00000000000E+00 0.  1.
<scales pt_clust_5="13000.00000" pt_clust_6="13000.00000" pt_clust_7="13000.00000" pt_clust_8="13000.00000" pt_clust_9="26.69920"></scales>
<clustering>
<clus scale="   26.699">  2  9  1 -1</clus>
<clus scale="   80.827">  5  6 -1 -1</clus>
<clus scale="   89.546">  7  8 -1 -1</clus>
<clus scale="  122.550">  2  5  1 -1</clus>
<clus scale="   26.699">  2  5  1 -1</clus>
</clustering>
</event>
<event>
 9    1  0.1487426E-004  0.2295794E+03  0.7546771E-02  0.1161134E+00
         -2   -1    0    0    0  501 -0.00000000000E+00  0.00000000000E+00  0.67660454620E+02  0.67660454620E+02  0.00000000000E+00 0.  1.
         21   -1    0    0  501  502  0.00000000000E+00 -0.00000000000E+00 -0.14049531456E+04  0.14049531456E+04  0.00000000000E+00 0. -1.
        -24    2    1    2    0    0  0.48959113944E+02  0.43768302449E+02 -0.71416991668E+02  0.12386348279E+03  0.77000756700E+02 0.  0.
         23    2    1    2    0    0 -0.24148891640E+03 -0.91126481297E+00 -0.57494884617E+03  0.63022080912E+03  0.91073406623E+02 0.  0.
         13    1    3    3    0    0  0.12252911935E+02 -0.22123816966E+02 -0.12841576494E+02  0.28363765880E+02  0.00000000000E+00 0. -1.
        -14    1    3    3    0    0  0.36706202009E+02  0.65892119415E+02 -0.58575415174E+02  0.95499716909E+02  0.00000000000E+00 0.  1.
        -13    1    4    4    0    0 -0.78449862718E+02  0.23349970628E+02 -0.11140103741E+03  0.13823817571E+03  0.00000000000E+00 0.  1.
         13    1    4    4    0    0 -0.16303905368E+03 -0.24261235441E+02 -0.46354780876E+03  0.49198263341E+03  0.00000000000E+00 0. -1.
         -1    1    1    2    0  502  0.19252980245E+03 -0.42857037636E+02 -0.69092685317E+03  0.71852930834E+03  0.00000000000E+00 0.  1.
<scales pt_clust_5="13000.00000" pt_clust_6="13000.00000" pt_clust_7="13000.00000" pt_clust_8="13000.00000" pt_clust_9="210.74232"></scales>
<clustering>
<clus scale="   77.001">  5  6 -1 -1</clus>
<clus scale="   91.073">  7  8 -1 -1</clus>
<clus scale="  101.202">  1  5  2 -1</clus>
<clus scale="  210.742">  2  9  1 -1</clus>
<clus scale="  210.742">  2  5  1 -1</clus>
</clustering>
</event>
<event>
 9    1  0.1487426E-004  0.2611738E+03  0.7546771E-02  0.1125702E+00
          1   -1    0    0  502    0 -0.00000000000E+00  0.00000000000E+00  0.12684529582E+04  0.12684529582E+04  0.00000000000E+00 0. -1.
         21   -1    0    0  501  502  0.00000000000E+00 -0.00000000000E+00 -0.12207000221E+03  0.12207000221E+03  0.00000000000E+00 0.  1.
         23    2    1    2    0    0 -0.16927595127E+02  0.12884254643E+03  0.63174020595E+03  0.65187532253E+03  0.94650953864E+02 0.  0.
        -24    2    1    2    0    0  0.82924716148E+02  0.16005400058E+03  0.34137579699E+03  0.39537184226E+03  0.85367834876E+02 0.  0.
         11    1    4    4    0    0  0.49282696078E+01  0.86573180753E+02  0.19987543327E+03  0.21787471697E+03  0.00000000000E+00 0. -1.
        -12    1    4    4    0    0  0.77996446540E+02  0.73480819823E+02  0.14150036371E+03  0.17749712529E+03  0.00000000000E+00 0.  1.
        -13    1    3    3    0    0 -0.35243787782E+02  0.34940839199E+02  0.10046287869E+03  0.11205256273E+03  0.00000000000E+00 0. -1.
         13    1    3    3    0    0  0.18316192655E+02  0.93901707232E+02  0.53127732726E+03  0.53982275980E+03  0.00000000000E+00 0.  1.
          2    1    1    2  501    0 -0.65997121021E+02 -0.28889654701E+03  0.17326695310E+03  0.34327579567E+03  0.00000000000E+00 0. -1.
<scales pt_clust_5="13000.00000" pt_clust_6="13000.00000" pt_clust_7="13000.00000" pt_clust_8="13000.00000" pt_clust_9="246.82803"></scales>
<clustering>
<clus scale="   85.368">  5  6 -1 -1</clus>
<clus scale="   94.651">  7  8 -1 -1</clus>
<clus scale="  160.766">  1  7  2 -1</clus>
<clus scale="  246.828">  2  9  1 -1</clus>
<clus scale="  246.828">  2  5  1 -1</clus>
</clustering>
</event>
<event>
 9    1  0.1487426E-004  0.8841220E+02  0.7546771E-02  0.1311470E+00
         -4   -1    0    0    0  501 -0.00000000000E+00  0.00000000000E+00  0.23344283866E+03  0.23344283866E+03  0.00000000000E+00 0.  1.
         21   -1    0    0  501  502  0.00000000000E+00 -0.00000000000E+00 -0.14133011676E+03  0.14133011676E+03  0.00000000000E+00 0.  1.
        -24    2    1    2    0    0  0.13218518369E+02  0.57502425474E+01  0.17100047659E+03  0.18950702618E+03  0.80398727966E+02 0.  0.
         23    2    1    2    0    0  0.75331084979E+01 -0.68830464617E+01  0.14571618924E+02  0.89523734893E+02  0.87738492003E+02 0.  0.
         11    1    3    3    0    0 -0.10697758413E+01  0.26489002392E+02  0.15973131039E+03  0.16191634626E+03  0.00000000000E+00 0. -1.
        -12    1    3    3    0    0  0.14288294210E+02 -0.20738759845E+02  0.11269166205E+02  0.27590679917E+02  0.00000000000E+00 0.  1.
        -13    1    4    4    0    0 -0.36670654059E+02 -0.16181601790E+02  0.18571944459E+02  0.44175765150E+02  0.00000000000E+00 0. -1.
         13    1    4    4    0    0  0.44203762557E+02  0.92985553286E+01 -0.40003255341E+01  0.45347969743E+02  0.00000000000E+00 0.  1.
         -3    1    1    2    0  502 -0.20751626867E+02  0.11328039143E+01 -0.93459373621E+02  0.95742194355E+02  0.00000000000E+00 0.  1.
<scales pt_clust_5="13000.00000" pt_clust_6="13000.00000" pt_clust_7="13000.00000" pt_clust_8="13000.00000" pt_clust_9="20.78252"></scales>
<clustering>
<clus scale="   20.783">  2  9  1 -1</clus>
<clus scale="   80.399">  5  6 -1 -1</clus>
<clus scale="   81.133">  1  5  2 -1</clus>
<clus scale="   87.738">  7  8 -1 -1</clus>
<clus scale="   20.783">  2  5  1 -1</clus>
</clustering>
</event>
<event>
 9    1  0.1575995E-004  0.5458681E+03  0.7546771E-02  0.1002455E+00
          1   -1    0    0  502    0 -0.00000000000E+00  0.00000000000E+00  0.55051493228E+03  0.55051493228E+03  0.00000000000E+00 0. -1.
         21   -1    0    0  501  502  0.00000000000E+00 -0.00000000000E+00 -0.51427154572E+03  0.51427154572E+03  0.00000000000E+00 0. -1.
        -24    2    1    2    0    0  0.41893720884E+03 -0.99152097526E+02 -0.11441006729E+03  0.45283471173E+03  0.81425360037E+02 0.  0.
         23    2    1    2    0    0  0.53797211009E+02  0.73436287761E+00 -0.24270017242E+01  0.10539722026E+03  0.90598038057E+02 0.  0.
         13    1    3    3    0    0  0.36095123929E+03 -0.95665725527E+02 -0.70487754020E+02  0.38000822577E+03  0.00000000000E+00 0. -1.
        -14    1    3    3    0    0  0.57985969549E+02 -0.34863719992E+01 -0.43922313274E+02  0.72826485962E+02  0.00000000000E+00 0.  1.
        -11    1    4    4    0    0  0.10639800260E+02  0.26926602374E+02 -0.34919448367E+02  0.45360942883E+02  0.00000000000E+00 0. -1.
         11    1    4    4    0    0  0.43157410749E+02 -0.26192239496E+02  0.32492446642E+02  0.60036277376E+02  0.00000000000E+00 0.  1.
          2    1    1    2  501    0 -0.47273441985E+03  0.98417734649E+02  0.15308045558E+03  0.50655454601E+03  0.00000000000E+00 0. -1.
<scales pt_clust_5="13000.00000" pt_clust_6="13000.00000" pt_clust_7="13000.00000" pt_clust_8="13000.00000" pt_clust_9="482.87070"></scales>
<clustering>
<clus scale="   81.425">  5  6 -1 -1</clus>
<clus scale="   90.598">  7  8 -1 -1</clus>
<clus scale="   92.100">  5  7 -1 -1</clus>
<clus scale="  482.871">  2  9  1 -1</clus>
<clus scale="  482.871">  2  5  1 -1</clus>
</clustering>
</event>
<event>
 9    1  0.1487426E-004  0.9813065E+02  0.7546771E-02  0.1290080E+00
          3   -1    0    0  502    0 -0.00000000000E+00  0.00000000000E+00  0.11657358282E+03  0.11657358282E+03  0.00000000000E+00 0. -1.
         21   -1    0    0  501  502  0.00000000000E+00 -0.00000000000E+00 -0.20179622058E+03  0.20179622058E+03  0.00000000000E+00 0. -1.
         23    2    1    2    0    0  0.30850228767E+01 -0.29645010272E+02  0.61801109441E+02  0.11458649724E+03  0.91773330660E+02 0.  0.
        -24    2    1    2    0    0  0.21156915600E+02  0.59544913948E+02 -0.10835032600E+03  0.14921858012E+03  0.80828087041E+02 0.  0.
         13    1    4    4    0    0 -0.22680059627E+01  0.49369412835E+02 -0.11293089650E+03  0.12327153021E+03  0.00000000000E+00 0. -1.
        -14    1    4    4    0    0  0.23424921563E+02  0.10175501113E+02  0.45805705041E+01  0.25947049915E+02  0.00000000000E+00 0.  1.
        -13    1    3    3    0    0 -0.26250670037E+02 -0.52490653329E+02  0.31416565944E+02  0.66568513428E+02  0.00000000000E+00 0. -1.
         13    1    3    3    0    0  0.29335692913E+02  0.22845643057E+02  0.30384543498E+02  0.48017983808E+02  0.00000000000E+00 0.  1.
          4    1    1    2  501    0 -0.24241938477E+02 -0.29899903676E+02 -0.38673421196E+02  0.54564726042E+02  0.00000000000E+00 0. -1.
<scales pt_clust_5="13000.00000" pt_clust_6="13000.00000" pt_clust_7="13000.00000" pt_clust_8="13000.00000" pt_clust_9="38.49254"></scales>
<clustering>
<clus scale="   38.493">  2  9  1 -1</clus>
<clus scale="   80.828">  5  6 -1 -1</clus>
<clus scale="   87.980">  2  5  1 -1</clus>
<clus scale="   91.773">  7  8 -1 -1</clus>
<clus scale="   38.493">  2  5  1 -1</clus>
</clustering>
</event>
<event>
 9    1  0.1487426E-004  0.8546014E+02  0.7546771E-02  0.1318217E+00
          1   -1    0    0  502    0 -0.00000000000E+00  0.00000000000E+00  0.62091506518E+03  0.62091506518E+03  0.00000000000E+00 0. -1.
         21   -1    0    0  501  502  0.00000000000E+00 -0.00000000000E+00 -0.27807968644E+02  0.27807968644E+02  0.00000000000E+00 0. -1.
        -24    2    1    2    0    0  0.13877968702E+02  0.12330034017E+02  0.43259921499E+03  0.44014224779E+03  0.78984110592E+02 0.  0.
         23    2    1    2    0    0  0.15074210031E+02  0.15934938185E+02  0.13418314918E+03  0.16030937792E+03  0.84928352529E+02 0.  0.
         13    1    3    3    0    0  0.36075912011E+02  0.22130666232E+02  0.13322016868E+03  0.13978144068E+03  0.00000000000E+00 0. -1.
        -14    1    3    3    0    0 -0.22197943308E+02 -0.98006322155E+01  0.29937904631E+03  0.30036080711E+03  0.00000000000E+00 0.  1.
        -13    1    4    4    0    0  0.21329090099E+02 -0.69288608477E+01 -0.15899858390E+01  0.22482598872E+02  0.00000000000E+00 0. -1.
         13    1    4    4    0    0 -0.62548800672E+01  0.22863799032E+02  0.13577313502E+03  0.13782677905E+03  0.00000000000E+00 0.  1.
          2    1    1    2  501    0 -0.28952178734E+02 -0.28264972201E+02  0.26324732371E+02  0.48271408115E+02  0.00000000000E+00 0. -1.
<scales pt_clust_5="13000.00000" pt_clust_6="13000.00000" pt_clust_7="13000.00000" pt_clust_8="13000.00000" pt_clust_9="40.46155"></scales>
<clustering>
<clus scale="   40.462">  2  9  1 -1</clus>
<clus scale="   78.984">  5  6 -1 -1</clus>
<clus scale="   79.556">  1  5  2 -1</clus>
<clus scale="   84.928">  7  8 -1 -1</clus>
<clus scale="   40.462">  2  5  1 -1</clus>
</clustering>
</event>
<event>
 9    1  0.1487426E-004  0.1535248E+03  0.7546771E-02  0.1216078E+00
         21   -1    0    0  501  502  0.00000000000E+00  0.00000000000E+00  0.50805700114E+02  0.50805700114E+02  0.00000000000E+00 0. -1.
          1   -1    0    0  502    0 -0.00000000000E+00 -0.00000000000E+00 -0.92296748038E+03  0.92296748038E+03  0.00000000000E+00 0. -1.
        -24    2    1    2    0    0 -0.23025758128E+02  0.50724196584E+02 -0.34709077998E+03  0.36125302900E+03  0.83238282991E+02 0.  0.
         23    2    1    2    0    0  0.94963561440E+02  0.57301547305E+02 -0.42504490144E+03  0.44866097617E+03  0.91279559460E+02 0.  0.
         13    1    3    3    0    0 -0.45258639275E+02  0.31439098517E+02 -0.30472323839E+03  0.30966597062E+03  0.00000000000E+00 0. -1.
        -14    1    3    3    0    0  0.22232881147E+02  0.19285098068E+02 -0.42367541588E+02  0.51587058375E+02  0.00000000000E+00 0.  1.
        -11    1    4    4    0    0  0.10141581591E+03  0.23470401936E+02 -0.26006852125E+03  0.28012794082E+03  0.00000000000E+00 0. -1.
         11    1    4    4    0    0 -0.64522544650E+01  0.33831145369E+02 -0.16497638019E+03  0.16853303535E+03  0.00000000000E+00 0.  1.
          2    1    1    2  501    0 -0.71937803312E+02 -0.10802574389E+03 -0.10002609885E+03  0.16385917533E+03  0.00000000000E+00 0. -1.
<scales pt_clust_5="13000.00000" pt_clust_6="13000.00000" pt_clust_7="13000.00000" pt_clust_8="13000.00000" pt_clust_9="123.44193"></scales>
<clustering>
<clus scale="   83.238">  5  6 -1 -1</clus>
<clus scale="   91.280">  7  8 -1 -1</clus>
<clus scale="  100.159">  2  5  1 -1</clus>
<clus scale="  123.442">  1  9  2 -1</clus>
<clus scale="  123.442">  1  5  2 -1</clus>
</clustering>
</event>
<event>
 9    1  0.1487426E-004  0.2420383E+03  0.7546771E-02  0.1118442E+00
          3   -1    0    0  502    0 -0.00000000000E+00  0.00000000000E+00  0.60752513399E+03  0.60752513399E+03  0.00000000000E+00 0. -1.
         21   -1    0    0  501  502  0.00000000000E+00 -0.00000000000E+00 -0.68344263923E+02  0.68344263923E+02  0.00000000000E+00 0. -1.
        -24    2    1    2    0    0 -0.50518453875E+02 -0.99600942248E+02  0.20934833456E+03  0.25070554929E+03  0.80957305941E+02 0.  0.
         23    2    1    2    0    0 -0.38039233554E+02 -0.33056256533E+02  0.17059111623E+03  0.19977923068E+03  0.90943458742E+02 0.  0.
         13    1    3    3    0    0 -0.61025735580E+02 -0.94510706804E+02  0.21079879053E+03  0.23894046161E+03  0.00000000000E+00 0. -1.
        -14    1    3    3    0    0  0.10507281706E+02 -0.50902354439E+01 -0.14504559728E+01  0.11765087685E+02  0.00000000000E+00 0.  1.
        -13    1    4    4    0    0 -0.64696525046E+02 -0.36516288865E+02  0.10264182164E+03  0.12670605059E+03  0.00000000000E+00 0.  1.
         13    1    4    4    0    0  0.26657291492E+02  0.34600323320E+01  0.67949294586E+02  0.73073180088E+02  0.00000000000E+00 0. -1.
          4    1    1    2  501    0  0.88557687429E+02  0.13265719878E+03  0.15924141928E+03  0.22538461794E+03  0.00000000000E+00 0. -1.
<scales pt_clust_5="13000.00000" pt_clust_6="13000.00000" pt_clust_7="13000.00000" pt_clust_8="13000.00000" pt_clust_9="159.50046"></scales>
<clustering>
<clus scale="   80.957">  5  6 -1 -1</clus>
<clus scale="   90.943">  7  8 -1 -1</clus>
<clus scale="   93.654">  5  7 -1 -1</clus>
<clus scale="  159.500">  2  9  1 -1</clus>
<clus scale="  159.500">  2  5  1 -1</clus>
</clustering>
</event>
<event>
 9    1  0.1487426E-004  0.9544946E+02  0.7546771E-02  0.1296689E+00
         21   -1    0    0  501  502  0.00000000000E+00  0.00000000000E+00  0.14742420171E+03  0.14742420171E+03  0.00000000000E+00 0. -1.
          1   -1    0    0  502    0 -0.00000000000E+00 -0.00000000000E+00 -0.95380595071E+02  0.95380595071E+02  0.00000000000E+00 0. -1.
         23    2    1    2    0    0  0.86356659100E+01  0.16578104515E+02 -0.13933480940E+02  0.94244863442E+02  0.91315629106E+02 0.  0.
        -24    2    1    2    0    0 -0.12287698673E+02 -0.37424650717E+02  0.11059106121E+02  0.89705022589E+02  0.79831668087E+02 0.  0.
         13    1    4    4    0    0  0.27181975266E+02 -0.47829207446E+01 -0.15871760755E+02  0.31837853252E+02  0.00000000000E+00 0. -1.
        -14    1    4    4    0    0 -0.39469673939E+02 -0.32641729972E+02  0.26930866876E+02  0.57867169337E+02  0.00000000000E+00 0.  1.
        -13    1    3    3    0    0  0.27367566809E+02 -0.70798963266E+01 -0.43578027299E+02  0.51943749463E+02  0.00000000000E+00 0. -1.
         13    1    3    3    0    0 -0.18731900899E+02  0.23658000841E+02  0.29644546359E+02  0.42301113979E+02  0.00000000000E+00 0.  1.
          2    1    1    2  501    0  0.36520327626E+01  0.20846546202E+02  0.54917981456E+02  0.58854910747E+02  0.00000000000E+00 0. -1.
<scales pt_clust_5="13000.00000" pt_clust_6="13000.00000" pt_clust_7="13000.00000" pt_clust_8="13000.00000" pt_clust_9="21.16402"></scales>
<clustering>
<clus scale="   21.164">  1  9  2 -1</clus>
<clus scale="   79.832">  5  6 -1 -1</clus>
<clus scale="   84.529">  1  5  2 -1</clus>
<clus scale="   91.316">  7  8 -1 -1</clus>
<clus scale="   21.164">  1  5  2 -1</clus>
</clustering>
</event>
<event>
 9    1  0.1487426E-004  0.1246907E+03  0.7546771E-02  0.1238301E+00
         21   -1    0    0  501  502  0.00000000000E+00  0.00000000000E+00  0.22852069354E+03  0.22852069354E+03  0.00000000000E+00 0. -1.
          1   -1    0    0  502    0 -0.00000000000E+00 -0.00000000000E+00 -0.11579620014E+03  0.11579620014E+03  0.00000000000E+00 0. -1.
        -24    2    1    2    0    0  0.10238861924E+03  0.12344209056E+02  0.20652088552E+02  0.13306678148E+03  0.81513500264E+02 0.  0.
         23    2    1    2    0    0 -0.50496944777E+02 -0.26494081223E+02  0.11075209692E+03  0.15431246511E+03  0.91073773081E+02 0.  0.
         13    1    3    3    0    0  0.60240258339E+02 -0.75010707734E+01 -0.26987996023E+02  0.66434228503E+02  0.00000000000E+00 0. -1.
        -14    1    3    3    0    0  0.42148360903E+02  0.19845279829E+02  0.47640084575E+02  0.66632552980E+02  0.00000000000E+00 0.  1.
        -11    1    4    4    0    0 -0.23164041362E+02  0.23966209587E+02  0.46078702700E+01  0.33647949159E+02  0.00000000000E+00 0.  1.
         11    1    4    4    0    0 -0.27332903416E+02 -0.50460290809E+02  0.10614422665E+03  0.12066451595E+03  0.00000000000E+00 0. -1.
          2    1    1    2  501    0 -0.51891674464E+02  0.14149872167E+02 -0.18679692067E+02  0.56937647095E+02  0.00000000000E+00 0. -1.
<scales pt_clust_5="13000.00000" pt_clust_6="13000.00000" pt_clust_7="13000.00000" pt_clust_8="13000.00000" pt_clust_9="53.78631"></scales>
<clustering>
<clus scale="   53.786">  1  9  2 -1</clus>
<clus scale="   81.514">  5  6 -1 -1</clus>
<clus scale="   91.074">  7  8 -1 -1</clus>
<clus scale="  117.889">  2  5  1 -1</clus>
<clus scale="   53.786">  1  5  2 -1</clus>
</clustering>
</event>
<event>
 9    1  0.1487426E-004  0.1478256E+03  0.7546771E-02  0.1204716E+00
         21   -1    0    0  501  502  0.00000000000E+00  0.00000000000E+00  0.10179344925E+03  0.10179344925E+03  0.00000000000E+00 0. -1.
          1   -1    0    0  502    0 -0.00000000000E+00 -0.00000000000E+00 -0.37903910347E+03  0.37903910347E+03  0.00000000000E+00 0. -1.
         23    2    1    2    0    0  0.45650025206E+02  0.10307100926E+03 -0.10577760560E+03  0.17874894441E+03  0.89748122701E+02 0.  0.
        -24    2    1    2    0    0 -0.12308844700E+03 -0.64414344423E+02 -0.97905576508E+02  0.18849450580E+03  0.81515049250E+02 0.  0.
         11    1    4    4    0    0 -0.11051303443E+03 -0.57863193128E+02 -0.11261911810E+03  0.16806054165E+03  0.00000000000E+00 0. -1.
        -12    1    4    4    0    0 -0.12575412573E+02 -0.65511512948E+01  0.14713541596E+02  0.20433964152E+02  0.00000000000E+00 0.  1.
        -13    1    3    3    0    0  0.15476661908E+02  0.11164210579E+03 -0.83784802688E+02  0.14043995162E+03  0.00000000000E+00 0. -1.
         13    1    3    3    0    0  0.30173363298E+02 -0.85710965291E+01 -0.21992802910E+02  0.38308992786E+02  0.00000000000E+00 0.  1.
          2    1    1    2  501    0  0.77438421796E+02 -0.38656664840E+02 -0.73562472109E+02  0.11358910251E+03  0.00000000000E+00 0. -1.
<scales pt_clust_5="13000.00000" pt_clust_6="13000.00000" pt_clust_7="13000.00000" pt_clust_8="13000.00000" pt_clust_9="86.55088"></scales>
<clustering>
<clus scale="   81.515">  5  6 -1 -1</clus>
<clus scale="   86.551">  1  9  2 -1</clus>
<clus scale="   89.748">  7  8 -1 -1</clus>
<clus scale="  142.977">  1  5  2 -1</clus>
<clus scale="   86.551">  1  5  2 -1</clus>
</clustering>
</event>
<event>
 9    1  0.1487426E-004  0.1199673E+03  0.7546771E-02  0.1243816E+00
         21   -1    0    0  501  502  0.00000000000E+00  0.00000000000E+00  0.44820134316E+03  0.44820134316E+03  0.00000000000E+00 0. -1.
          1   -1    0    0  502    0 -0.00000000000E+00 -0.00000000000E+00 -0.51567857911E+03  0.51567857911E+03  0.00000000000E+00 0. -1.
         23    2    1    2    0    0 -0.71047788328E+02 -0.57098204970E+02 -0.40325301600E+03  0.42349097127E+03  0.91780251682E+02 0.  0.
        -24    2    1    2    0    0  0.57061053465E+02 -0.19404955859E+02 -0.69004381599E+02  0.12820532490E+03  0.89679900302E+02 0.  0.
         13    1    4    4    0    0  0.48087987492E+02 -0.52533282677E+02 -0.33100866310E+02  0.78535773252E+02  0.00000000000E+00 0. -1.
        -14    1    4    4    0    0  0.89730659734E+01  0.33128326818E+02 -0.35903515289E+02  0.49669551647E+02  0.00000000000E+00 0.  1.
        -11    1    3    3    0    0 -0.27490703456E+02 -0.56737738904E+02 -0.34521760595E+03  0.35092749287E+03  0.00000000000E+00 0. -1.
         11    1    3    3    0    0 -0.43557084872E+02 -0.36046606655E+00 -0.58035410043E+02  0.72563478398E+02  0.00000000000E+00 0.  1.
          2    1    1    2  501    0  0.13986734863E+02  0.76503160830E+02  0.40478016165E+03  0.41218362611E+03  0.00000000000E+00 0. -1.
<scales pt_clust_5="13000.00000" pt_clust_6="13000.00000" pt_clust_7="13000.00000" pt_clust_8="13000.00000" pt_clust_9="77.77122"></scales>
<clustering>
<clus scale="   77.771">  1  9  2 -1</clus>
<clus scale="   89.680">  5  6 -1 -1</clus>
<clus scale="   91.780">  7  8 -1 -1</clus>
<clus scale="  118.368">  1  5  2 -1</clus>
<clus scale="   77.771">  1  5  2 -1</clus>
</clustering>
</event>
<event>
 9    1  0.1487426E-004  0.1341813E+03  0.7546771E-02  0.1223945E+00
          1   -1    0    0  502    0 -0.00000000000E+00  0.00000000000E+00  0.13301496279E+03  0.13301496279E+03  0.00000000000E+00 0. -1.
         21   -1    0    0  501  502  0.00000000000E+00 -0.00000000000E+00 -0.39186975110E+03  0.39186975110E+03  0.00000000000E+00 0. -1.
        -24    2    1    2    0    0 -0.10211200886E+02 -0.10077335044E+03  0.71199785288E+02  0.14782651258E+03  0.80769620619E+02 0.  0.
         23    2    1    2    0    0 -0.39592256041E+02  0.81683866561E+02 -0.22621850367E+03  0.26032464943E+03  0.91401919589E+02 0.  0.
         13    1    3    3    0    0 -0.45352237720E+02 -0.66263134542E+02  0.44267440539E+02  0.91690974242E+02  0.00000000000E+00 0. -1.
        -14    1    3    3    0    0  0.35141036835E+02 -0.34510215897E+02  0.26932344749E+02  0.56135538340E+02  0.00000000000E+00 0.  1.
        -13    1    4    4    0    0  0.77367689767E+01  0.47090033761E+02 -0.32014724706E+02  0.57465393689E+02  0.00000000000E+00 0.  1.
         13    1    4    4    0    0 -0.47329025018E+02  0.34593832800E+02 -0.19420377896E+03  0.20285925574E+03  0.00000000000E+00 0. -1.
          2    1    1    2  501    0  0.49803456927E+02  0.19089483878E+02 -0.10383606993E+03  0.11673355188E+03  0.00000000000E+00 0. -1.
<scales pt_clust_5="13000.00000" pt_clust_6="13000.00000" pt_clust_7="13000.00000" pt_clust_8="13000.00000" pt_clust_9="53.33660"></scales>
<clustering>
<clus scale="   53.337">  2  9  1 -1</clus>
<clus scale="   80.770">  5  6 -1 -1</clus>
<clus scale="   91.402">  7  8 -1 -1</clus>
<clus scale="  127.177">  1  5  2 -1</clus>
<clus scale="   53.337">  2  5  1 -1</clus>
</clustering>
</event>
<event>
 9    1  0.1487426E-004  0.2235788E+03  0.7546771E-02  0.1132000E+00
          1   -1    0    0  502    0 -0.00000000000E+00  0.00000000000E+00  0.10880762383E+04  0.10880762383E+04  0.00000000000E+00 0. -1.
         21   -1    0    0  501  502  0.00000000000E+00 -0.00000000000E+00 -0.57891248123E+02  0.57891248123E+02  0.00000000000E+00 0. -1.
         23    2    1    2    0    0 -0.46390671199E+01 -0.18059525519E+03  0.34878209476E+03  0.40227300840E+03  0.86824285322E+02 0.  0.
        -24    2    1    2    0    0 -0.70967597301E+00  0.23180078875E+03  0.52100956937E+03  0.57524082042E+03  0.75623546555E+02 0.  0.
         11    1    4    4    0    0  0.26686317963E+02  0.16171445241E+03  0.30119510263E+03  0.34290262981E+03  0.00000000000E+00 0. -1.
        -12    1    4    4    0    0 -0.27395993936E+02  0.70086336349E+02  0.21981446673E+03  0.23233819060E+03  0.00000000000E+00 0.  1.
        -13    1    3    3    0    0  0.21546753939E+02 -0.73770175479E+01  0.63886910749E+02  0.67824924315E+02  0.00000000000E+00 0.  1.
         13    1    3    3    0    0 -0.26185821059E+02 -0.17321823764E+03  0.28489518401E+03  0.33444808409E+03  0.00000000000E+00 0. -1.
          2    1    1    2  501    0  0.53487430929E+01 -0.51205533565E+02  0.16039332609E+03  0.16845365765E+03  0.00000000000E+00 0. -1.
<scales pt_clust_5="13000.00000" pt_clust_6="13000.00000" pt_clust_7="13000.00000" pt_clust_8="13000.00000" pt_clust_9="51.48416"></scales>
<clustering>
<clus scale="   51.484">  2  9  1 -1</clus>
<clus scale="   75.624">  5  6 -1 -1</clus>
<clus scale="   86.824">  7  8 -1 -1</clus>
<clus scale="  219.472">  2  5  1 -1</clus>
<clus scale="   51.484">  2  5  1 -1</clus>
</clustering>
</event>
<event>
 9    1  0.1487426E-004  0.1011384E+03  0.7546771E-02  0.1285370E+00
         21   -1    0    0  501  502  0.00000000000E+00  0.00000000000E+00  0.83924492167E+02  0.83924492167E+02  0.00000000000E+00 0.  1.
         -2   -1    0    0    0  501 -0.00000000000E+00 -0.00000000000E+00 -0.25125163554E+03  0.25125163554E+03  0.00000000000E+00 0.  1.
         23    2    1    2    0    0 -0.29151088313E+02 -0.63608350635E+02 -0.56735695885E+02  0.13043254984E+03  0.94328694728E+02 0.  0.
        -24    2    1    2    0    0  0.17363072213E+02 -0.61944419922E+01 -0.11209716546E+02  0.82726711711E+02  0.79863656924E+02 0.  0.
         13    1    4    4    0    0  0.50606778859E+01 -0.42781019811E+02 -0.24697884551E+01  0.43150040228E+02  0.00000000000E+00 0. -1.
        -14    1    4    4    0    0  0.12302394327E+02  0.36586577818E+02 -0.87399280911E+01  0.39576671483E+02  0.00000000000E+00 0.  1.
        -13    1    3    3    0    0 -0.59746221570E+02 -0.50719672961E+02 -0.19929820257E+02  0.80865901050E+02  0.00000000000E+00 0.  1.
         13    1    3    3    0    0  0.30595133257E+02 -0.12888677674E+02 -0.36805875628E+02  0.49566648787E+02  0.00000000000E+00 0. -1.
         -1    1    1    2    0  502  0.11788016100E+02  0.69802792627E+02 -0.99381730945E+02  0.12201686616E+03  0.00000000000E+00 0.  1.
<scales pt_clust_5="13000.00000" pt_clust_6="13000.00000" pt_clust_7="13000.00000" pt_clust_8="13000.00000" pt_clust_9="70.79119"></scales>
<clustering>
<clus scale="   70.791">  1  9  2 -1</clus>
<clus scale="   79.864">  5  6 -1 -1</clus>
<clus scale="   87.802">  1  5  2 -1</clus>
<clus scale="   94.329">  7  8 -1 -1</clus>
<clus scale="   70.791">  1  5  2 -1</clus>
</clustering>
</event>
<event>
 9    1  0.1487426E-004  0.1627685E+03  0.7546771E-02  0.1187397E+00
         21   -1    0    0  501  502  0.00000000000E+00  0.00000000000E+00  0.10980513813E+03  0.10980513813E+03  0.00000000000E+00 0. -1.
          1   -1    0    0  502    0 -0.00000000000E+00 -0.00000000000E+00 -0.51848694269E+03  0.51848694269E+03  0.00000000000E+00 0. -1.
        -24    2    1    2    0    0  0.12257203239E+02  0.14694199724E+03 -0.17940492449E+03  0.24585406684E+03  0.80721159950E+02 0.  0.
         23    2    1    2    0    0  0.78942896466E+02 -0.10499038855E+03 -0.35934458826E+02  0.16458786477E+03  0.92427903308E+02 0.  0.
         11    1    3    3    0    0  0.45047246877E+02  0.61443479419E+02 -0.89328203499E+02  0.11740563681E+03  0.00000000000E+00 0. -1.
        -12    1    3    3    0    0 -0.32790043638E+02  0.85498517823E+02 -0.90076720991E+02  0.12844843003E+03  0.00000000000E+00 0.  1.
        -13    1    4    4    0    0  0.54243388094E+02 -0.11864420492E+03 -0.19433110857E+02  0.13189555834E+03  0.00000000000E+00 0. -1.
         13    1    4    4    0    0  0.24699508372E+02  0.13653816368E+02 -0.16501347969E+02  0.32692306435E+02  0.00000000000E+00 0.  1.
          2    1    1    2  501    0 -0.91200099705E+02 -0.41951608694E+02 -0.19334242124E+03  0.21785014921E+03  0.00000000000E+00 0. -1.
<scales pt_clust_5="13000.00000" pt_clust_6="13000.00000" pt_clust_7="13000.00000" pt_clust_8="13000.00000" pt_clust_9="100.38628"></scales>
<clustering>
<clus scale="   80.721">  5  6 -1 -1</clus>
<clus scale="   92.428">  7  8 -1 -1</clus>
<clus scale="  100.386">  1  9  2 -1</clus>
<clus scale="  156.418">  2  5  1 -1</clus>
<clus scale="  100.386">  1  5  2 -1</clus>
</clustering>
</event>
<event>
 9    1  0.1487426E-004  0.1401468E+03  0.7546771E-02  0.1215808E+00
          1   -1    0    0  502    0 -0.00000000000E+00  0.00000000000E+00  0.13550236837E+04  0.13550236837E+04  0.00000000000E+00 0. -1.
         21   -1    0    0  501  502  0.00000000000E+00 -0.00000000000E+00 -0.21744539384E+02  0.21744539384E+02  0.00000000000E+00 0.  1.
        -24    2    1    2    0    0 -0.78253289194E+02 -0.85207879692E+02  0.69144595819E+03  0.70555829020E+03  0.79567755605E+02 0.  0.
         23    2    1    2    0    0  0.28787523130E+02  0.89570943688E+02  0.32636297606E+03  0.35185534661E+03  0.91857048473E+02 0.  0.
         11    1    3    3    0    0 -0.36043510554E+01 -0.61593121880E+02  0.27801797715E+03  0.28478184567E+03  0.00000000000E+00 0. -1.
        -12    1    3    3    0    0 -0.74648938138E+02 -0.23614757812E+02  0.41342798105E+03  0.42077644452E+03  0.00000000000E+00 0.  1.
        -11    1    4    4    0    0 -0.25288149289E+02  0.24177924209E+02  0.17375680823E+03  0.17724415623E+03  0.00000000000E+00 0. -1.
         11    1    4    4    0    0  0.54075672420E+02  0.65393019479E+02  0.15260616783E+03  0.17461119038E+03  0.00000000000E+00 0.  1.
          2    1    1    2  501    0  0.49465766063E+02 -0.43630639950E+01  0.31547021008E+03  0.31935458629E+03  0.00000000000E+00 0. -1.
<scales pt_clust_5="13000.00000" pt_clust_6="13000.00000" pt_clust_7="13000.00000" pt_clust_8="13000.00000" pt_clust_9="49.65784"></scales>
<clustering>
<clus scale="   49.658">  2  9  1 -1</clus>
<clus scale="   79.568">  5  6 -1 -1</clus>
<clus scale="   91.857">  7  8 -1 -1</clus>
<clus scale="  132.418">  1  5  2 -1</clus>
<clus scale="   49.658">  2  5  1 -1</clus>
</clustering>
</event>
<event>
 9    1  0.1487426E-004  0.1000935E+03  0.7546771E-02  0.1287611E+00
         21   -1    0    0  501  502  0.00000000000E+00  0.00000000000E+00  0.22198389533E+03  0.22198389533E+03  0.00000000000E+00 0. -1.
          1   -1    0    0  502    0 -0.00000000000E+00 -0.00000000000E+00 -0.78795658983E+02  0.78795658983E+02  0.00000000000E+00 0. -1.
        -24    2    1    2    0    0  0.37457602104E+02  0.13521934992E+02 -0.12988046764E+02  0.87168754173E+02  0.76444670605E+02 0.  0.
         23    2    1    2    0    0 -0.29423842402E+02 -0.42912449194E+02  0.81421650509E+02  0.13288534743E+03  0.91223843333E+02 0.  0.
         13    1    3    3    0    0  0.16147392758E+02 -0.21558096073E+02 -0.32090207622E+02  0.41895957137E+02  0.00000000000E+00 0. -1.
        -14    1    3    3    0    0  0.21310209347E+02  0.35080031066E+02  0.19102160859E+02  0.45272797036E+02  0.00000000000E+00 0.  1.
        -13    1    4    4    0    0 -0.61700599148E+02 -0.27137764470E+02  0.64040070972E+02  0.92976087710E+02  0.00000000000E+00 0. -1.
         13    1    4    4    0    0  0.32276756747E+02 -0.15774684724E+02  0.17381579537E+02  0.39909259720E+02  0.00000000000E+00 0.  1.
          2    1    1    2  501    0 -0.80337597028E+01  0.29390514202E+02  0.74754632605E+02  0.80725452715E+02  0.00000000000E+00 0. -1.
<scales pt_clust_5="13000.00000" pt_clust_6="13000.00000" pt_clust_7="13000.00000" pt_clust_8="13000.00000" pt_clust_9="30.46873"></scales>
<clustering>
<clus scale="   30.469">  1  9  2 -1</clus>
<clus scale="   76.445">  5  6 -1 -1</clus>
<clus scale="   86.837">  2  5  1 -1</clus>
<clus scale="   91.224">  7  8 -1 -1</clus>
<clus scale="   30.469">  1  5  2 -1</clus>
</clustering>
</event>
<event>
 9    1  0.1487426E-004  0.2645006E+03  0.7546771E-02  0.1104469E+00
         -4   -1    0    0    0  501 -0.00000000000E+00  0.00000000000E+00  0.29020163543E+03  0.29020163543E+03  0.00000000000E+00 0.  1.
         21   -1    0    0  501  502  0.00000000000E+00 -0.00000000000E+00 -0.19864564627E+03  0.19864564627E+03  0.00000000000E+00 0.  1.
        -24    2    1    2    0    0  0.59526794311E+02  0.12001464736E+03  0.99980654959E+02  0.18592510169E+03  0.81394454670E+02 0.  0.
         23    2    1    2    0    0  0.32709701000E+02  0.39146535221E+02  0.39119013313E+02  0.11292151018E+03  0.92836385649E+02 0.  0.
         11    1    3    3    0    0  0.24027727119E+02 -0.64875178319E+01  0.10808076508E+02  0.27133633666E+02  0.00000000000E+00 0. -1.
        -12    1    3    3    0    0  0.35499067191E+02  0.12650216519E+03  0.89172578451E+02  0.15879146803E+03  0.00000000000E+00 0.  1.
        -13    1    4    4    0    0  0.12563971980E+02  0.47781609245E+02  0.63291335291E+02  0.80291523194E+02  0.00000000000E+00 0.  1.
         13    1    4    4    0    0  0.20145729020E+02 -0.86350740240E+01 -0.24172321978E+02  0.32629986989E+02  0.00000000000E+00 0. -1.
         -3    1    1    2    0  502 -0.92236495310E+02 -0.15916118258E+03 -0.47543679116E+02  0.19000066982E+03  0.00000000000E+00 0.  1.
<scales pt_clust_5="13000.00000" pt_clust_6="13000.00000" pt_clust_7="13000.00000" pt_clust_8="13000.00000" pt_clust_9="183.95612"></scales>
<clustering>
<clus scale="   81.394">  5  6 -1 -1</clus>
<clus scale="   92.836">  7  8 -1 -1</clus>
<clus scale="   93.827">  5  7 -1 -1</clus>
<clus scale="  183.956">  2  9  1 -1</clus>
<clus scale="  183.956">  2  5  1 -1</clus>
</clustering>
</event>
<event>
 9    1  0.1487426E-004  0.9880719E+02  0.7546771E-02  0.1291036E+00
         21   -1    0    0  501  502  0.00000000000E+00  0.00000000000E+00  0.25754755144E+03  0.25754755144E+03  0.00000000000E+00 0. -1.
          1   -1    0    0  502    0 -0.00000000000E+00 -0.00000000000E+00 -0.85876980933E+02  0.85876980933E+02  0.00000000000E+00 0. -1.
         23    2    1    2    0    0 -0.27801896711E+02 -0.90742289292E+01 -0.26089865543E+02  0.10011216390E+03  0.92122077622E+02 0.  0.
        -24    2    1    2    0    0  0.52256353546E+02  0.12422642416E+02  0.80599782817E+02  0.12357995432E+03  0.76750450094E+02 0.  0.
         11    1    4    4    0    0  0.58484554214E+02  0.14240308885E+02  0.92304764931E+02  0.11019709210E+03  0.00000000000E+00 0. -1.
        -12    1    4    4    0    0 -0.62282006674E+01 -0.18176664693E+01 -0.11704982114E+02  0.13382862221E+02  0.00000000000E+00 0.  1.
        -11    1    3    3    0    0  0.11553428960E+01 -0.41914273726E+02 -0.35950525988E+02  0.55232069290E+02  0.00000000000E+00 0. -1.
         11    1    3    3    0    0 -0.28957239607E+02  0.32840044796E+02  0.98606604451E+01  0.44880094611E+02  0.00000000000E+00 0.  1.
          2    1    1    2  501    0 -0.24454456835E+02 -0.33484134869E+01  0.11716065324E+03  0.11973241415E+03  0.00000000000E+00 0. -1.
<scales pt_clust_5="13000.00000" pt_clust_6="13000.00000" pt_clust_7="13000.00000" pt_clust_8="13000.00000" pt_clust_9="24.68263"></scales>
<clustering>
<clus scale="   24.683">  1  9  2 -1</clus>
<clus scale="   76.750">  5  6 -1 -1</clus>
<clus scale="   84.658">  1  5  2 -1</clus>
<clus scale="   92.122">  7  8 -1 -1</clus>
<clus scale="   24.683">  1  5  2 -1</clus>
</clustering>
</event>
<event>
 9    1  0.1487426E-004  0.9873944E+02  0.7546771E-02  0.1284993E+00
         21   -1    0    0  501  502  0.00000000000E+00  0.00000000000E+00  0.74995148362E+03  0.74995148362E+03  0.00000000000E+00 0. -1.
          1   -1    0    0  502    0 -0.00000000000E+00 -0.00000000000E+00 -0.64125945182E+02  0.64125945182E+02  0.00000000000E+00 0. -1.
        -24    2    1    2    0    0 -0.44806555880E+02 -0.12799409759E+02 -0.74471182339E+01  0.93728318119E+02  0.80982008542E+02 0.  0.
         23    2    1    2    0    0  0.62359544241E+02  0.75916045872E+02  0.45612847495E+03  0.47432232336E+03  0.85302532215E+02 0.  0.
         11    1    3    3    0    0 -0.32095661345E+02  0.30729504761E+02 -0.16659947693E+02  0.47455113499E+02  0.00000000000E+00 0. -1.
        -12    1    3    3    0    0 -0.12710894534E+02 -0.43528914520E+02  0.92128294589E+01  0.46273204620E+02  0.00000000000E+00 0.  1.
        -11    1    4    4    0    0  0.10097898791E+02  0.70225885208E+02  0.18486792446E+03  0.19801462574E+03  0.00000000000E+00 0. -1.
         11    1    4    4    0    0  0.52261645450E+02  0.56901606642E+01  0.27126055049E+03  0.27630769762E+03  0.00000000000E+00 0.  1.
          2    1    1    2  501    0 -0.17552988361E+02 -0.63116636112E+02  0.23714418172E+03  0.24602678732E+03  0.00000000000E+00 0. -1.
<scales pt_clust_5="13000.00000" pt_clust_6="13000.00000" pt_clust_7="13000.00000" pt_clust_8="13000.00000" pt_clust_9="65.51196"></scales>
<clustering>
<clus scale="   65.512">  1  9  2 -1</clus>
<clus scale="   80.982">  5  6 -1 -1</clus>
<clus scale="   85.303">  7  8 -1 -1</clus>
<clus scale="   95.032">  2  5  1 -1</clus>
<clus scale="   65.512">  1  5  2 -1</clus>
</clustering>
</event>
<event>
 9    1  0.1487426E-004  0.1918712E+03  0.7546771E-02  0.1177137E+00
         21   -1    0    0  501  502  0.00000000000E+00  0.00000000000E+00  0.26507276934E+03  0.26507276934E+03  0.00000000000E+00 0. -1.
         -2   -1    0    0    0  501 -0.00000000000E+00 -0.00000000000E+00 -0.27196636444E+03  0.27196636444E+03  0.00000000000E+00 0.  1.
        -24    2    1    2    0    0 -0.87332256380E+02 -0.20552714434E+02  0.63734830849E+02  0.13601117039E+03  0.79922291837E+02 0.  0.
         23    2    1    2    0    0 -0.78156257135E+02 -0.78806219804E+02 -0.13471125977E+03  0.19764346174E+03  0.92719974388E+02 0.  0.
         13    1    3    3    0    0 -0.81081417185E+02 -0.29196663389E+02  0.79319875600E+02  0.11712507857E+03  0.00000000000E+00 0. -1.
        -14    1    3    3    0    0 -0.62508391946E+01  0.86439489556E+01 -0.15585044751E+02  0.18886091816E+02  0.00000000000E+00 0.  1.
        -13    1    4    4    0    0 -0.16948789213E+02  0.20958310657E+02 -0.18399550736E+02  0.32635191262E+02  0.00000000000E+00 0. -1.
         13    1    4    4    0    0 -0.61207467921E+02 -0.99764530461E+02 -0.11631170904E+03  0.16500827048E+03  0.00000000000E+00 0.  1.
         -1    1    1    2    0  502  0.16548851351E+03  0.99358934238E+02  0.64082833829E+02  0.20338450165E+03  0.00000000000E+00 0.  1.
<scales pt_clust_5="13000.00000" pt_clust_6="13000.00000" pt_clust_7="13000.00000" pt_clust_8="13000.00000" pt_clust_9="167.98088"></scales>
<clustering>
<clus scale="   79.922">  5  6 -1 -1</clus>
<clus scale="   92.720">  7  8 -1 -1</clus>
<clus scale="  120.154">  2  5  1 -1</clus>
<clus scale="  167.981">  1  9  2 -1</clus>
<clus scale="  167.981">  1  5  2 -1</clus>
</clustering>
</event>
<event>
 9    1  0.1487426E-004  0.1205461E+03  0.7546771E-02  0.1245417E+00
          1   -1    0    0  502    0 -0.00000000000E+00  0.00000000000E+00  0.99355898420E+02  0.99355898420E+02  0.00000000000E+00 0. -1.
         21   -1    0    0  501  502  0.00000000000E+00 -0.00000000000E+00 -0.21202348664E+03  0.21202348664E+03  0.00000000000E+00 0.  1.
        -24    2    1    2    0    0 -0.51665112148E+02 -0.57202670124E+02  0.10516172856E+02  0.11240701810E+03  0.81137651823E+02 0.  0.
         23    2    1    2    0    0  0.72765659825E+02  0.42981088575E+02 -0.77372171537E+02  0.14656828096E+03  0.91397991386E+02 0.  0.
         13    1    3    3    0    0 -0.63603081678E+02 -0.22996142330E+02  0.26718854096E+02  0.72719129018E+02  0.00000000000E+00 0. -1.
        -14    1    3    3    0    0  0.11937969529E+02 -0.34206527794E+02 -0.16202681240E+02  0.39687889079E+02  0.00000000000E+00 0.  1.
        -11    1    4    4    0    0  0.26250598418E+02  0.27826079631E+01 -0.80791840538E+02  0.84995048808E+02  0.00000000000E+00 0.  1.
         11    1    4    4    0    0  0.46515061408E+02  0.40198480612E+02  0.34196690003E+01  0.61573232150E+02  0.00000000000E+00 0. -1.
          2    1    1    2  501    0 -0.21100547677E+02  0.14221581549E+02 -0.45811589543E+02  0.52404086010E+02  0.00000000000E+00 0. -1.
<scales pt_clust_5="13000.00000" pt_clust_6="13000.00000" pt_clust_7="13000.00000" pt_clust_8="13000.00000" pt_clust_9="25.44576"></scales>
<clustering>
<clus scale="   25.446">  2  9  1 -1</clus>
<clus scale="   81.138">  5  6 -1 -1</clus>
<clus scale="   91.398">  7  8 -1 -1</clus>
<clus scale="  112.965">  1  5  2 -1</clus>
<clus scale="   25.446">  2  5  1 -1</clus>
</clustering>
</event>
<event>
 9    1  0.1487426E-004  0.9816728E+02  0.7546771E-02  0.1288739E+00
          3   -1    0    0  502    0 -0.00000000000E+00  0.00000000000E+00  0.24080589357E+03  0.24080589357E+03  0.00000000000E+00 0. -1.
         21   -1    0    0  501  502  0.00000000000E+00 -0.00000000000E+00 -0.72027108396E+02  0.72027108396E+02  0.00000000000E+00 0.  1.
        -24    2    1    2    0    0  0.21155323134E+02 -0.25774807926E+02  0.28236748891E+02  0.91349218286E+02  0.80221426520E+02 0.  0.
         23    2    1    2    0    0  0.83652784106E+01  0.57059047617E+02  0.42424620096E+02  0.11435210336E+03  0.89167496068E+02 0.  0.
         11    1    3    3    0    0 -0.12302812185E+02 -0.34730337537E+02  0.40363866046E+02  0.54651598470E+02  0.00000000000E+00 0. -1.
        -12    1    3    3    0    0  0.33458135319E+02  0.89555296117E+01 -0.12127117155E+02  0.36697619816E+02  0.00000000000E+00 0.  1.
        -13    1    4    4    0    0 -0.36337893585E+02  0.38861712071E+02  0.38997051701E+02  0.65965485040E+02  0.00000000000E+00 0. -1.
         13    1    4    4    0    0  0.44703171996E+02  0.18197335547E+02  0.34275683950E+01  0.48386618321E+02  0.00000000000E+00 0.  1.
          4    1    1    2  501    0 -0.29520601544E+02 -0.31284239692E+02  0.98117416184E+02  0.10713168032E+03  0.00000000000E+00 0. -1.
<scales pt_clust_5="13000.00000" pt_clust_6="13000.00000" pt_clust_7="13000.00000" pt_clust_8="13000.00000" pt_clust_9="43.01362"></scales>
<clustering>
<clus scale="   43.014">  2  9  1 -1</clus>
<clus scale="   80.221">  5  6 -1 -1</clus>
<clus scale="   89.167">  7  8 -1 -1</clus>
<clus scale="   90.119">  1  5  2 -1</clus>
<clus scale="   43.014">  2  5  1 -1</clus>
</clustering>
</event>
<event>
 9    1  0.1487426E-004  0.1294859E+03  0.7546771E-02  0.1246264E+00
         21   -1    0    0  501  502  0.00000000000E+00  0.00000000000E+00  0.82365944602E+02  0.82365944602E+02  0.00000000000E+00 0. -1.
          1   -1    0    0  502    0 -0.00000000000E+00 -0.00000000000E+00 -0.44110320530E+03  0.44110320530E+03  0.00000000000E+00 0. -1.
        -24    2    1    2    0    0  0.33702670265E+02 -0.25294104276E+02 -0.25824189221E+03  0.27334594515E+03  0.79078879264E+02 0.  0.
         23    2    1    2    0    0  0.75346710290E+02  0.23558155326E+02 -0.47794247342E+02  0.12899439279E+03  0.90128518557E+02 0.  0.
         13    1    3    3    0    0  0.58687217019E+02 -0.13988928259E+02 -0.14985865819E+03  0.16154719741E+03  0.00000000000E+00 0. -1.
        -14    1    3    3    0    0 -0.24984546754E+02 -0.11305176017E+02 -0.10838323402E+03  0.11179874775E+03  0.00000000000E+00 0.  1.
        -13    1    4    4    0    0  0.84731762033E+02 -0.70818636374E+01 -0.21919510918E+02  0.87807113884E+02  0.00000000000E+00 0. -1.
         13    1    4    4    0    0 -0.93850517432E+01  0.30640018963E+02 -0.25874736424E+02  0.41187278901E+02  0.00000000000E+00 0.  1.
          2    1    1    2  501    0 -0.10904938056E+03  0.17359489502E+01 -0.52701121151E+02  0.12112881197E+03  0.00000000000E+00 0. -1.
<scales pt_clust_5="13000.00000" pt_clust_6="13000.00000" pt_clust_7="13000.00000" pt_clust_8="13000.00000" pt_clust_9="92.97023"></scales>
<clustering>
<clus scale="   79.079">  5  6 -1 -1</clus>
<clus scale="   89.605">  2  5  1 -1</clus>
<clus scale="   90.129">  7  8 -1 -1</clus>
<clus scale="   92.970">  1  9  2 -1</clus>
<clus scale="   92.970">  1  5  2 -1</clus>
</clustering>
</event>
<event>
 9    1  0.1487426E-004  0.2012102E+03  0.7546771E-02  0.1149588E+00
         -4   -1    0    0    0  501 -0.00000000000E+00  0.00000000000E+00  0.46633349386E+03  0.46633349386E+03  0.00000000000E+00 0.  1.
         21   -1    0    0  501  502  0.00000000000E+00 -0.00000000000E+00 -0.59564477942E+03  0.59564477942E+03  0.00000000000E+00 0.  1.
        -24    2    1    2    0    0  0.14593710098E+03  0.13001932940E+03  0.39484511588E+03  0.44778947201E+03  0.80062989249E+02 0.  0.
         23    2    1    2    0    0 -0.10438360258E+03 -0.39222504710E+02 -0.90775622777E+02  0.16945331144E+03  0.89665320527E+02 0.  0.
         13    1    3    3    0    0  0.12391852413E+03  0.93353385697E+02  0.22963660390E+03  0.27713466960E+03  0.00000000000E+00 0. -1.
        -14    1    3    3    0    0  0.22018576845E+02  0.36665943699E+02  0.16520851197E+03  0.17065480240E+03  0.00000000000E+00 0.  1.
        -13    1    4    4    0    0 -0.42302654835E+02  0.18366946613E+02 -0.67290881863E+02  0.81577705998E+02  0.00000000000E+00 0.  1.
         13    1    4    4    0    0 -0.62080947741E+02 -0.57589451323E+02 -0.23484740914E+02  0.87875605442E+02  0.00000000000E+00 0. -1.
         -3    1    1    2    0  502 -0.41553498402E+02 -0.90796824686E+02 -0.43338077866E+03  0.44473548983E+03  0.00000000000E+00 0.  1.
<scales pt_clust_5="13000.00000" pt_clust_6="13000.00000" pt_clust_7="13000.00000" pt_clust_8="13000.00000" pt_clust_9="99.85368"></scales>
<clustering>
<clus scale="   80.063">  5  6 -1 -1</clus>
<clus scale="   89.665">  7  8 -1 -1</clus>
<clus scale="   99.854">  2  9  1 -1</clus>
<clus scale="  197.119">  1  5  2 -1</clus>
<clus scale="   99.854">  2  5  1 -1</clus>
</clustering>
</event>
<event>
 9    1  0.1487426E-004  0.1137790E+03  0.7546771E-02  0.1258042E+00
          1   -1    0    0  502    0 -0.00000000000E+00  0.00000000000E+00  0.35500918046E+03  0.35500918046E+03  0.00000000000E+00 0. -1.
         21   -1    0    0  501  502  0.00000000000E+00 -0.00000000000E+00 -0.45864352271E+02  0.45864352271E+02  0.00000000000E+00 0. -1.
        -24    2    1    2    0    0 -0.45286284897E+01 -0.64391184880E+02  0.15432396730E+03  0.18693055171E+03  0.83429078347E+02 0.  0.
         23    2    1    2    0    0 -0.27439157508E+02  0.59274923415E+02  0.12453833701E+03  0.16961300555E+03  0.94828004063E+02 0.  0.
         11    1    3    3    0    0 -0.14139085932E+01 -0.64624146134E+02  0.47880869485E+02  0.80441637624E+02  0.00000000000E+00 0. -1.
        -12    1    3    3    0    0 -0.31147198965E+01  0.23296125394E+00  0.10644309782E+03  0.10648891409E+03  0.00000000000E+00 0.  1.
        -11    1    4    4    0    0 -0.61996515047E+02  0.33238213154E+02  0.63305451922E+02  0.94635759281E+02  0.00000000000E+00 0. -1.
         11    1    4    4    0    0  0.34557357539E+02  0.26036710261E+02  0.61232885089E+02  0.74977246266E+02  0.00000000000E+00 0.  1.
          2    1    1    2  501    0  0.31967785998E+02  0.51162614651E+01  0.30282523876E+02  0.44329975472E+02  0.00000000000E+00 0. -1.
<scales pt_clust_5="13000.00000" pt_clust_6="13000.00000" pt_clust_7="13000.00000" pt_clust_8="13000.00000" pt_clust_9="32.37461"></scales>
<clustering>
<clus scale="   32.375">  2  9  1 -1</clus>
<clus scale="   83.429">  5  6 -1 -1</clus>
<clus scale="   94.828">  7  8 -1 -1</clus>
<clus scale="  104.469">  1  5  2 -1</clus>
<clus scale="   32.375">  2  5  1 -1</clus>
</clustering>
</event>
<event>
 9    1  0.1487426E-004  0.1275742E+03  0.7546771E-02  0.1253363E+00
         21   -1    0    0  501  502  0.00000000000E+00  0.00000000000E+00  0.81579149395E+02  0.81579149395E+02  0.00000000000E+00 0. -1.
         -2   -1    0    0    0  501 -0.00000000000E+00 -0.00000000000E+00 -0.29042994626E+03  0.29042994626E+03  0.00000000000E+00 0.  1.
        -24    2    1    2    0    0  0.16067625700E+02  0.44945266983E+01 -0.97602365199E+02  0.12702946409E+03  0.79573197042E+02 0.  0.
         23    2    1    2    0    0 -0.71277073573E+02  0.62522421129E+02 -0.59709997477E+02  0.14400654293E+03  0.90460633686E+02 0.  0.
         11    1    3    3    0    0 -0.15294071506E+02  0.34438728613E+02 -0.50467151944E+02  0.62983077704E+02  0.00000000000E+00 0. -1.
        -12    1    3    3    0    0  0.31361697207E+02 -0.29944201914E+02 -0.47135213255E+02  0.64046386382E+02  0.00000000000E+00 0.  1.
        -11    1    4    4    0    0 -0.38511183233E+02  0.72320747007E+02 -0.84291475798E+01  0.82367786243E+02  0.00000000000E+00 0. -1.
         11    1    4    4    0    0 -0.32765890340E+02 -0.97983258775E+01 -0.51280849897E+02  0.61638756687E+02  0.00000000000E+00 0.  1.
         -1    1    1    2    0  502  0.55209447873E+02 -0.67016947828E+02 -0.51538434187E+02  0.10097308864E+03  0.00000000000E+00 0.  1.
<scales pt_clust_5="13000.00000" pt_clust_6="13000.00000" pt_clust_7="13000.00000" pt_clust_8="13000.00000" pt_clust_9="89.95580"></scales>
<clustering>
<clus scale="   79.573">  5  6 -1 -1</clus>
<clus scale="   81.304">  2  5  1 -1</clus>
<clus scale="   89.956">  1  9  2 -1</clus>
<clus scale="   90.461">  7  8 -1 -1</clus>
<clus scale="   89.956">  1  5  2 -1</clus>
</clustering>
</event>
<event>
 9    1  0.1487426E-004  0.9283097E+02  0.7546771E-02  0.1302304E+00
         -4   -1    0    0    0  501 -0.00000000000E+00  0.00000000000E+00  0.78561906301E+03  0.78561906301E+03  0.00000000000E+00 0.  1.
         21   -1    0    0  501  502  0.00000000000E+00 -0.00000000000E+00 -0.35454335645E+02  0.35454335645E+02  0.00000000000E+00 0.  1.
        -24    2    1    2    0    0 -0.25816237407E+02  0.60528203057E+01  0.55479031327E+03  0.56120401353E+03  0.80340141621E+02 0.  0.
         23    2    1    2    0    0 -0.12528707562E+02 -0.26451945384E+02  0.19435445707E+03  0.21642402380E+03  0.90603692889E+02 0.  0.
         11    1    3    3    0    0  0.61156494701E+01  0.34682852317E+02  0.14678187198E+03  0.15094773717E+03  0.00000000000E+00 0. -1.
        -12    1    3    3    0    0 -0.31931886878E+02 -0.28630032011E+02  0.40800844128E+03  0.41025627636E+03  0.00000000000E+00 0.  1.
        -11    1    4    4    0    0  0.16453464787E+02 -0.52973817944E+02  0.10316936805E+03  0.11713607640E+03  0.00000000000E+00 0. -1.
         11    1    4    4    0    0 -0.28982172349E+02  0.26521872559E+02  0.91185089021E+02  0.99287947395E+02  0.00000000000E+00 0.  1.
         -3    1    1    2    0  502  0.38344944969E+02  0.20399125079E+02  0.10199570237E+01  0.43445361329E+02  0.00000000000E+00 0.  1.
<scales pt_clust_5="13000.00000" pt_clust_6="13000.00000" pt_clust_7="13000.00000" pt_clust_8="13000.00000" pt_clust_9="43.43339"></scales>
<clustering>
<clus scale="   43.433">  2  9  1 -1</clus>
<clus scale="   80.340">  5  6 -1 -1</clus>
<clus scale="   82.844">  1  5  2 -1</clus>
<clus scale="   90.604">  7  8 -1 -1</clus>
<clus scale="   43.433">  2  5  1 -1</clus>
</clustering>
</event>
<event>
 9    1  0.1487426E-004  0.2200389E+03  0.7546771E-02  0.1134515E+00
          1   -1    0    0  502    0 -0.00000000000E+00  0.00000000000E+00  0.10403281069E+04  0.10403281069E+04  0.00000000000E+00 0. -1.
         21   -1    0    0  501  502  0.00000000000E+00 -0.00000000000E+00 -0.73682188007E+02  0.73682188007E+02  0.00000000000E+00 0. -1.
         23    2    1    2    0    0 -0.14291612794E+03  0.14603474991E+03  0.79358173483E+03  0.82451585526E+03  0.91122214106E+02 0.  0.
        -24    2    1    2    0    0  0.14513370409E+03 -0.11926545775E+03  0.15609492269E+03  0.25772230598E+03  0.82262510519E+02 0.  0.
         13    1    4    4    0    0  0.10728726361E+03 -0.47310395665E+02  0.59567859682E+02  0.13151866931E+03  0.00000000000E+00 0. -1.
        -14    1    4    4    0    0  0.37846440485E+02 -0.71955062080E+02  0.96527063006E+02  0.12620363667E+03  0.00000000000E+00 0.  1.
        -13    1    3    3    0    0 -0.27520653071E+02  0.78886172614E+02  0.40820759289E+03  0.41666995749E+03  0.00000000000E+00 0.  1.
         13    1    3    3    0    0 -0.11539547487E+03  0.67148577292E+02  0.38537414194E+03  0.40784589777E+03  0.00000000000E+00 0. -1.
          2    1    1    2  501    0 -0.22175761466E+01 -0.26769292161E+02  0.16969261384E+02  0.31772133682E+02  0.00000000000E+00 0. -1.
<scales pt_clust_5="13000.00000" pt_clust_6="13000.00000" pt_clust_7="13000.00000" pt_clust_8="13000.00000" pt_clust_9="26.86099"></scales>
<clustering>
<clus scale="   26.861">  2  9  1 -1</clus>
<clus scale="   82.263">  5  6 -1 -1</clus>
<clus scale="   91.122">  7  8 -1 -1</clus>
<clus scale="  216.520">  2  5  1 -1</clus>
<clus scale="   26.861">  2  5  1 -1</clus>
</clustering>
</event>
<event>
 9    1  0.1487426E-004  0.8982801E+02  0.7546771E-02  0.1303526E+00
         21   -1    0    0  501  502  0.00000000000E+00  0.00000000000E+00  0.31922703640E+03  0.31922703640E+03  0.00000000000E+00 0. -1.
          1   -1    0    0  502    0 -0.00000000000E+00 -0.00000000000E+00 -0.18127092504E+03  0.18127092504E+03  0.00000000000E+00 0. -1.
         23    2    1    2    0    0 -0.24741991258E+02 -0.41302347794E+02 -0.13119207540E+03  0.16161689797E+03  0.81182578169E+02 0.  0.
        -24    2    1    2    0    0  0.22347628531E+02 -0.26706744148E+02  0.35628080422E+02  0.95647411145E+02  0.81648027902E+02 0.  0.
         11    1    4    4    0    0 -0.58376715327E+01 -0.44663769941E+02  0.42044899258E+02  0.61617402639E+02  0.00000000000E+00 0. -1.
        -12    1    4    4    0    0  0.28185300063E+02  0.17957025793E+02 -0.64168188363E+01  0.34030008507E+02  0.00000000000E+00 0.  1.
        -13    1    3    3    0    0 -0.44203803585E+02 -0.54970461954E+02 -0.10067241141E+03  0.12292543414E+03  0.00000000000E+00 0. -1.
         13    1    3    3    0    0  0.19461812327E+02  0.13668114160E+02 -0.30519663990E+02  0.38691463836E+02  0.00000000000E+00 0.  1.
          2    1    1    2  501    0  0.23943627277E+01  0.68009091943E+02  0.23352010633E+03  0.24323365232E+03  0.00000000000E+00 0. -1.
<scales pt_clust_5="13000.00000" pt_clust_6="13000.00000" pt_clust_7="13000.00000" pt_clust_8="13000.00000" pt_clust_9="68.05123"></scales>
<clustering>
<clus scale="   68.051">  1  9  2 -1</clus>
<clus scale="   81.183">  7  8 -1 -1</clus>
<clus scale="   81.648">  5  6 -1 -1</clus>
<clus scale="   89.405">  2  7  1 -1</clus>
<clus scale="   68.051">  1  5  2 -1</clus>
</clustering>
</event>
<event>
 9    1  0.1487426E-004  0.1008831E+03  0.7546771E-02  0.1281598E+00
          1   -1    0    0  502    0 -0.00000000000E+00  0.00000000000E+00  0.14167675443E+03  0.14167675443E+03  0.00000000000E+00 0. -1.
         21   -1    0    0  501  502  0.00000000000E+00 -0.00000000000E+00 -0.20048421902E+03  0.20048421902E+03  0.00000000000E+00 0. -1.
         23    2    1    2    0    0  0.56320551106E+02 -0.81523396844E+01  0.62578471367E+02  0.12379741915E+03  0.90395081673E+02 0.  0.
        -24    2    1    2    0    0  0.17278557311E+01  0.54310266321E+02 -0.38228592591E+02  0.10693951971E+03  0.83797643587E+02 0.  0.
         13    1    4    4    0    0 -0.10216885348E+02  0.69368741988E+02 -0.48394077370E+02  0.85196207871E+02  0.00000000000E+00 0. -1.
        -14    1    4    4    0    0  0.11944741079E+02 -0.15058475667E+02  0.10165484779E+02  0.21743311837E+02  0.00000000000E+00 0.  1.
        -11    1    3    3    0    0 -0.16149142500E+02 -0.19625508450E+02  0.39334881050E+02  0.46831487833E+02  0.00000000000E+00 0.  1.
         11    1    3    3    0    0  0.72469693606E+02  0.11473168766E+02  0.23243590316E+02  0.76965931318E+02  0.00000000000E+00 0. -1.
          2    1    1    2  501    0 -0.58048406837E+02 -0.46157926636E+02 -0.83157343368E+02  0.11142403459E+03  0.00000000000E+00 0. -1.
<scales pt_clust_5="13000.00000" pt_clust_6="13000.00000" pt_clust_7="13000.00000" pt_clust_8="13000.00000" pt_clust_9="74.16314"></scales>
<clustering>
<clus scale="   74.163">  2  9  1 -1</clus>
<clus scale="   83.798">  5  6 -1 -1</clus>
<clus scale="   90.395">  7  8 -1 -1</clus>
<clus scale="   95.017">  2  5  1 -1</clus>
<clus scale="   74.163">  2  5  1 -1</clus>
</clustering>
</event>
<event>
 9    1  0.1487426E-004  0.1627544E+03  0.7546771E-02  0.1187391E+00
         -4   -1    0    0    0  501 -0.00000000000E+00  0.00000000000E+00  0.40887442244E+03  0.40887442244E+03  0.00000000000E+00 0.  1.
         21   -1    0    0  501  502  0.00000000000E+00 -0.00000000000E+00 -0.50990249783E+03  0.50990249783E+03  0.00000000000E+00 0. -1.
         23    2    1    2    0    0  0.10494469208E+03  0.78591669977E+02  0.35785952280E+03  0.39239899377E+03  0.93399642744E+02 0.  0.
        -24    2    1    2    0    0 -0.15744746784E+03 -0.96152215768E+02 -0.37461023933E+03  0.42554347085E+03  0.81972315095E+02 0.  0.
         13    1    4    4    0    0 -0.70525170384E+02 -0.47754582296E+02 -0.26092059387E+03  0.27447013698E+03  0.00000000000E+00 0. -1.
        -14    1    4    4    0    0 -0.86922297460E+02 -0.48397633472E+02 -0.11368964547E+03  0.15107333387E+03  0.00000000000E+00 0.  1.
        -11    1    3    3    0    0  0.66598395147E+02  0.50362017397E+02  0.32238075980E+03  0.33301806756E+03  0.00000000000E+00 0.  1.
         11    1    3    3    0    0  0.38346296934E+02  0.28229652580E+02  0.35478763005E+02  0.59380926211E+02  0.00000000000E+00 0. -1.
         -3    1    1    2    0  502  0.52502775764E+02  0.17560545791E+02 -0.84277358852E+02  0.10083445565E+03  0.00000000000E+00 0.  1.
<scales pt_clust_5="13000.00000" pt_clust_6="13000.00000" pt_clust_7="13000.00000" pt_clust_8="13000.00000" pt_clust_9="55.36167"></scales>
<clustering>
<clus scale="   55.362">  2  9  1 -1</clus>
<clus scale="   81.972">  5  6 -1 -1</clus>
<clus scale="   93.400">  7  8 -1 -1</clus>
<clus scale="  156.477">  2  5  1 -1</clus>
<clus scale="   55.362">  2  5  1 -1</clus>
</clustering>
</event>
<event>
 9    1  0.1487426E-004  0.2857911E+03  0.7546771E-02  0.1092949E+00
         21   -1    0    0  501  502  0.00000000000E+00  0.00000000000E+00  0.26423594241E+03  0.26423594241E+03  0.00000000000E+00 0. -1.
          1   -1    0    0  502    0 -0.00000000000E+00 -0.00000000000E+00 -0.10745709965E+04  0.10745709965E+04  0.00000000000E+00 0. -1.
         23    2    1    2    0    0 -0.26507501538E+03  0.46171150343E+01 -0.13926521862E+03  0.31291308459E+03  0.90739825127E+02 0.  0.
        -24    2    1    2    0    0  0.23142844440E+03  0.27161993172E+03 -0.82965133061E+02  0.37527404311E+03  0.81307330208E+02 0.  0.
         13    1    4    4    0    0  0.17477069533E+03  0.21351154728E+03 -0.28180670944E+02  0.27735559663E+03  0.00000000000E+00 0. -1.
        -14    1    4    4    0    0  0.56657749070E+02  0.58108384441E+02 -0.54784462117E+02  0.97918446482E+02  0.00000000000E+00 0.  1.
        -13    1    3    3    0    0 -0.22350434320E+03  0.57845187431E+01 -0.15088961043E+03  0.26973195328E+03  0.00000000000E+00 0.  1.
         13    1    3    3    0    0 -0.41570672176E+02 -0.11674037089E+01  0.11624391804E+02  0.43181131312E+02  0.00000000000E+00 0. -1.
          2    1    1    2  501    0  0.33646570975E+02 -0.27623704675E+03 -0.58810470238E+03  0.65061981118E+03  0.00000000000E+00 0. -1.
<scales pt_clust_5="13000.00000" pt_clust_6="13000.00000" pt_clust_7="13000.00000" pt_clust_8="13000.00000" pt_clust_9="278.27877"></scales>
<clustering>
<clus scale="   81.307">  5  6 -1 -1</clus>
<clus scale="   90.740">  7  8 -1 -1</clus>
<clus scale="  278.279">  1  9  2 -1</clus>
<clus scale="  282.938">  1  5  2 -1</clus>
<clus scale="  278.279">  1  5  2 -1</clus>
</clustering>
</event>
<event>
 9    1  0.1487426E-004  0.1714727E+03  0.7546771E-02  0.1202075E+00
         21   -1    0    0  501  502  0.00000000000E+00  0.00000000000E+00  0.27517330249E+03  0.27517330249E+03  0.00000000000E+00 0. -1.
          1   -1    0    0  502    0 -0.00000000000E+00 -0.00000000000E+00 -0.16923512129E+03  0.16923512129E+03  0.00000000000E+00 0. -1.
         23    2    1    2    0    0  0.10842643689E+02  0.30784551343E+02  0.61955953991E+02  0.11508451140E+03  0.91327175619E+02 0.  0.
        -24    2    1    2    0    0  0.19291149290E+02 -0.16584282157E+03  0.12990961891E+02  0.18751685909E+03  0.84367158570E+02 0.  0.
         11    1    4    4    0    0  0.34924850256E+02 -0.12237698297E+03 -0.22535898141E+02  0.12924294113E+03  0.00000000000E+00 0. -1.
        -12    1    4    4    0    0 -0.15633700965E+02 -0.43465838598E+02  0.35526860031E+02  0.58273917962E+02  0.00000000000E+00 0.  1.
        -11    1    3    3    0    0 -0.39105891697E+02  0.16350869809E+01  0.25893484993E+02  0.46929914127E+02  0.00000000000E+00 0.  1.
         11    1    3    3    0    0  0.49948535386E+02  0.29149464362E+02  0.36062468999E+02  0.68154597277E+02  0.00000000000E+00 0. -1.
          2    1    1    2  501    0 -0.30133792979E+02  0.13505827023E+03  0.30991265321E+02  0.14180705329E+03  0.00000000000E+00 0. -1.
<scales pt_clust_5="13000.00000" pt_clust_6="13000.00000" pt_clust_7="13000.00000" pt_clust_8="13000.00000" pt_clust_9="149.28181"></scales>
<clustering>
<clus scale="   84.367">  5  6 -1 -1</clus>
<clus scale="   91.327">  7  8 -1 -1</clus>
<clus scale="   96.984">  2  7  1 -1</clus>
<clus scale="  149.282">  1  9  2 -1</clus>
<clus scale="  149.282">  1  5  2 -1</clus>
</clustering>
</event>
<event>
 9    1  0.1487426E-004  0.2570441E+03  0.7546771E-02  0.1109458E+00
         21   -1    0    0  501  502  0.00000000000E+00  0.00000000000E+00  0.11641783639E+03  0.11641783639E+03  0.00000000000E+00 0. -1.
          1   -1    0    0  502    0 -0.00000000000E+00 -0.00000000000E+00 -0.11859644159E+04  0.11859644159E+04  0.00000000000E+00 0. -1.
         23    2    1    2    0    0  0.20441457947E+03 -0.14245618088E+02 -0.41024004900E+03  0.46606545538E+03  0.83257750114E+02 0.  0.
        -24    2    1    2    0    0 -0.34423783690E+03 -0.60479834677E+01 -0.34968618309E+03  0.49598294152E+03  0.71988785127E+02 0.  0.
         11    1    4    4    0    0 -0.32285168636E+03 -0.10554604366E+01 -0.34682293151E+03  0.47383591169E+03  0.00000000000E+00 0. -1.
        -12    1    4    4    0    0 -0.21386150538E+02 -0.49925230311E+01 -0.28632515780E+01  0.22147029838E+02  0.00000000000E+00 0.  1.
        -13    1    3    3    0    0  0.32274124980E+02 -0.34008894043E+02 -0.10681928974E+03  0.11665583860E+03  0.00000000000E+00 0.  1.
         13    1    3    3    0    0  0.17214045449E+03  0.19763275955E+02 -0.30342075926E+03  0.34940961678E+03  0.00000000000E+00 0. -1.
          2    1    1    2  501    0  0.13982325743E+03  0.20293601555E+02 -0.30962034737E+03  0.34033385533E+03  0.00000000000E+00 0. -1.
<scales pt_clust_5="13000.00000" pt_clust_6="13000.00000" pt_clust_7="13000.00000" pt_clust_8="13000.00000" pt_clust_9="141.28833"></scales>
<clustering>
<clus scale="   71.989">  5  6 -1 -1</clus>
<clus scale="   83.258">  7  8 -1 -1</clus>
<clus scale="  141.288">  1  9  2 -1</clus>
<clus scale="  253.618">  1  5  2 -1</clus>
<clus scale="  141.288">  1  5  2 -1</clus>
</clustering>
</event>
<event>
 9    1  0.1487426E-004  0.1773837E+03  0.7546771E-02  0.1171739E+00
         -2   -1    0    0    0  501 -0.00000000000E+00  0.00000000000E+00  0.51634434192E+03  0.51634434192E+03  0.00000000000E+00 0.  1.
         21   -1    0    0  501  502  0.00000000000E+00 -0.00000000000E+00 -0.10467329204E+03  0.10467329204E+03  0.00000000000E+00 0. -1.
         23    2    1    2    0    0  0.17219754740E+03  0.88113216470E+00  0.21088673664E+03  0.28740222992E+03  0.92054626977E+02 0.  0.
        -24    2    1    2    0    0 -0.11776572478E+03 -0.20738645176E+02  0.22488041985E+02  0.14614086049E+03  0.80948018728E+02 0.  0.
         13    1    4    4    0    0 -0.64883608710E+02  0.68081447492E+01 -0.25049601704E+02  0.69883589344E+02  0.00000000000E+00 0. -1.
        -14    1    4    4    0    0 -0.52882116072E+02 -0.27546789925E+02  0.47537643688E+02  0.76257271147E+02  0.00000000000E+00 0.  1.
        -11    1    3    3    0    0  0.59095234649E+02  0.26324085918E+02  0.27170941590E+02  0.70167402151E+02  0.00000000000E+00 0.  1.
         11    1    3    3    0    0  0.11310231275E+03 -0.25442953754E+02  0.18371579505E+03  0.21723482777E+03  0.00000000000E+00 0. -1.
         -1    1    1    2    0  502 -0.54431822623E+02  0.19857513011E+02  0.17829627125E+03  0.18747454355E+03  0.00000000000E+00 0.  1.
<scales pt_clust_5="13000.00000" pt_clust_6="13000.00000" pt_clust_7="13000.00000" pt_clust_8="13000.00000" pt_clust_9="57.94090"></scales>
<clustering>
<clus scale="   57.941">  2  9  1 -1</clus>
<clus scale="   80.948">  5  6 -1 -1</clus>
<clus scale="   92.055">  7  8 -1 -1</clus>
<clus scale="  171.882">  2  5  1 -1</clus>
<clus scale="   57.941">  2  5  1 -1</clus>
</clustering>
</event>
<event>
 9    1  0.1487426E-004  0.9360093E+02  0.7546771E-02  0.1301635E+00
          3   -1    0    0  502    0 -0.00000000000E+00  0.00000000000E+00  0.42469394154E+02  0.42469394154E+02  0.00000000000E+00 0. -1.
         21   -1    0    0  501  502  0.00000000000E+00 -0.00000000000E+00 -0.50790748263E+03  0.50790748263E+03  0.00000000000E+00 0. -1.
         23    2    1    2    0    0  0.16870845775E+02 -0.10114514575E+02 -0.28653379141E+02  0.97987429467E+02  0.91616545203E+02 0.  0.
        -24    2    1    2    0    0 -0.24885319342E+02 -0.14753080967E+02 -0.25358732375E+03  0.26733834309E+03  0.79538207156E+02 0.  0.
         13    1    4    4    0    0  0.57883584599E+01 -0.38216088226E+02 -0.72299881939E+02  0.81983214266E+02  0.00000000000E+00 0. -1.
        -14    1    4    4    0    0 -0.30673677802E+02  0.23463007259E+02 -0.18128744182E+03  0.18535512882E+03  0.00000000000E+00 0.  1.
        -13    1    3    3    0    0 -0.65356788490E+01  0.24852214916E+02 -0.45826906396E+02  0.52540013647E+02  0.00000000000E+00 0.  1.
         13    1    3    3    0    0  0.23406524624E+02 -0.34966729491E+02  0.17173527254E+02  0.45447415819E+02  0.00000000000E+00 0. -1.
          4    1    1    2  501    0  0.80144735671E+01  0.24867595542E+02 -0.18319738558E+03  0.18505110424E+03  0.00000000000E+00 0. -1.
<scales pt_clust_5="13000.00000" pt_clust_6="13000.00000" pt_clust_7="13000.00000" pt_clust_8="13000.00000" pt_clust_9="26.12717"></scales>
<clustering>
<clus scale="   26.127">  2  9  1 -1</clus>
<clus scale="   79.538">  5  6 -1 -1</clus>
<clus scale="   81.816">  2  5  1 -1</clus>
<clus scale="   91.617">  7  8 -1 -1</clus>
<clus scale="   26.127">  2  5  1 -1</clus>
</clustering>
</event>
<event>
 9    1  0.1487426E-004  0.2519284E+03  0.7546771E-02  0.1135166E+00
         21   -1    0    0  501  502  0.00000000000E+00  0.00000000000E+00  0.69263496527E+03  0.69263496527E+03  0.00000000000E+00 0. -1.
          1   -1    0    0  502    0 -0.00000000000E+00 -0.00000000000E+00 -0.20935963086E+03  0.20935963086E+03  0.00000000000E+00 0. -1.
        -24    2    1    2    0    0 -0.11421697813E+03 -0.81275282040E+01 -0.66817783855E+02  0.15693533067E+03  0.83979205556E+02 0.  0.
         23    2    1    2    0    0 -0.16994858789E+03 -0.75535544787E+01  0.11315258625E+03  0.22360649312E+03  0.90866810652E+02 0.  0.
         13    1    3    3    0    0 -0.85710759738E+02 -0.33197056495E+02 -0.15673012179E+02  0.93241740683E+02  0.00000000000E+00 0. -1.
        -14    1    3    3    0    0 -0.28506218389E+02  0.25069528291E+02 -0.51144771677E+02  0.63693589987E+02  0.00000000000E+00 0.  1.
        -13    1    4    4    0    0 -0.59434517424E+02  0.39325839945E+02  0.56070862097E+02  0.90680345859E+02  0.00000000000E+00 0. -1.
         13    1    4    4    0    0 -0.11051407047E+03 -0.46879394424E+02  0.57081724152E+02  0.13292614726E+03  0.00000000000E+00 0.  1.
          2    1    1    2  501    0  0.28416556602E+03  0.15681082683E+02  0.43694053201E+03  0.52145277234E+03  0.00000000000E+00 0. -1.
<scales pt_clust_5="13000.00000" pt_clust_6="13000.00000" pt_clust_7="13000.00000" pt_clust_8="13000.00000" pt_clust_9="234.97053"></scales>
<clustering>
<clus scale="   83.979">  5  6 -1 -1</clus>
<clus scale="   90.867">  7  8 -1 -1</clus>
<clus scale="  142.000">  2  5  1 -1</clus>
<clus scale="  234.971">  1  9  2 -1</clus>
<clus scale="  234.971">  1  5  2 -1</clus>
</clustering>
</event>
<event>
 9    1  0.1487426E-004  0.1595687E+03  0.7546771E-02  0.1201067E+00
         21   -1    0    0  501  502  0.00000000000E+00  0.00000000000E+00  0.60890913007E+03  0.60890913007E+03  0.00000000000E+00 0. -1.
          1   -1    0    0  502    0 -0.00000000000E+00 -0.00000000000E+00 -0.45913530369E+03  0.45913530369E+03  0.00000000000E+00 0. -1.
         23    2    1    2    0    0 -0.49837731896E+02  0.66397066969E+02  0.58856647627E+01  0.12314559092E+03  0.90762467416E+02 0.  0.
        -24    2    1    2    0    0  0.88544097508E+02  0.67779542331E+02 -0.37939622087E+03  0.40330112296E+03  0.79222344146E+02 0.  0.
         13    1    4    4    0    0  0.41900550843E+02  0.84494742335E+01 -0.24898004402E+03  0.25262246950E+03  0.00000000000E+00 0. -1.
        -14    1    4    4    0    0  0.46643546665E+02  0.59330068097E+02 -0.13041617685E+03  0.15067865347E+03  0.00000000000E+00 0.  1.
        -11    1    3    3    0    0 -0.44716734331E+02 -0.53392952140E+01  0.20945262565E+02  0.49666874540E+02  0.00000000000E+00 0.  1.
         11    1    3    3    0    0 -0.51209975649E+01  0.71736362183E+02 -0.15059597803E+02  0.73478716383E+02  0.00000000000E+00 0. -1.
          2    1    1    2  501    0 -0.38706365612E+02 -0.13417660930E+03  0.52328438248E+03  0.54159771988E+03  0.00000000000E+00 0. -1.
<scales pt_clust_5="13000.00000" pt_clust_6="13000.00000" pt_clust_7="13000.00000" pt_clust_8="13000.00000" pt_clust_9="138.51349"></scales>
<clustering>
<clus scale="   79.222">  5  6 -1 -1</clus>
<clus scale="   90.762">  7  8 -1 -1</clus>
<clus scale="  123.005">  2  7  1 -1</clus>
<clus scale="  138.513">  1  9  2 -1</clus>
<clus scale="  138.513">  1  5  2 -1</clus>
</clustering>
</event>
<event>
 9    1  0.2497768E-004  0.1488468E+03  0.7546771E-02  0.1202764E+00
          1   -1    0    0  502    0 -0.00000000000E+00  0.00000000000E+00  0.81777681939E+03  0.81777681939E+03  0.00000000000E+00 0. -1.
         21   -1    0    0  501  502  0.00000000000E+00 -0.00000000000E+00 -0.16113890447E+03  0.16113890447E+03  0.00000000000E+00 0. -1.
         23    2    1    2    0    0 -0.88257839329E+02 -0.84531540123E+02  0.62428689280E+03  0.64204363365E+03  0.86895773847E+02 0.  0.
        -24    2    1    2    0    0  0.86507619665E+02  0.50898008148E+02 -0.12251860942E+03  0.17838271985E+03  0.82069541210E+02 0.  0.
         11    1    4    4    0    0  0.64668485707E+02 -0.69859250172E+01 -0.44493982940E+02  0.78806920444E+02  0.00000000000E+00 0. -1.
        -12    1    4    4    0    0  0.21839133958E+02  0.57883933165E+02 -0.78024626478E+02  0.99575799408E+02  0.00000000000E+00 0.  1.
        -13    1    3    3    0    0  0.17170788778E+02 -0.12985031665E+02  0.66854029109E+02  0.70234665534E+02  0.00000000000E+00 0.  1.
         13    1    3    3    0    0 -0.10542862811E+03 -0.71546508458E+02  0.55743286369E+03  0.57180896812E+03  0.00000000000E+00 0. -1.
          2    1    1    2  501    0  0.17502196637E+01  0.33633531975E+02  0.15486963153E+03  0.15848937035E+03  0.00000000000E+00 0. -1.
<scales pt_clust_5="13000.00000" pt_clust_6="13000.00000" pt_clust_7="13000.00000" pt_clust_8="13000.00000" pt_clust_9="33.67906"></scales>
<clustering>
<clus scale="   33.679">  2  9  1 -1</clus>
<clus scale="   82.070">  5  6 -1 -1</clus>
<clus scale="   86.896">  7  8 -1 -1</clus>
<clus scale="  146.082">  2  5  1 -1</clus>
<clus scale="   33.679">  2  5  1 -1</clus>
</clustering>
</event>
<event>
 9    1  0.1487426E-004  0.9450203E+02  0.7546771E-02  0.1300924E+00
          1   -1    0    0  502    0 -0.00000000000E+00  0.00000000000E+00  0.41122701517E+03  0.41122701517E+03  0.00000000000E+00 0. -1.
         21   -1    0    0  501  502  0.00000000000E+00 -0.00000000000E+00 -0.36620287812E+02  0.36620287812E+02  0.00000000000E+00 0. -1.
         23    2    1    2    0    0  0.10023493189E+02 -0.99374492317E+01  0.15129813318E+03  0.17872140862E+03  0.94079718760E+02 0.  0.
        -24    2    1    2    0    0 -0.69585569210E+01 -0.13050452206E+02  0.52754948272E+02  0.97002730384E+02  0.80048168733E+02 0.  0.
         11    1    4    4    0    0 -0.96141927527E+01 -0.43361610959E+02  0.49337547093E+02  0.66384151425E+02  0.00000000000E+00 0. -1.
        -12    1    4    4    0    0  0.26556358317E+01  0.30311158753E+02  0.34174011788E+01  0.30618578959E+02  0.00000000000E+00 0.  1.
        -11    1    3    3    0    0  0.37835460189E+02  0.21830280288E+02  0.11508797789E+03  0.12309884581E+03  0.00000000000E+00 0. -1.
         11    1    3    3    0    0 -0.27811967000E+02 -0.31767729519E+02  0.36210155292E+02  0.55622562809E+02  0.00000000000E+00 0.  1.
          2    1    1    2  501    0 -0.30649362679E+01  0.22987901438E+02  0.17055364590E+03  0.17212316397E+03  0.00000000000E+00 0. -1.
<scales pt_clust_5="13000.00000" pt_clust_6="13000.00000" pt_clust_7="13000.00000" pt_clust_8="13000.00000" pt_clust_9="23.19133"></scales>
<clustering>
<clus scale="   23.191">  2  9  1 -1</clus>
<clus scale="   80.048">  5  6 -1 -1</clus>
<clus scale="   80.544">  2  5  1 -1</clus>
<clus scale="   94.080">  7  8 -1 -1</clus>
<clus scale="   23.191">  2  5  1 -1</clus>
</clustering>
</event>
<event>
 9    1  0.1487426E-004  0.8315280E+02  0.7546771E-02  0.1323468E+00
         -4   -1    0    0    0  501 -0.00000000000E+00  0.00000000000E+00  0.19127314696E+03  0.19127314696E+03  0.00000000000E+00 0.  1.
         21   -1    0    0  501  502  0.00000000000E+00 -0.00000000000E+00 -0.16870447383E+03  0.16870447383E+03  0.00000000000E+00 0. -1.
         23    2    1    2    0    0 -0.17934438975E+02 -0.15526828489E+02  0.35128801117E+02  0.87689163924E+02  0.76763469811E+02 0.  0.
        -24    2    1    2    0    0 -0.33727508685E+02  0.68104587713E+01 -0.12218634008E+03  0.15078603584E+03  0.81381814385E+02 0.  0.
         11    1    4    4    0    0 -0.11835528958E+02  0.40223397148E+02 -0.90701153123E+02  0.99923473727E+02  0.00000000000E+00 0. -1.
        -12    1    4    4    0    0 -0.21891979727E+02 -0.33412938377E+02 -0.31485186955E+02  0.50862562115E+02  0.00000000000E+00 0.  1.
        -13    1    3    3    0    0  0.23259396459E+01 -0.30034297602E+02 -0.13528185052E+02  0.33022429021E+02  0.00000000000E+00 0.  1.
         13    1    3    3    0    0 -0.20260378621E+02  0.14507469113E+02  0.48656986168E+02  0.54666734903E+02  0.00000000000E+00 0. -1.
         -3    1    1    2    0  502  0.51661947660E+02  0.87163697172E+01  0.10962621209E+03  0.12150242102E+03  0.00000000000E+00 0.  1.
<scales pt_clust_5="13000.00000" pt_clust_6="13000.00000" pt_clust_7="13000.00000" pt_clust_8="13000.00000" pt_clust_9="52.39212"></scales>
<clustering>
<clus scale="   52.392">  2  9  1 -1</clus>
<clus scale="   76.763">  7  8 -1 -1</clus>
<clus scale="   78.639">  1  7  2 -1</clus>
<clus scale="   81.382">  5  6 -1 -1</clus>
<clus scale="   52.392">  2  5  1 -1</clus>
</clustering>
</event>
<event>
 9    1  0.1487426E-004  0.1272352E+03  0.7546771E-02  0.1251106E+00
          3   -1    0    0  502    0 -0.00000000000E+00  0.00000000000E+00  0.11683688664E+03  0.11683688664E+03  0.00000000000E+00 0. -1.
         21   -1    0    0  501  502  0.00000000000E+00 -0.00000000000E+00 -0.66737973344E+03  0.66737973344E+03  0.00000000000E+00 0. -1.
        -24    2    1    2    0    0 -0.38048503745E+02  0.81473079019E+01  0.72277912082E+02  0.11212460790E+03  0.76379079980E+02 0.  0.
         23    2    1    2    0    0 -0.15232007581E+01  0.75156831919E+02 -0.15468790026E+03  0.19496113619E+03  0.91818454641E+02 0.  0.
         13    1    3    3    0    0 -0.60591429345E+02  0.99235062872E+01  0.42234492009E+02  0.74522141692E+02  0.00000000000E+00 0. -1.
        -14    1    3    3    0    0  0.22542925600E+02 -0.17761983853E+01  0.30043420073E+02  0.37602466209E+02  0.00000000000E+00 0.  1.
        -11    1    4    4    0    0  0.44197234375E+02  0.42175763246E+02 -0.66575271105E+02  0.90357386275E+02  0.00000000000E+00 0.  1.
         11    1    4    4    0    0 -0.45720435133E+02  0.32981068673E+02 -0.88112629154E+02  0.10460374991E+03  0.00000000000E+00 0. -1.
          4    1    1    2  501    0  0.39571704503E+02 -0.83304139821E+02 -0.46813285862E+03  0.47713087600E+03  0.00000000000E+00 0. -1.
<scales pt_clust_5="13000.00000" pt_clust_6="13000.00000" pt_clust_7="13000.00000" pt_clust_8="13000.00000" pt_clust_9="88.08050"></scales>
<clustering>
<clus scale="   76.379">  5  6 -1 -1</clus>
<clus scale="   85.719">  1  5  2 -1</clus>
<clus scale="   88.080">  2  9  1 -1</clus>
<clus scale="   91.818">  7  8 -1 -1</clus>
<clus scale="   88.080">  2  5  1 -1</clus>
</clustering>
</event>
<event>
 9    1  0.1487426E-004  0.1932713E+03  0.7546771E-02  0.1186203E+00
          1   -1    0    0  502    0 -0.00000000000E+00  0.00000000000E+00  0.13626234132E+03  0.13626234132E+03  0.00000000000E+00 0. -1.
         21   -1    0    0  501  502  0.00000000000E+00 -0.00000000000E+00 -0.61024022981E+03  0.61024022981E+03  0.00000000000E+00 0. -1.
        -24    2    1    2    0    0 -0.43501153396E+02 -0.42472545662E+02  0.29500202317E+02  0.10037471662E+03  0.74219635667E+02 0.  0.
         23    2    1    2    0    0 -0.11265189785E+03 -0.61590921510E+02 -0.65029795479E+02  0.16921078805E+03  0.88991711924E+02 0.  0.
         11    1    3    3    0    0 -0.46234936420E+02 -0.48984248099E+02  0.46578143157E+02  0.81894134879E+02  0.00000000000E+00 0. -1.
        -12    1    3    3    0    0  0.27337830241E+01  0.65117024373E+01 -0.17077940840E+02  0.18480581744E+02  0.00000000000E+00 0.  1.
        -11    1    4    4    0    0 -0.48425808847E+02 -0.49128060279E+02 -0.76258730027E+02  0.10283004996E+03  0.00000000000E+00 0. -1.
         11    1    4    4    0    0 -0.64226089000E+02 -0.12462861231E+02  0.11228934548E+02  0.66380738090E+02  0.00000000000E+00 0.  1.
          2    1    1    2  501    0  0.15615305124E+03  0.10406346717E+03 -0.43844829533E+03  0.47691706647E+03  0.00000000000E+00 0. -1.
<scales pt_clust_5="13000.00000" pt_clust_6="13000.00000" pt_clust_7="13000.00000" pt_clust_8="13000.00000" pt_clust_9="171.56420"></scales>
<clustering>
<clus scale="   74.220">  5  6 -1 -1</clus>
<clus scale="   88.992">  7  8 -1 -1</clus>
<clus scale="   95.942">  1  5  2 -1</clus>
<clus scale="  171.564">  2  9  1 -1</clus>
<clus scale="  171.564">  2  5  1 -1</clus>
</clustering>
</event>
<event>
 9    1  0.1487426E-004  0.1245615E+03  0.7546771E-02  0.1237641E+00
         21   -1    0    0  501  502  0.00000000000E+00  0.00000000000E+00  0.11520859599E+03  0.11520859599E+03  0.00000000000E+00 0.  1.
         -4   -1    0    0    0  501 -0.00000000000E+00 -0.00000000000E+00 -0.26850199186E+03  0.26850199186E+03  0.00000000000E+00 0.  1.
        -24    2    1    2    0    0 -0.35429453111E+02 -0.90481706521E+02 -0.17294409761E+03  0.22051881986E+03  0.96315645944E+02 0.  0.
         23    2    1    2    0    0  0.31098118820E+02  0.28998943890E+02  0.47930849002E+01  0.99791142317E+02  0.90151354295E+02 0.  0.
         13    1    3    3    0    0  0.20444878153E+02 -0.38093812349E+02 -0.16395811443E+02  0.46238016986E+02  0.00000000000E+00 0. -1.
        -14    1    3    3    0    0 -0.55874331265E+02 -0.52387894172E+02 -0.15654828617E+03  0.17428080288E+03  0.00000000000E+00 0.  1.
        -13    1    4    4    0    0  0.30473667562E+02  0.51677773759E+02 -0.22701105269E+02  0.64144967814E+02  0.00000000000E+00 0. -1.
         13    1    4    4    0    0  0.62445125822E+00 -0.22678829870E+02  0.27494190170E+02  0.35646174503E+02  0.00000000000E+00 0.  1.
         -3    1    1    2    0  502  0.43313342916E+01  0.61482762631E+02  0.14857616833E+02  0.63400625671E+02  0.00000000000E+00 0.  1.
<scales pt_clust_5="13000.00000" pt_clust_6="13000.00000" pt_clust_7="13000.00000" pt_clust_8="13000.00000" pt_clust_9="61.63514"></scales>
<clustering>
<clus scale="   61.635">  1  9  2 -1</clus>
<clus scale="   90.151">  7  8 -1 -1</clus>
<clus scale="   96.316">  5  6 -1 -1</clus>
<clus scale="  119.859">  1  7  2 -1</clus>
<clus scale="   61.635">  1  5  2 -1</clus>
</clustering>
</event>
<event>
 9    1  0.1487426E-004  0.1401848E+03  0.7546771E-02  0.1239624E+00
         21   -1    0    0  501  502  0.00000000000E+00  0.00000000000E+00  0.16795019943E+02  0.16795019943E+02  0.00000000000E+00 0. -1.
         -2   -1    0    0    0  501 -0.00000000000E+00 -0.00000000000E+00 -0.16611719434E+04  0.16611719434E+04  0.00000000000E+00 0.  1.
        -24    2    1    2    0    0  0.10040312197E+02 -0.36400732165E+01 -0.53992868238E+03  0.54593498023E+03  0.80049750651E+02 0.  0.
         23    2    1    2    0    0 -0.10117612631E+03 -0.29788192439E+02 -0.50909665931E+03  0.52881834644E+03  0.96672074899E+02 0.  0.
         13    1    3    3    0    0  0.41664482151E+02  0.12215080650E+02 -0.23664708613E+03  0.24059713349E+03  0.00000000000E+00 0. -1.
        -14    1    3    3    0    0 -0.31624169954E+02 -0.15855153866E+02 -0.30328159625E+03  0.30533784674E+03  0.00000000000E+00 0.  1.
        -13    1    4    4    0    0 -0.29752167008E+01 -0.42086230384E+02 -0.11533597449E+03  0.12281078826E+03  0.00000000000E+00 0.  1.
         13    1    4    4    0    0 -0.98200909607E+02  0.12298037945E+02 -0.39376068482E+03  0.40600755818E+03  0.00000000000E+00 0. -1.
         -1    1    1    2    0  502  0.91135814111E+02  0.33428265655E+02 -0.59535158178E+03  0.60321363669E+03  0.00000000000E+00 0.  1.
<scales pt_clust_5="13000.00000" pt_clust_6="13000.00000" pt_clust_7="13000.00000" pt_clust_8="13000.00000" pt_clust_9="101.51991"></scales>
<clustering>
<clus scale="   80.050">  5  6 -1 -1</clus>
<clus scale="   80.759">  2  5  1 -1</clus>
<clus scale="   96.672">  7  8 -1 -1</clus>
<clus scale="  101.520">  1  9  2 -1</clus>
<clus scale="  101.520">  1  5  2 -1</clus>
</clustering>
</event>
<event>
 9    1  0.1487426E-004  0.1713488E+03  0.7546771E-02  0.1177270E+00
         21   -1    0    0  501  502  0.00000000000E+00  0.00000000000E+00  0.10455795787E+03  0.10455795787E+03  0.00000000000E+00 0.  1.
          1   -1    0    0  502    0 -0.00000000000E+00 -0.00000000000E+00 -0.44316364816E+03  0.44316364816E+03  0.00000000000E+00 0. -1.
         23    2    1    2    0    0  0.62558034584E+02  0.12405533113E+03 -0.21552220576E+03  0.27082419744E+03  0.87136053789E+02 0.  0.
        -24    2    1    2    0    0 -0.66346516230E+02 -0.14600545436E+03 -0.15552188126E+03  0.23754756635E+03  0.80760991892E+02 0.  0.
         11    1    4    4    0    0 -0.34998997745E+02 -0.35836721030E+02 -0.96422864735E+02  0.10865803818E+03  0.00000000000E+00 0. -1.
        -12    1    4    4    0    0 -0.31347518485E+02 -0.11016873333E+03 -0.59099016522E+02  0.12888952817E+03  0.00000000000E+00 0.  1.
        -11    1    3    3    0    0  0.17362626492E+02  0.78523699581E+02 -0.53572514426E+02  0.96630463605E+02  0.00000000000E+00 0.  1.
         11    1    3    3    0    0  0.45195408092E+02  0.45531631551E+02 -0.16194969133E+03  0.17419373383E+03  0.00000000000E+00 0. -1.
          2    1    1    2  501    0  0.37884816461E+01  0.21950123227E+02  0.32438396721E+02  0.39349842245E+02  0.00000000000E+00 0. -1.
<scales pt_clust_5="13000.00000" pt_clust_6="13000.00000" pt_clust_7="13000.00000" pt_clust_8="13000.00000" pt_clust_9="22.27466"></scales>
<clustering>
<clus scale="   22.275">  1  9  2 -1</clus>
<clus scale="   80.761">  5  6 -1 -1</clus>
<clus scale="   87.136">  7  8 -1 -1</clus>
<clus scale="  168.196">  1  5  2 -1</clus>
<clus scale="   22.275">  1  5  2 -1</clus>
</clustering>
</event>
<event>
 9    1  0.1487426E-004  0.1542475E+03  0.7546771E-02  0.1216311E+00
         21   -1    0    0  501  502  0.00000000000E+00  0.00000000000E+00  0.65184093601E+03  0.65184093601E+03  0.00000000000E+00 0. -1.
          1   -1    0    0  502    0 -0.00000000000E+00 -0.00000000000E+00 -0.12706506479E+03  0.12706506479E+03  0.00000000000E+00 0. -1.
         23    2    1    2    0    0  0.35877946149E+02  0.91659608973E+00  0.33027569235E+02  0.10367279384E+03  0.91483116943E+02 0.  0.
        -24    2    1    2    0    0 -0.13695107118E+03 -0.83297476335E+02  0.12627359263E+02  0.17868586401E+03  0.77943071114E+02 0.  0.
         13    1    4    4    0    0 -0.13317786314E+03 -0.90259099583E+02 -0.32812144034E+01  0.16091555132E+03  0.00000000000E+00 0. -1.
        -14    1    4    4    0    0 -0.37732080424E+01  0.69616232486E+01  0.15908573666E+02  0.17770312695E+02  0.00000000000E+00 0.  1.
        -11    1    3    3    0    0  0.28026245522E+00  0.42345487413E+02  0.61312316235E+01  0.42787975560E+02  0.00000000000E+00 0. -1.
         11    1    3    3    0    0  0.35597683694E+02 -0.41428891323E+02  0.26896337611E+02  0.60884818285E+02  0.00000000000E+00 0.  1.
          2    1    1    2  501    0  0.10107312503E+03  0.82380880245E+02  0.47912094272E+03  0.49654734295E+03  0.00000000000E+00 0. -1.
<scales pt_clust_5="13000.00000" pt_clust_6="13000.00000" pt_clust_7="13000.00000" pt_clust_8="13000.00000" pt_clust_9="133.10582"></scales>
<clustering>
<clus scale="   77.943">  5  6 -1 -1</clus>
<clus scale="   91.483">  7  8 -1 -1</clus>
<clus scale="   98.271">  2  7  1 -1</clus>
<clus scale="  133.106">  1  9  2 -1</clus>
<clus scale="  133.106">  1  5  2 -1</clus>
</clustering>
</event>
<event>
 9    1  0.1487426E-004  0.2396393E+03  0.7546771E-02  0.1159258E+00
          1   -1    0    0  502    0 -0.00000000000E+00  0.00000000000E+00  0.15502274650E+04  0.15502274650E+04  0.00000000000E+00 0. -1.
         21   -1    0    0  501  502  0.00000000000E+00 -0.00000000000E+00 -0.65423587846E+02  0.65423587846E+02  0.00000000000E+00 0. -1.
         23    2    1    2    0    0 -0.90144941566E+01  0.12704247185E+02  0.47253059069E+02  0.10427593197E+03  0.91640380814E+02 0.  0.
        -24    2    1    2    0    0  0.22367294284E+03  0.46982858479E+02  0.68988938794E+03  0.73122230617E+03  0.80633238161E+02 0.  0.
         11    1    4    4    0    0  0.21631188762E+03  0.45574818933E+02  0.68909609075E+03  0.72368592576E+03  0.00000000000E+00 0. -1.
        -12    1    4    4    0    0  0.73610552176E+01  0.14080395463E+01  0.79329718711E+00  0.75363804115E+01  0.00000000000E+00 0.  1.
        -11    1    3    3    0    0 -0.29932695466E+02 -0.82574710807E+01  0.63364313006E+02  0.70563363364E+02  0.00000000000E+00 0.  1.
         11    1    3    3    0    0  0.20918201309E+02  0.20961718266E+02 -0.16111253937E+02  0.33712568607E+02  0.00000000000E+00 0. -1.
          2    1    1    2  501    0 -0.21465844868E+03 -0.59687105664E+02  0.74766143018E+03  0.78015281475E+03  0.00000000000E+00 0. -1.
<scales pt_clust_5="13000.00000" pt_clust_6="13000.00000" pt_clust_7="13000.00000" pt_clust_8="13000.00000" pt_clust_9="225.66640"></scales>
<clustering>
<clus scale="   80.633">  5  6 -1 -1</clus>
<clus scale="   91.640">  7  8 -1 -1</clus>
<clus scale="   92.955">  1  7  2 -1</clus>
<clus scale="  225.666">  2  9  1 -1</clus>
<clus scale="  225.666">  2  5  1 -1</clus>
</clustering>
</event>
<event>
 9    1  0.1487426E-004  0.1041436E+03  0.7546771E-02  0.1276938E+00
         -2   -1    0    0    0  501 -0.00000000000E+00  0.00000000000E+00  0.31539612466E+03  0.31539612466E+03  0.00000000000E+00 0.  1.
         21   -1    0    0  501  502  0.00000000000E+00 -0.00000000000E+00 -0.11817592002E+03  0.11817592002E+03  0.00000000000E+00 0.  1.
         23    2    1    2    0    0  0.16505625538E+02  0.55261786473E+02  0.25935658585E+03  0.28111770746E+03  0.91842398181E+02 0.  0.
        -24    2    1    2    0    0  0.65114093511E+01 -0.16703845937E+01 -0.36411876497E+02  0.88708181321E+02  0.80610967286E+02 0.  0.
         13    1    4    4    0    0  0.79590113060E+01 -0.37188034662E+02 -0.37135139268E+02  0.53153686151E+02  0.00000000000E+00 0. -1.
        -14    1    4    4    0    0 -0.14476019549E+01  0.35517650068E+02  0.72326277137E+00  0.35554495170E+02  0.00000000000E+00 0.  1.
        -11    1    3    3    0    0 -0.47903272641E+01  0.67346336310E+02  0.24163880927E+03  0.25089398238E+03  0.00000000000E+00 0.  1.
         11    1    3    3    0    0  0.21295952802E+02 -0.12084549837E+02  0.17717776580E+02  0.30223725076E+02  0.00000000000E+00 0. -1.
         -1    1    1    2    0  502 -0.23017034889E+02 -0.53591401879E+02 -0.25724504710E+02  0.63746155908E+02  0.00000000000E+00 0.  1.
<scales pt_clust_5="13000.00000" pt_clust_6="13000.00000" pt_clust_7="13000.00000" pt_clust_8="13000.00000" pt_clust_9="58.32514"></scales>
<clustering>
<clus scale="   58.325">  2  9  1 -1</clus>
<clus scale="   80.611">  5  6 -1 -1</clus>
<clus scale="   91.842">  7  8 -1 -1</clus>
<clus scale="   94.387">  2  5  1 -1</clus>
<clus scale="   58.325">  2  5  1 -1</clus>
</clustering>
</event>
<event>
 9    1  0.1487426E-004  0.1376548E+03  0.7546771E-02  0.1218864E+00
         21   -1    0    0  501  502  0.00000000000E+00  0.00000000000E+00  0.20482741297E+03  0.20482741297E+03  0.00000000000E+00 0.  1.
         -4   -1    0    0    0  501 -0.00000000000E+00 -0.00000000000E+00 -0.10577166881E+03  0.10577166881E+03  0.00000000000E+00 0.  1.
        -24    2    1    2    0    0 -0.84179766296E+02 -0.55534550827E+02  0.41043691390E+02  0.13572772016E+03  0.81037707451E+02 0.  0.
         23    2    1    2    0    0  0.10009586574E+03  0.37007942847E+02  0.47888546525E+02  0.14843194401E+03  0.91378109757E+02 0.  0.
         13    1    3    3    0    0  0.66879630484E+00 -0.23326173535E+02 -0.16217250693E+02  0.28417545290E+02  0.00000000000E+00 0. -1.
        -14    1    3    3    0    0 -0.84848562600E+02 -0.32208377292E+02  0.57260942083E+02  0.10731017487E+03  0.00000000000E+00 0.  1.
        -13    1    4    4    0    0  0.17716083562E+01  0.35363072756E+02  0.34053251167E+02  0.49125445809E+02  0.00000000000E+00 0. -1.
         13    1    4    4    0    0  0.98324257384E+02  0.16448700915E+01  0.13835295358E+02  0.99306498203E+02  0.00000000000E+00 0.  1.
         -3    1    1    2    0  502 -0.15916099445E+02  0.18526607980E+02  0.10123506236E+02  0.26439417605E+02  0.00000000000E+00 0.  1.
<scales pt_clust_5="13000.00000" pt_clust_6="13000.00000" pt_clust_7="13000.00000" pt_clust_8="13000.00000" pt_clust_9="24.42453"></scales>
<clustering>
<clus scale="   24.425">  1  9  2 -1</clus>
<clus scale="   81.038">  5  6 -1 -1</clus>
<clus scale="   91.378">  7  8 -1 -1</clus>
<clus scale="  131.019">  2  5  1 -1</clus>
<clus scale="   24.425">  1  5  2 -1</clus>
</clustering>
</event>
<event>
 9    1  0.1487426E-004  0.1416373E+03  0.7546771E-02  0.1235044E+00
          1   -1    0    0  502    0 -0.00000000000E+00  0.00000000000E+00  0.10140115578E+04  0.10140115578E+04  0.00000000000E+00 0. -1.
         21   -1    0    0  501  502  0.00000000000E+00 -0.00000000000E+00 -0.41120919209E+02  0.41120919209E+02  0.00000000000E+00 0. -1.
        -24    2    1    2    0    0 -0.12235276974E+02 -0.26180030875E+02  0.50094378333E+02  0.99497858256E+02  0.80964690068E+02 0.  0.
         23    2    1    2    0    0  0.90089143131E+02  0.79378302892E+02  0.57995915847E+03  0.60006668012E+03  0.96490550923E+02 0.  0.
         13    1    3    3    0    0 -0.11888155380E+01 -0.55026604985E+02  0.30650609347E+02  0.62998415789E+02  0.00000000000E+00 0. -1.
        -14    1    3    3    0    0 -0.11046461436E+02  0.28846574109E+02  0.19443768985E+02  0.36499442468E+02  0.00000000000E+00 0.  1.
        -11    1    4    4    0    0  0.99694959408E+01  0.39548257062E+02  0.60535729905E+02  0.72993356418E+02  0.00000000000E+00 0.  1.
         11    1    4    4    0    0  0.80119647191E+02  0.39830045829E+02  0.51942342857E+03  0.52707332371E+03  0.00000000000E+00 0. -1.
          2    1    1    2  501    0 -0.77853866157E+02 -0.53198272016E+02  0.34283710179E+03  0.35556793864E+03  0.00000000000E+00 0. -1.
<scales pt_clust_5="13000.00000" pt_clust_6="13000.00000" pt_clust_7="13000.00000" pt_clust_8="13000.00000" pt_clust_9="103.68556"></scales>
<clustering>
<clus scale="   80.965">  5  6 -1 -1</clus>
<clus scale="   85.967">  1  5  2 -1</clus>
<clus scale="   96.491">  7  8 -1 -1</clus>
<clus scale="  103.686">  2  9  1 -1</clus>
<clus scale="  103.686">  2  5  1 -1</clus>
</clustering>
</event>
<event>
 9    1  0.1487426E-004  0.1018246E+03  0.7546771E-02  0.1281841E+00
         21   -1    0    0  501  502  0.00000000000E+00  0.00000000000E+00  0.49125236653E+02  0.49125236653E+02  0.00000000000E+00 0.  1.
          3   -1    0    0  502    0 -0.00000000000E+00 -0.00000000000E+00 -0.43168189785E+03  0.43168189785E+03  0.00000000000E+00 0. -1.
        -24    2    1    2    0    0  0.27122036325E+02  0.38277314966E+02 -0.20887808018E+03  0.22863433685E+03  0.80267365157E+02 0.  0.
         23    2    1    2    0    0  0.34975621635E+02 -0.58614974887E+02 -0.86124334295E+02  0.14292314936E+03  0.91381706452E+02 0.  0.
         13    1    3    3    0    0  0.53865474120E+02  0.12189181827E+02 -0.11425230322E+03  0.12690017434E+03  0.00000000000E+00 0. -1.
        -14    1    3    3    0    0 -0.26743437795E+02  0.26088133139E+02 -0.94625776961E+02  0.10173416251E+03  0.00000000000E+00 0.  1.
        -13    1    4    4    0    0  0.37466630617E+02 -0.15013644083E+02  0.61567267459E+01  0.40829685312E+02  0.00000000000E+00 0.  1.
         13    1    4    4    0    0 -0.24910089814E+01 -0.43601330804E+02 -0.92281061041E+02  0.10209346404E+03  0.00000000000E+00 0. -1.
          4    1    1    2  501    0 -0.62097657961E+02  0.20337659921E+02 -0.87554246722E+02  0.10924964830E+03  0.00000000000E+00 0. -1.
<scales pt_clust_5="13000.00000" pt_clust_6="13000.00000" pt_clust_7="13000.00000" pt_clust_8="13000.00000" pt_clust_9="65.34328"></scales>
<clustering>
<clus scale="   65.343">  1  9  2 -1</clus>
<clus scale="   80.267">  5  6 -1 -1</clus>
<clus scale="   91.382">  7  8 -1 -1</clus>
<clus scale="   91.981">  2  5  1 -1</clus>
<clus scale="   65.343">  1  5  2 -1</clus>
</clustering>
</event>
<event>
 9    1  0.1487426E-004  0.9036747E+02  0.7546771E-02  0.1304364E+00
         -2   -1    0    0    0  501 -0.00000000000E+00  0.00000000000E+00  0.38384901032E+03  0.38384901032E+03  0.00000000000E+00 0.  1.
         21   -1    0    0  501  502  0.00000000000E+00 -0.00000000000E+00 -0.40635874424E+02  0.40635874424E+02  0.00000000000E+00 0.  1.
        -24    2    1    2    0    0  0.63132106245E+01  0.56309722226E+01  0.16978020447E+03  0.19035210936E+03  0.85656542251E+02 0.  0.
         23    2    1    2    0    0  0.28085526964E+02  0.29623231039E+02  0.15040661407E+03  0.17976050960E+03  0.89584365907E+02 0.  0.
         13    1    3    3    0    0  0.96241867411E+01 -0.39304350221E+02  0.69657504899E+02  0.80558208182E+02  0.00000000000E+00 0. -1.
        -14    1    3    3    0    0 -0.33109761165E+01  0.44935322443E+02  0.10012269957E+03  0.10979390118E+03  0.00000000000E+00 0.  1.
        -13    1    4    4    0    0 -0.24145232861E+02  0.17617425615E+02  0.13613041110E+02  0.32843276990E+02  0.00000000000E+00 0. -1.
         13    1    4    4    0    0  0.52230759825E+02  0.12005805424E+02  0.13679357296E+03  0.14691723261E+03  0.00000000000E+00 0.  1.
         -1    1    1    2    0  502 -0.34398737589E+02 -0.35254203262E+02  0.23026317354E+02  0.54372265781E+02  0.00000000000E+00 0.  1.
<scales pt_clust_5="13000.00000" pt_clust_6="13000.00000" pt_clust_7="13000.00000" pt_clust_8="13000.00000" pt_clust_9="49.25578"></scales>
<clustering>
<clus scale="   49.256">  2  9  1 -1</clus>
<clus scale="   85.657">  5  6 -1 -1</clus>
<clus scale="   86.475">  1  5  2 -1</clus>
<clus scale="   89.584">  7  8 -1 -1</clus>
<clus scale="   49.256">  2  5  1 -1</clus>
</clustering>
</event>
<event>
 9    1  0.1487426E-004  0.1091984E+03  0.7546771E-02  0.1267180E+00
          1   -1    0    0  502    0 -0.00000000000E+00  0.00000000000E+00  0.35783271726E+03  0.35783271726E+03  0.00000000000E+00 0. -1.
         21   -1    0    0  501  502  0.00000000000E+00 -0.00000000000E+00 -0.58453689545E+02  0.58453689545E+02  0.00000000000E+00 0. -1.
        -24    2    1    2    0    0 -0.16632585835E+02 -0.51881781530E+02  0.95520802110E+02  0.13591025710E+03  0.79868718423E+02 0.  0.
         23    2    1    2    0    0 -0.27859127191E+02  0.68886630195E+02  0.68619326393E+02  0.13699470995E+03  0.92398267368E+02 0.  0.
         11    1    3    3    0    0 -0.30026684491E+02  0.21381950056E+01  0.66825100199E+02  0.73292343911E+02  0.00000000000E+00 0. -1.
        -12    1    3    3    0    0  0.13394098657E+02 -0.54019976535E+02  0.28695701911E+02  0.62617913187E+02  0.00000000000E+00 0.  1.
        -13    1    4    4    0    0  0.29946323835E+02  0.84494977231E+01  0.35074723470E+02  0.46887232265E+02  0.00000000000E+00 0.  1.
         13    1    4    4    0    0 -0.57805451026E+02  0.60437132472E+02  0.33544602923E+02  0.90107477686E+02  0.00000000000E+00 0. -1.
          2    1    1    2  501    0  0.44491713026E+02 -0.17004848665E+02  0.13523889921E+03  0.14338143975E+03  0.00000000000E+00 0. -1.
<scales pt_clust_5="13000.00000" pt_clust_6="13000.00000" pt_clust_7="13000.00000" pt_clust_8="13000.00000" pt_clust_9="47.63066"></scales>
<clustering>
<clus scale="   47.631">  2  9  1 -1</clus>
<clus scale="   79.869">  5  6 -1 -1</clus>
<clus scale="   92.398">  7  8 -1 -1</clus>
<clus scale="   98.822">  1  5  2 -1</clus>
<clus scale="   47.631">  2  5  1 -1</clus>
</clustering>
</event>
<event>
 9    1  0.1487426E-004  0.3635312E+03  0.7546771E-02  0.1116756E+00
         21   -1    0    0  501  502  0.00000000000E+00  0.00000000000E+00  0.18982567648E+03  0.18982567648E+03  0.00000000000E+00 0.  1.
          1   -1    0    0  502    0 -0.00000000000E+00 -0.00000000000E+00 -0.93269882450E+03  0.93269882450E+03  0.00000000000E+00 0. -1.
         23    2    1    2    0    0 -0.63705204018E+01  0.30115282914E+01 -0.22501651251E+03  0.23703717781E+03  0.74192586739E+02 0.  0.
        -24    2    1    2    0    0  0.32648817809E+03 -0.14695872177E+03 -0.27412622795E+03  0.45816938435E+03  0.81133221086E+02 0.  0.
         11    1    4    4    0    0  0.15959459944E+02 -0.30140217873E+02 -0.37294626807E+02  0.50537375117E+02  0.00000000000E+00 0. -1.
        -12    1    4    4    0    0  0.31052871815E+03 -0.11681850390E+03 -0.23683160114E+03  0.40763200923E+03  0.00000000000E+00 0.  1.
        -13    1    3    3    0    0 -0.10794254929E+02  0.37393413438E+02 -0.13759365560E+03  0.14299229829E+03  0.00000000000E+00 0.  1.
         13    1    3    3    0    0  0.44237345269E+01 -0.34381885146E+02 -0.87422856912E+02  0.94044879520E+02  0.00000000000E+00 0. -1.
          2    1    1    2  501    0 -0.32011765769E+03  0.14394719348E+03 -0.24373040755E+03  0.42731793883E+03  0.00000000000E+00 0. -1.
<scales pt_clust_5="13000.00000" pt_clust_6="13000.00000" pt_clust_7="13000.00000" pt_clust_8="13000.00000" pt_clust_9="354.36190"></scales>
<clustering>
<clus scale="   74.193">  7  8 -1 -1</clus>
<clus scale="   74.526">  2  7  1 -1</clus>
<clus scale="   81.133">  5  6 -1 -1</clus>
<clus scale="  354.362">  1  9  2 -1</clus>
<clus scale="  354.362">  1  5  2 -1</clus>
</clustering>
</event>
<event>
 9    1  0.1487426E-004  0.9465736E+02  0.7546771E-02  0.1294850E+00
          1   -1    0    0  502    0 -0.00000000000E+00  0.00000000000E+00  0.11476733841E+03  0.11476733841E+03  0.00000000000E+00 0. -1.
         21   -1    0    0  501  502  0.00000000000E+00 -0.00000000000E+00 -0.13728808387E+03  0.13728808387E+03  0.00000000000E+00 0. -1.
        -24    2    1    2    0    0 -0.33857995943E+02  0.52019582387E+02  0.46412588220E+02  0.10892611216E+03  0.76539981209E+02 0.  0.
         23    2    1    2    0    0  0.81720180709E+01 -0.46803594975E+02 -0.19312951998E+02  0.87011948610E+02  0.70290331512E+02 0.  0.
         11    1    3    3    0    0 -0.38994277363E+02  0.51453808162E+02  0.63812631632E+02  0.90774996543E+02  0.00000000000E+00 0. -1.
        -12    1    3    3    0    0  0.51362814202E+01  0.56577422522E+00 -0.17400043413E+02  0.18151115615E+02  0.00000000000E+00 0.  1.
        -11    1    4    4    0    0  0.38046492175E+02 -0.24885804387E+02 -0.51833915959E+00  0.45465453944E+02  0.00000000000E+00 0.  1.
         11    1    4    4    0    0 -0.29874474104E+02 -0.21917790589E+02 -0.18794612839E+02  0.41546494666E+02  0.00000000000E+00 0. -1.
          2    1    1    2  501    0  0.25685977872E+02 -0.52159874119E+01 -0.49620381681E+02  0.56117361504E+02  0.00000000000E+00 0. -1.
<scales pt_clust_5="13000.00000" pt_clust_6="13000.00000" pt_clust_7="13000.00000" pt_clust_8="13000.00000" pt_clust_9="26.21023"></scales>
<clustering>
<clus scale="   26.210">  2  9  1 -1</clus>
<clus scale="   70.290">  7  8 -1 -1</clus>
<clus scale="   76.540">  5  6 -1 -1</clus>
<clus scale="   89.679">  2  7  1 -1</clus>
<clus scale="   26.210">  2  5  1 -1</clus>
</clustering>
</event>
<event>
 9    1  0.1487426E-004  0.9535722E+02  0.7546771E-02  0.1294165E+00
          1   -1    0    0  502    0 -0.00000000000E+00  0.00000000000E+00  0.12391696396E+03  0.12391696396E+03  0.00000000000E+00 0. -1.
         21   -1    0    0  501  502  0.00000000000E+00 -0.00000000000E+00 -0.16667014624E+03  0.16667014624E+03  0.00000000000E+00 0.  1.
        -24    2    1    2    0    0  0.36864656532E+02  0.37662072987E+02  0.49683993844E+02  0.10779538500E+03  0.79836778121E+02 0.  0.
         23    2    1    2    0    0  0.24891851541E+02 -0.23401476723E+02 -0.45852382658E+02  0.10413186327E+03  0.87027412735E+02 0.  0.
         13    1    3    3    0    0 -0.24151508056E+02  0.54443194386E+01  0.23072204905E+02  0.33841728601E+02  0.00000000000E+00 0. -1.
        -14    1    3    3    0    0  0.61016164588E+02  0.32217753548E+02  0.26611788939E+02  0.73953656402E+02  0.00000000000E+00 0.  1.
        -11    1    4    4    0    0  0.39531532641E+02  0.15629929441E+01 -0.60038670194E+02  0.71901508597E+02  0.00000000000E+00 0.  1.
         11    1    4    4    0    0 -0.14639681100E+02 -0.24964469667E+02  0.14186287536E+02  0.32230354676E+02  0.00000000000E+00 0. -1.
          2    1    1    2  501    0 -0.61756508073E+02 -0.14260596264E+02 -0.46584793473E+02  0.78659861925E+02  0.00000000000E+00 0. -1.
<scales pt_clust_5="13000.00000" pt_clust_6="13000.00000" pt_clust_7="13000.00000" pt_clust_8="13000.00000" pt_clust_9="63.38163"></scales>
<clustering>
<clus scale="   63.382">  2  9  1 -1</clus>
<clus scale="   79.837">  5  6 -1 -1</clus>
<clus scale="   87.027">  7  8 -1 -1</clus>
<clus scale="   88.843">  1  5  2 -1</clus>
<clus scale="   63.382">  2  5  1 -1</clus>
</clustering>
</event>
<event>
 9    1  0.1487426E-004  0.1275633E+03  0.7546771E-02  0.1233468E+00
         21   -1    0    0  501  502  0.00000000000E+00  0.00000000000E+00  0.17011097684E+03  0.17011097684E+03  0.00000000000E+00 0. -1.
          3   -1    0    0  502    0 -0.00000000000E+00 -0.00000000000E+00 -0.28004291663E+03  0.28004291663E+03  0.00000000000E+00 0. -1.
         23    2    1    2    0    0 -0.34267612626E+02  0.91732916874E+02 -0.22062370800E+03  0.25747077395E+03  0.89594539975E+02 0.  0.
        -24    2    1    2    0    0  0.31940088270E+00 -0.48209233342E+02  0.98389067170E+02  0.13613094395E+03  0.80789808554E+02 0.  0.
         11    1    4    4    0    0 -0.35126496320E+02 -0.16335913155E+02  0.18104391311E+02  0.42760984403E+02  0.00000000000E+00 0. -1.
        -12    1    4    4    0    0  0.35445897203E+02 -0.31873320187E+02  0.80284675859E+02  0.93369959548E+02  0.00000000000E+00 0.  1.
        -11    1    3    3    0    0  0.18196696874E+02  0.11118037872E+02 -0.58021777095E+01  0.22099678944E+02  0.00000000000E+00 0.  1.
         11    1    3    3    0    0 -0.52464309500E+02  0.80614879002E+02 -0.21482153029E+03  0.23537109501E+03  0.00000000000E+00 0. -1.
          4    1    1    2  501    0  0.33948211743E+02 -0.43523683532E+02  0.12302701047E+02  0.56552175571E+02  0.00000000000E+00 0. -1.
<scales pt_clust_5="13000.00000" pt_clust_6="13000.00000" pt_clust_7="13000.00000" pt_clust_8="13000.00000" pt_clust_9="55.19775"></scales>
<clustering>
<clus scale="   55.198">  1  9  2 -1</clus>
<clus scale="   80.790">  5  6 -1 -1</clus>
<clus scale="   89.595">  7  8 -1 -1</clus>
<clus scale="  121.541">  1  5  2 -1</clus>
<clus scale="   55.198">  1  5  2 -1</clus>
</clustering>
</event>
<event>
 9    1  0.1487426E-004  0.1484484E+03  0.7546771E-02  0.1204135E+00
         -2   -1    0    0    0  501 -0.00000000000E+00  0.00000000000E+00  0.89623141661E+03  0.89623141661E+03  0.00000000000E+00 0.  1.
         21   -1    0    0  501  502  0.00000000000E+00 -0.00000000000E+00 -0.59593264636E+02  0.59593264636E+02  0.00000000000E+00 0.  1.
        -24    2    1    2    0    0 -0.12697568218E+02 -0.13387380123E+03  0.25339634427E+03  0.29774414657E+03  0.79739868540E+02 0.  0.
         23    2    1    2    0    0 -0.10587068040E+03  0.84210747562E+02  0.22348071845E+03  0.27604272264E+03  0.89195864425E+02 0.  0.
         13    1    3    3    0    0 -0.34057533911E+01 -0.49521528593E+02  0.17607756785E+03  0.18294067576E+03  0.00000000000E+00 0. -1.
        -14    1    3    3    0    0 -0.92918148270E+01 -0.84352272639E+02  0.77318776419E+02  0.11480347081E+03  0.00000000000E+00 0.  1.
        -11    1    4    4    0    0 -0.62498267035E+02  0.26870496762E+02  0.17901847380E+03  0.19150893175E+03  0.00000000000E+00 0.  1.
         11    1    4    4    0    0 -0.43372413365E+02  0.57340250800E+02  0.44462244650E+02  0.84533790890E+02  0.00000000000E+00 0. -1.
         -1    1    1    2    0  502  0.11856824862E+03  0.49663053670E+02  0.35976108926E+03  0.38203781204E+03  0.00000000000E+00 0.  1.
<scales pt_clust_5="13000.00000" pt_clust_6="13000.00000" pt_clust_7="13000.00000" pt_clust_8="13000.00000" pt_clust_9="128.54908"></scales>
<clustering>
<clus scale="   79.740">  5  6 -1 -1</clus>
<clus scale="   89.196">  7  8 -1 -1</clus>
<clus scale="  128.549">  2  9  1 -1</clus>
<clus scale="  142.967">  1  5  2 -1</clus>
<clus scale="  128.549">  2  5  1 -1</clus>
</clustering>
</event>
<event>
 9    1  0.1487426E-004  0.1164193E+03  0.7546771E-02  0.1253630E+00
         -4   -1    0    0    0  501 -0.00000000000E+00  0.00000000000E+00  0.63622379473E+03  0.63622379473E+03  0.00000000000E+00 0.  1.
         21   -1    0    0  501  502  0.00000000000E+00 -0.00000000000E+00 -0.31096571746E+02  0.31096571746E+02  0.00000000000E+00 0. -1.
         23    2    1    2    0    0 -0.35521235559E+02  0.67796562323E+02  0.38343189987E+03  0.40199304660E+03  0.93382309002E+02 0.  0.
        -24    2    1    2    0    0  0.11384323370E+02 -0.61553315549E+02  0.21723229569E+03  0.23999972082E+03  0.80570355761E+02 0.  0.
         11    1    4    4    0    0  0.18284137012E+02 -0.54070091954E+02  0.61388283665E+02  0.83823659438E+02  0.00000000000E+00 0. -1.
        -12    1    4    4    0    0 -0.68998136424E+01 -0.74832235952E+01  0.15584401202E+03  0.15617606138E+03  0.00000000000E+00 0.  1.
        -13    1    3    3    0    0 -0.49718306728E+02  0.18493433671E+01  0.11669834802E+03  0.12686147770E+03  0.00000000000E+00 0. -1.
         13    1    3    3    0    0  0.14197071169E+02  0.65947218956E+02  0.26673355185E+03  0.27513156889E+03  0.00000000000E+00 0.  1.
         -3    1    1    2    0  502  0.24136912189E+02 -0.62432467737E+01  0.44630274177E+01  0.25327599058E+02  0.00000000000E+00 0.  1.
<scales pt_clust_5="13000.00000" pt_clust_6="13000.00000" pt_clust_7="13000.00000" pt_clust_8="13000.00000" pt_clust_9="24.93128"></scales>
<clustering>
<clus scale="   24.931">  2  9  1 -1</clus>
<clus scale="   80.570">  5  6 -1 -1</clus>
<clus scale="   93.382">  7  8 -1 -1</clus>
<clus scale="  106.418">  2  5  1 -1</clus>
<clus scale="   24.931">  2  5  1 -1</clus>
</clustering>
</event>
<event>
 9    1  0.1487426E-004  0.2050380E+03  0.7546771E-02  0.1146288E+00
         -4   -1    0    0    0  501 -0.00000000000E+00  0.00000000000E+00  0.16907163744E+03  0.16907163744E+03  0.00000000000E+00 0.  1.
         21   -1    0    0  501  502  0.00000000000E+00 -0.00000000000E+00 -0.36153021703E+03  0.36153021703E+03  0.00000000000E+00 0. -1.
         23    2    1    2    0    0 -0.13422452219E+01  0.17839933311E+03 -0.26918266952E+02  0.20178759487E+03  0.90363248469E+02 0.  0.
        -24    2    1    2    0    0  0.57206417312E+02 -0.19147246573E+03 -0.16436712624E+03  0.27142881819E+03  0.81992510903E+02 0.  0.
         11    1    4    4    0    0  0.68041394832E+02 -0.14206482272E+03 -0.89779017747E+02  0.18130724556E+03  0.00000000000E+00 0. -1.
        -12    1    4    4    0    0 -0.10834977521E+02 -0.49407643010E+02 -0.74588108489E+02  0.90121572632E+02  0.00000000000E+00 0.  1.
        -13    1    3    3    0    0 -0.27041563598E+02  0.15969669638E+03 -0.40915100385E+02  0.16705785356E+03  0.00000000000E+00 0. -1.
         13    1    3    3    0    0  0.25699318376E+02  0.18702636726E+02  0.13996833433E+02  0.34729741313E+02  0.00000000000E+00 0.  1.
         -3    1    1    2    0  502 -0.55864172090E+02  0.13073132621E+02 -0.11731864016E+01  0.57385441413E+02  0.00000000000E+00 0.  1.
<scales pt_clust_5="13000.00000" pt_clust_6="13000.00000" pt_clust_7="13000.00000" pt_clust_8="13000.00000" pt_clust_9="57.37348"></scales>
<clustering>
<clus scale="   57.373">  2  9  1 -1</clus>
<clus scale="   81.993">  5  6 -1 -1</clus>
<clus scale="   90.363">  7  8 -1 -1</clus>
<clus scale="  201.489">  2  5  1 -1</clus>
<clus scale="   57.373">  2  5  1 -1</clus>
</clustering>
</event>
<event>
 9    1  0.1487426E-004  0.1826835E+03  0.7546771E-02  0.1175660E+00
          1   -1    0    0  502    0 -0.00000000000E+00  0.00000000000E+00  0.37859327334E+03  0.37859327334E+03  0.00000000000E+00 0. -1.
         21   -1    0    0  501  502  0.00000000000E+00 -0.00000000000E+00 -0.11462345410E+04  0.11462345410E+04  0.00000000000E+00 0.  1.
        -24    2    1    2    0    0 -0.99163930244E+01  0.11653275510E+03 -0.10353177029E+04  0.10452757501E+04  0.83907270974E+02 0.  0.
         23    2    1    2    0    0  0.15858008647E+03 -0.33420841201E+02  0.24674169265E+03  0.30795151811E+03  0.87681686579E+02 0.  0.
         11    1    3    3    0    0  0.22506834340E+02  0.52730531718E+02 -0.24036899924E+03  0.24711196321E+03  0.00000000000E+00 0. -1.
        -12    1    3    3    0    0 -0.32423227364E+02  0.63802223379E+02 -0.79494870362E+03  0.79816378694E+03  0.00000000000E+00 0.  1.
        -11    1    4    4    0    0  0.32884126043E+02  0.24428683401E+02  0.29872179768E+02  0.50699836710E+02  0.00000000000E+00 0.  1.
         11    1    4    4    0    0  0.12569596043E+03 -0.57849524602E+02  0.21686951288E+03  0.25725168140E+03  0.00000000000E+00 0. -1.
          2    1    1    2  501    0 -0.14866369344E+03 -0.83111913896E+02  0.20934742528E+02  0.17160054611E+03  0.00000000000E+00 0. -1.
<scales pt_clust_5="13000.00000" pt_clust_6="13000.00000" pt_clust_7="13000.00000" pt_clust_8="13000.00000" pt_clust_9="160.26599"></scales>
<clustering>
<clus scale="   83.907">  5  6 -1 -1</clus>
<clus scale="   87.682">  7  8 -1 -1</clus>
<clus scale="  143.940">  1  5  2 -1</clus>
<clus scale="  160.266">  2  9  1 -1</clus>
<clus scale="  160.266">  2  5  1 -1</clus>
</clustering>
</event>
<event>
 9    1  0.1487426E-004  0.2561343E+03  0.7546771E-02  0.1142341E+00
         -2   -1    0    0    0  501 -0.00000000000E+00  0.00000000000E+00  0.39899689644E+03  0.39899689644E+03  0.00000000000E+00 0.  1.
         21   -1    0    0  501  502  0.00000000000E+00 -0.00000000000E+00 -0.27230290976E+03  0.27230290976E+03  0.00000000000E+00 0.  1.
        -24    2    1    2    0    0 -0.79484193142E+02 -0.13169791759E+02 -0.16995546312E+01  0.11361440847E+03  0.80088482013E+02 0.  0.
         23    2    1    2    0    0 -0.14182134399E+03  0.14209238020E+03  0.19282403821E+03  0.29358605373E+03  0.93317324828E+02 0.  0.
         11    1    3    3    0    0 -0.25594410570E+01  0.23536014006E+02 -0.13990114845E+02  0.27499418306E+02  0.00000000000E+00 0. -1.
        -12    1    3    3    0    0 -0.76924752085E+02 -0.36705805765E+02  0.12290560214E+02  0.86114990162E+02  0.00000000000E+00 0.  1.
        -11    1    4    4    0    0 -0.68358670476E+02  0.19639192011E+02  0.10200749417E+03  0.12435487348E+03  0.00000000000E+00 0.  1.
         11    1    4    4    0    0 -0.73462673513E+02  0.12245318819E+03  0.90816544036E+02  0.16923118025E+03  0.00000000000E+00 0. -1.
         -1    1    1    2    0  502  0.22130553713E+03 -0.12892258844E+03 -0.64430496895E+02  0.26409934401E+03  0.00000000000E+00 0.  1.
<scales pt_clust_5="13000.00000" pt_clust_6="13000.00000" pt_clust_7="13000.00000" pt_clust_8="13000.00000" pt_clust_9="238.53021"></scales>
<clustering>
<clus scale="   80.088">  5  6 -1 -1</clus>
<clus scale="   93.317">  7  8 -1 -1</clus>
<clus scale="  113.602">  1  5  2 -1</clus>
<clus scale="  238.530">  2  9  1 -1</clus>
<clus scale="  238.530">  2  5  1 -1</clus>
</clustering>
</event>
<event>
 9    1  0.1487426E-004  0.9904618E+02  0.7546771E-02  0.1287863E+00
         21   -1    0    0  501  502  0.00000000000E+00  0.00000000000E+00  0.11611641959E+03  0.11611641959E+03  0.00000000000E+00 0. -1.
          1   -1    0    0  502    0 -0.00000000000E+00 -0.00000000000E+00 -0.15850177030E+03  0.15850177030E+03  0.00000000000E+00 0. -1.
        -24    2    1    2    0    0 -0.36330966400E+02  0.35864945860E+02 -0.68219899745E+02  0.11758989811E+03  0.81038237608E+02 0.  0.
         23    2    1    2    0    0  0.22676485762E+02  0.34557393918E+01 -0.18318893059E+02  0.96348084301E+02  0.91767131176E+02 0.  0.
         13    1    3    3    0    0 -0.29748313011E+02 -0.34000236141E+01  0.85256428253E+01  0.31132119638E+02  0.00000000000E+00 0. -1.
        -14    1    3    3    0    0 -0.65826533889E+01  0.39264969474E+02 -0.76745542571E+02  0.86457778470E+02  0.00000000000E+00 0.  1.
        -13    1    4    4    0    0  0.39500541840E+02 -0.31815455803E+02  0.47946242867E+01  0.50946093625E+02  0.00000000000E+00 0.  1.
         13    1    4    4    0    0 -0.16824056077E+02  0.35271195194E+02 -0.23113517346E+02  0.45401990677E+02  0.00000000000E+00 0. -1.
          2    1    1    2  501    0  0.13654480637E+02 -0.39320685252E+02  0.44153442094E+02  0.60680207472E+02  0.00000000000E+00 0. -1.
<scales pt_clust_5="13000.00000" pt_clust_6="13000.00000" pt_clust_7="13000.00000" pt_clust_8="13000.00000" pt_clust_9="41.62405"></scales>
<clustering>
<clus scale="   41.624">  1  9  2 -1</clus>
<clus scale="   81.038">  5  6 -1 -1</clus>
<clus scale="   89.197">  2  5  1 -1</clus>
<clus scale="   91.767">  7  8 -1 -1</clus>
<clus scale="   41.624">  1  5  2 -1</clus>
</clustering>
</event>
<event>
 9    1  0.1487426E-004  0.9626413E+02  0.7546771E-02  0.1296078E+00
          1   -1    0    0  502    0 -0.00000000000E+00  0.00000000000E+00  0.55877458202E+03  0.55877458202E+03  0.00000000000E+00 0. -1.
         21   -1    0    0  501  502  0.00000000000E+00 -0.00000000000E+00 -0.12553225566E+03  0.12553225566E+03  0.00000000000E+00 0. -1.
        -24    2    1    2    0    0  0.23986211377E+02 -0.53683844737E+01  0.48430340318E+03  0.49158151151E+03  0.80612891307E+02 0.  0.
         23    2    1    2    0    0  0.10204548980E+02 -0.28859844807E+02  0.25632966794E+02  0.10204701508E+03  0.93912303980E+02 0.  0.
         13    1    3    3    0    0  0.52745660919E+02 -0.96725456627E+01  0.26615987995E+03  0.27150827718E+03  0.00000000000E+00 0. -1.
        -14    1    3    3    0    0 -0.28759449542E+02  0.43041611890E+01  0.21814352323E+03  0.22007323433E+03  0.00000000000E+00 0.  1.
        -13    1    4    4    0    0  0.26265793228E+02 -0.52903283816E+01  0.54956732849E+02  0.61140182808E+02  0.00000000000E+00 0. -1.
         13    1    4    4    0    0 -0.16061244248E+02 -0.23569516425E+02 -0.29323766055E+02  0.40906832277E+02  0.00000000000E+00 0.  1.
          2    1    1    2  501    0 -0.34190760357E+02  0.34228229280E+02 -0.76694043616E+02  0.90678311076E+02  0.00000000000E+00 0. -1.
<scales pt_clust_5="13000.00000" pt_clust_6="13000.00000" pt_clust_7="13000.00000" pt_clust_8="13000.00000" pt_clust_9="48.37954"></scales>
<clustering>
<clus scale="   48.380">  2  9  1 -1</clus>
<clus scale="   80.613">  5  6 -1 -1</clus>
<clus scale="   83.341">  1  5  2 -1</clus>
<clus scale="   93.912">  7  8 -1 -1</clus>
<clus scale="   48.380">  2  5  1 -1</clus>
</clustering>
</event>
<event>
 9    1  0.1487426E-004  0.1058759E+03  0.7546771E-02  0.1280540E+00
         21   -1    0    0  501  502  0.00000000000E+00  0.00000000000E+00  0.81901670343E+02  0.81901670343E+02  0.00000000000E+00 0.  1.
          3   -1    0    0  502    0 -0.00000000000E+00 -0.00000000000E+00 -0.36294945330E+03  0.36294945330E+03  0.00000000000E+00 0. -1.
        -24    2    1    2    0    0 -0.22679703580E+02 -0.30957453599E+01 -0.23550888894E+03  0.24983881143E+03  0.80193779899E+02 0.  0.
         23    2    1    2    0    0  0.30872485683E+02 -0.60535058759E+02 -0.43472941436E+02  0.13082299012E+03  0.10299104036E+03 0.  0.
         13    1    3    3    0    0 -0.23594722460E+02  0.36487177793E+02 -0.13462693470E+03  0.14146531949E+03  0.00000000000E+00 0. -1.
        -14    1    3    3    0    0  0.91501888035E+00 -0.39582923153E+02 -0.10088195424E+03  0.10837349194E+03  0.00000000000E+00 0.  1.
        -13    1    4    4    0    0 -0.35521247486E+02 -0.20818296098E+02 -0.32971241284E+02  0.52747163215E+02  0.00000000000E+00 0. -1.
         13    1    4    4    0    0  0.66393733169E+02 -0.39716762661E+02 -0.10501700152E+02  0.78075826902E+02  0.00000000000E+00 0.  1.
          4    1    1    2  501    0 -0.81927821029E+01  0.63630804119E+02 -0.20659525865E+01  0.64189322099E+02  0.00000000000E+00 0. -1.
<scales pt_clust_5="13000.00000" pt_clust_6="13000.00000" pt_clust_7="13000.00000" pt_clust_8="13000.00000" pt_clust_9="64.15607"></scales>
<clustering>
<clus scale="   64.156">  1  9  2 -1</clus>
<clus scale="   80.194">  5  6 -1 -1</clus>
<clus scale="   83.867">  2  5  1 -1</clus>
<clus scale="  102.991">  7  8 -1 -1</clus>
<clus scale="   64.156">  1  5  2 -1</clus>
</clustering>
</event>
<event>
 9    1  0.1487426E-004  0.1276471E+03  0.7546771E-02  0.1232730E+00
         -2   -1    0    0    0  501 -0.00000000000E+00  0.00000000000E+00  0.19459497985E+03  0.19459497985E+03  0.00000000000E+00 0.  1.
         21   -1    0    0  501  502  0.00000000000E+00 -0.00000000000E+00 -0.32702986842E+03  0.32702986842E+03  0.00000000000E+00 0.  1.
         23    2    1    2    0    0 -0.37245220705E+02  0.83501692642E+02  0.11039886721E+03  0.16801400338E+03  0.87641635718E+02 0.  0.
        -24    2    1    2    0    0 -0.44488984766E+02 -0.11983395866E+03 -0.88661479417E+02  0.17537054447E+03  0.80960005688E+02 0.  0.
         11    1    4    4    0    0  0.18712345689E+02 -0.44181636350E+02 -0.50511504838E+02  0.69667646672E+02  0.00000000000E+00 0. -1.
        -12    1    4    4    0    0 -0.63201330456E+02 -0.75652322311E+02 -0.38149974579E+02  0.10570289780E+03  0.00000000000E+00 0.  1.
        -13    1    3    3    0    0 -0.54966957376E+02  0.48027868036E+02  0.10516703374E+03  0.12801620014E+03  0.00000000000E+00 0.  1.
         13    1    3    3    0    0  0.17721736671E+02  0.35473824606E+02  0.52318334652E+01  0.39997803242E+02  0.00000000000E+00 0. -1.
         -1    1    1    2    0  502  0.81734205471E+02  0.36332266019E+02 -0.15417227636E+03  0.17824030042E+03  0.00000000000E+00 0.  1.
<scales pt_clust_5="13000.00000" pt_clust_6="13000.00000" pt_clust_7="13000.00000" pt_clust_8="13000.00000" pt_clust_9="89.44559"></scales>
<clustering>
<clus scale="   80.960">  5  6 -1 -1</clus>
<clus scale="   87.642">  7  8 -1 -1</clus>
<clus scale="   89.446">  2  9  1 -1</clus>
<clus scale="  123.155">  2  5  1 -1</clus>
<clus scale="   89.446">  2  5  1 -1</clus>
</clustering>
</event>
<event>
 9    1  0.1487426E-004  0.1440881E+03  0.7546771E-02  0.1210156E+00
         21   -1    0    0  501  502  0.00000000000E+00  0.00000000000E+00  0.29545649440E+03  0.29545649440E+03  0.00000000000E+00 0. -1.
         -4   -1    0    0    0  501 -0.00000000000E+00 -0.00000000000E+00 -0.12314806642E+03  0.12314806642E+03  0.00000000000E+00 0.  1.
         23    2    1    2    0    0 -0.55595237311E+02  0.10518626744E+03 -0.17356392689E+02  0.15128690950E+03  0.91823217921E+02 0.  0.
        -24    2    1    2    0    0  0.33327047825E+02 -0.93020225803E+02  0.71307079015E+02  0.14627038847E+03  0.80912746219E+02 0.  0.
         11    1    4    4    0    0  0.40650182890E+02 -0.39270601291E+02  0.72601592468E+02  0.92008742648E+02  0.00000000000E+00 0. -1.
        -12    1    4    4    0    0 -0.73231350656E+01 -0.53749624512E+02 -0.12945134531E+01  0.54261645823E+02  0.00000000000E+00 0.  1.
        -11    1    3    3    0    0 -0.31419827913E+02  0.23047340570E+02 -0.46657779204E+02  0.60789257716E+02  0.00000000000E+00 0.  1.
         11    1    3    3    0    0 -0.24175409398E+02  0.82138926868E+02  0.29301386515E+02  0.90497651783E+02  0.00000000000E+00 0. -1.
         -3    1    1    2    0  502  0.22268189487E+02 -0.12166041635E+02  0.11835774166E+03  0.12104726285E+03  0.00000000000E+00 0.  1.
<scales pt_clust_5="13000.00000" pt_clust_6="13000.00000" pt_clust_7="13000.00000" pt_clust_8="13000.00000" pt_clust_9="25.37489"></scales>
<clustering>
<clus scale="   25.375">  1  9  2 -1</clus>
<clus scale="   80.913">  5  6 -1 -1</clus>
<clus scale="   91.823">  7  8 -1 -1</clus>
<clus scale="  137.393">  1  5  2 -1</clus>
<clus scale="   25.375">  1  5  2 -1</clus>
</clustering>
</event>
<event>
 9    1  0.1487426E-004  0.1174458E+03  0.7546771E-02  0.1250900E+00
         21   -1    0    0  501  502  0.00000000000E+00  0.00000000000E+00  0.12858715975E+03  0.12858715975E+03  0.00000000000E+00 0. -1.
          3   -1    0    0  502    0 -0.00000000000E+00 -0.00000000000E+00 -0.18260518923E+03  0.18260518923E+03  0.00000000000E+00 0. -1.
         23    2    1    2    0    0  0.52956278586E+02  0.63967712944E+02 -0.52884792797E+02  0.13340267311E+03  0.90017976777E+02 0.  0.
        -24    2    1    2    0    0  0.19653510430E+01 -0.74354643221E+02  0.31342864470E+02  0.11314471575E+03  0.79289822655E+02 0.  0.
         11    1    4    4    0    0 -0.10434202124E+02 -0.61855970363E+02 -0.14200264011E+02  0.64317036168E+02  0.00000000000E+00 0. -1.
        -12    1    4    4    0    0  0.12399553167E+02 -0.12498672858E+02  0.45543128480E+02  0.48827679586E+02  0.00000000000E+00 0.  1.
        -13    1    3    3    0    0  0.18991872656E+02 -0.10867537117E+02 -0.45992162422E+02  0.50932048793E+02  0.00000000000E+00 0.  1.
         13    1    3    3    0    0  0.33964405930E+02  0.74835250061E+02 -0.68926303743E+01  0.82470624318E+02  0.00000000000E+00 0. -1.
          4    1    1    2  501    0 -0.54921629629E+02  0.10386930278E+02 -0.32476101150E+02  0.64644960110E+02  0.00000000000E+00 0. -1.
<scales pt_clust_5="13000.00000" pt_clust_6="13000.00000" pt_clust_7="13000.00000" pt_clust_8="13000.00000" pt_clust_9="55.89523"></scales>
<clustering>
<clus scale="   55.895">  1  9  2 -1</clus>
<clus scale="   79.290">  5  6 -1 -1</clus>
<clus scale="   90.018">  7  8 -1 -1</clus>
<clus scale="  109.440">  1  5  2 -1</clus>
<clus scale="   55.895">  1  5  2 -1</clus>
</clustering>
</event>
<event>
 9    1  0.1487426E-004  0.1076433E+03  0.7546771E-02  0.1271094E+00
         21   -1    0    0  501  502  0.00000000000E+00  0.00000000000E+00  0.13875756683E+03  0.13875756683E+03  0.00000000000E+00 0. -1.
          3   -1    0    0  502    0 -0.00000000000E+00 -0.00000000000E+00 -0.28766774921E+03  0.28766774921E+03  0.00000000000E+00 0. -1.
        -24    2    1    2    0    0 -0.60782242113E+02 -0.12857443207E+02 -0.22631599300E+03  0.24723388089E+03  0.77755182243E+02 0.  0.
         23    2    1    2    0    0  0.25792094816E+02 -0.17253609319E+02  0.10316439424E+02  0.97754529386E+02  0.92122743682E+02 0.  0.
         11    1    3    3    0    0 -0.62067750942E+02 -0.26221165722E+02 -0.22360671495E+03  0.23353783036E+03  0.00000000000E+00 0. -1.
        -12    1    3    3    0    0  0.12855088288E+01  0.13363722516E+02 -0.27092780562E+01  0.13696050526E+02  0.00000000000E+00 0.  1.
        -11    1    4    4    0    0  0.58490479462E+02 -0.14479547875E+02  0.20085395627E+02  0.63515483245E+02  0.00000000000E+00 0.  1.
         11    1    4    4    0    0 -0.32698384646E+02 -0.27740614438E+01 -0.97689562024E+01  0.34239046141E+02  0.00000000000E+00 0. -1.
          4    1    1    2  501    0  0.34990147297E+02  0.30111052526E+02  0.67089371208E+02  0.81436905768E+02  0.00000000000E+00 0. -1.
<scales pt_clust_5="13000.00000" pt_clust_6="13000.00000" pt_clust_7="13000.00000" pt_clust_8="13000.00000" pt_clust_9="46.16260"></scales>
<clustering>
<clus scale="   46.163">  1  9  2 -1</clus>
<clus scale="   77.755">  5  6 -1 -1</clus>
<clus scale="   92.123">  7  8 -1 -1</clus>
<clus scale="   95.637">  2  5  1 -1</clus>
<clus scale="   46.163">  1  5  2 -1</clus>
</clustering>
</event>
<event>
 9    1  0.1487426E-004  0.9615263E+02  0.7546771E-02  0.1294339E+00
         -4   -1    0    0    0  501 -0.00000000000E+00  0.00000000000E+00  0.24273009001E+03  0.24273009001E+03  0.00000000000E+00 0.  1.
         21   -1    0    0  501  502  0.00000000000E+00 -0.00000000000E+00 -0.81477491213E+02  0.81477491213E+02  0.00000000000E+00 0. -1.
         23    2    1    2    0    0 -0.30205651375E+02 -0.90313877643E+01  0.17125850190E+03  0.19574067440E+03  0.89392336374E+02 0.  0.
        -24    2    1    2    0    0  0.47969796982E+02  0.28892771001E+02 -0.22184652886E+02  0.99169102138E+02  0.78781078671E+02 0.  0.
         11    1    4    4    0    0  0.40985574397E+02  0.37812101990E+02 -0.46329832199E+02  0.72498453205E+02  0.00000000000E+00 0. -1.
        -12    1    4    4    0    0  0.69842225845E+01 -0.89193309890E+01  0.24145179313E+02  0.26670648932E+02  0.00000000000E+00 0.  1.
        -11    1    3    3    0    0 -0.52915721355E+02  0.11440974534E+02  0.62122361146E+02  0.82402410275E+02  0.00000000000E+00 0.  1.
         11    1    3    3    0    0  0.22710069981E+02 -0.20472362299E+02  0.10913614075E+03  0.11333826412E+03  0.00000000000E+00 0. -1.
         -3    1    1    2    0  502 -0.17764145607E+02 -0.19861383237E+02  0.12178749790E+02  0.29297804690E+02  0.00000000000E+00 0.  1.
<scales pt_clust_5="13000.00000" pt_clust_6="13000.00000" pt_clust_7="13000.00000" pt_clust_8="13000.00000" pt_clust_9="26.64656"></scales>
<clustering>
<clus scale="   26.647">  2  9  1 -1</clus>
<clus scale="   78.781">  5  6 -1 -1</clus>
<clus scale="   86.376">  2  5  1 -1</clus>
<clus scale="   89.392">  7  8 -1 -1</clus>
<clus scale="   26.647">  2  5  1 -1</clus>
</clustering>
</event>
<event>
 9    1  0.1836898E-004  0.9321169E+02  0.7546771E-02  0.1306257E+00
          1   -1    0    0  502    0 -0.00000000000E+00  0.00000000000E+00  0.32345115964E+03  0.32345115964E+03  0.00000000000E+00 0. -1.
         21   -1    0    0  501  502  0.00000000000E+00 -0.00000000000E+00 -0.13559831182E+03  0.13559831182E+03  0.00000000000E+00 0.  1.
        -24    2    1    2    0    0 -0.19060681514E+02  0.68192924551E+01  0.27577629498E+03  0.28594378857E+03  0.72811214916E+02 0.  0.
         23    2    1    2    0    0  0.59601440265E+02 -0.54460004918E+01 -0.62606543407E+02  0.12528952802E+03  0.90531187728E+02 0.  0.
         11    1    3    3    0    0 -0.24803911704E+02  0.36885448172E+02  0.14660910846E+03  0.15319921999E+03  0.00000000000E+00 0. -1.
        -12    1    3    3    0    0  0.57432301895E+01 -0.30066155717E+02  0.12916718652E+03  0.13274456857E+03  0.00000000000E+00 0.  1.
        -13    1    4    4    0    0 -0.23544374933E+02  0.65379113533E+01 -0.12053827337E+02  0.27246589315E+02  0.00000000000E+00 0. -1.
         13    1    4    4    0    0  0.83145815198E+02 -0.11983911845E+02 -0.50552716070E+02  0.98042938706E+02  0.00000000000E+00 0.  1.
          2    1    1    2  501    0 -0.40540758751E+02 -0.13732919632E+01 -0.25316903758E+02  0.47816154872E+02  0.00000000000E+00 0. -1.
<scales pt_clust_5="13000.00000" pt_clust_6="13000.00000" pt_clust_7="13000.00000" pt_clust_8="13000.00000" pt_clust_9="40.56401"></scales>
<clustering>
<clus scale="   40.564">  2  9  1 -1</clus>
<clus scale="   72.811">  5  6 -1 -1</clus>
<clus scale="   76.118">  1  5  2 -1</clus>
<clus scale="   90.531">  7  8 -1 -1</clus>
<clus scale="   40.564">  2  5  1 -1</clus>
</clustering>
</event>
<event>
 9    1  0.1487426E-004  0.1314821E+03  0.7546771E-02  0.1246807E+00
         21   -1    0    0  501  502  0.00000000000E+00  0.00000000000E+00  0.24443112776E+03  0.24443112776E+03  0.00000000000E+00 0. -1.
         -2   -1    0    0    0  501 -0.00000000000E+00 -0.00000000000E+00 -0.24017825968E+03  0.24017825968E+03  0.00000000000E+00 0.  1.
        -24    2    1    2    0    0  0.42463859764E+01  0.20260159637E+02 -0.93945455432E+02  0.12646205679E+03  0.82087741762E+02 0.  0.
         23    2    1    2    0    0 -0.52429032892E+02  0.72165484068E+02  0.18254675679E+03  0.22406256167E+03  0.94467203553E+02 0.  0.
         13    1    3    3    0    0 -0.36642128017E+02  0.22085960850E+02 -0.38572428597E+02  0.57604404868E+02  0.00000000000E+00 0. -1.
        -14    1    3    3    0    0  0.40888513994E+02 -0.18258012124E+01 -0.55373026836E+02  0.68857651918E+02  0.00000000000E+00 0.  1.
        -13    1    4    4    0    0 -0.15781359815E+02  0.22822904889E+02  0.15366760971E+03  0.15615271556E+03  0.00000000000E+00 0. -1.
         13    1    4    4    0    0 -0.36647673077E+02  0.49342579179E+02  0.28879147085E+02  0.67909846107E+02  0.00000000000E+00 0.  1.
         -1    1    1    2    0  502  0.48182646915E+02 -0.92425643705E+02 -0.84348433273E+02  0.13408476898E+03  0.00000000000E+00 0.  1.
<scales pt_clust_5="13000.00000" pt_clust_6="13000.00000" pt_clust_7="13000.00000" pt_clust_8="13000.00000" pt_clust_9="91.45216"></scales>
<clustering>
<clus scale="   82.088">  5  6 -1 -1</clus>
<clus scale="   84.658">  2  5  1 -1</clus>
<clus scale="   91.452">  1  9  2 -1</clus>
<clus scale="   94.467">  7  8 -1 -1</clus>
<clus scale="   91.452">  1  5  2 -1</clus>
</clustering>
</event>
<event>
 9    1  0.1487426E-004  0.1745294E+03  0.7546771E-02  0.1174511E+00
          1   -1    0    0  502    0 -0.00000000000E+00  0.00000000000E+00  0.85735236454E+03  0.85735236454E+03  0.00000000000E+00 0. -1.
         21   -1    0    0  501  502  0.00000000000E+00 -0.00000000000E+00 -0.86037018400E+02  0.86037018400E+02  0.00000000000E+00 0.  1.
         23    2    1    2    0    0  0.83504626666E+02  0.12528213484E+03  0.66904880893E+03  0.69178280015E+03  0.90931281041E+02 0.  0.
        -24    2    1    2    0    0 -0.55308255824E+02 -0.13460791242E+03  0.12984896777E+03  0.21107516372E+03  0.80707354448E+02 0.  0.
         11    1    4    4    0    0 -0.45057322730E+02 -0.53335307384E+02  0.10383729851E+03  0.12512794215E+03  0.00000000000E+00 0. -1.
        -12    1    4    4    0    0 -0.10250933093E+02 -0.81272605032E+02  0.26011669260E+02  0.85947221571E+02  0.00000000000E+00 0.  1.
        -13    1    3    3    0    0  0.62813975470E+02  0.25309122524E+02  0.35980973996E+03  0.36612729503E+03  0.00000000000E+00 0.  1.
         13    1    3    3    0    0  0.20690651196E+02  0.99973012312E+02  0.30923906897E+03  0.32565550512E+03  0.00000000000E+00 0. -1.
          2    1    1    2  501    0 -0.28196370843E+02  0.93257775806E+01 -0.27582430557E+02  0.40531419067E+02  0.00000000000E+00 0. -1.
<scales pt_clust_5="13000.00000" pt_clust_6="13000.00000" pt_clust_7="13000.00000" pt_clust_8="13000.00000" pt_clust_9="29.69858"></scales>
<clustering>
<clus scale="   29.699">  2  9  1 -1</clus>
<clus scale="   80.707">  5  6 -1 -1</clus>
<clus scale="   90.931">  7  8 -1 -1</clus>
<clus scale="  169.428">  2  5  1 -1</clus>
<clus scale="   29.699">  2  5  1 -1</clus>
</clustering>
</event>
<event>
 9    1  0.1487426E-004  0.1665965E+03  0.7546771E-02  0.1183137E+00
         21   -1    0    0  501  502  0.00000000000E+00  0.00000000000E+00  0.43173646425E+03  0.43173646425E+03  0.00000000000E+00 0. -1.
          1   -1    0    0  502    0 -0.00000000000E+00 -0.00000000000E+00 -0.12513276197E+03  0.12513276197E+03  0.00000000000E+00 0. -1.
         23    2    1    2    0    0 -0.10754816940E+03  0.83269890237E+02 -0.30348932934E+02  0.16704799480E+03  0.92105871024E+02 0.  0.
        -24    2    1    2    0    0  0.10936198584E+03 -0.10553340051E+03  0.27899703102E+03  0.32770999349E+03  0.80356418196E+02 0.  0.
         11    1    4    4    0    0  0.79760926710E+01 -0.31534142202E+02  0.15900380314E+02  0.36205555829E+02  0.00000000000E+00 0. -1.
        -12    1    4    4    0    0  0.10138589317E+03 -0.73999258305E+02  0.26309665071E+03  0.29150443766E+03  0.00000000000E+00 0.  1.
        -11    1    3    3    0    0 -0.19457165364E+02 -0.20372335803E+02 -0.33030303856E+01  0.28364120995E+02  0.00000000000E+00 0.  1.
         11    1    3    3    0    0 -0.88091004033E+02  0.10364222604E+03 -0.27045902548E+02  0.13868387381E+03  0.00000000000E+00 0. -1.
          2    1    1    2  501    0 -0.18138164403E+01  0.22263510270E+02  0.57955604186E+02  0.62111237922E+02  0.00000000000E+00 0. -1.
<scales pt_clust_5="13000.00000" pt_clust_6="13000.00000" pt_clust_7="13000.00000" pt_clust_8="13000.00000" pt_clust_9="22.33727"></scales>
<clustering>
<clus scale="   22.337">  1  9  2 -1</clus>
<clus scale="   80.356">  5  6 -1 -1</clus>
<clus scale="   92.106">  7  8 -1 -1</clus>
<clus scale="  160.400">  1  5  2 -1</clus>
<clus scale="   22.337">  1  5  2 -1</clus>
</clustering>
</event>
<event>
 9    1  0.1487426E-004  0.1488887E+03  0.7546771E-02  0.1203312E+00
         21   -1    0    0  501  502  0.00000000000E+00  0.00000000000E+00  0.28313174505E+03  0.28313174505E+03  0.00000000000E+00 0. -1.
          1   -1    0    0  502    0 -0.00000000000E+00 -0.00000000000E+00 -0.44564742885E+03  0.44564742885E+03  0.00000000000E+00 0. -1.
        -24    2    1    2    0    0 -0.24077833481E+02 -0.11454181067E+03 -0.32426161319E+03  0.35479294081E+03  0.83862200066E+02 0.  0.
         23    2    1    2    0    0  0.12730417179E+03  0.87801376605E+02 -0.59881433875E+00  0.17975301361E+03  0.91626161309E+02 0.  0.
         13    1    3    3    0    0 -0.52224054168E+02 -0.65912179756E+02 -0.23197596864E+03  0.24674808469E+03  0.00000000000E+00 0. -1.
        -14    1    3    3    0    0  0.28146220687E+02 -0.48629630919E+02 -0.92285644549E+02  0.10804485611E+03  0.00000000000E+00 0.  1.
        -11    1    4    4    0    0  0.13442282143E+03  0.53461016676E+02 -0.14877749322E+01  0.14467131263E+03  0.00000000000E+00 0. -1.
         11    1    4    4    0    0 -0.71186496399E+01  0.34340359929E+02  0.88896059343E+00  0.35081700980E+02  0.00000000000E+00 0.  1.
          2    1    1    2  501    0 -0.10322633831E+03  0.26740434070E+02  0.16234474373E+03  0.19423321949E+03  0.00000000000E+00 0. -1.
<scales pt_clust_5="13000.00000" pt_clust_6="13000.00000" pt_clust_7="13000.00000" pt_clust_8="13000.00000" pt_clust_9="106.63361"></scales>
<clustering>
<clus scale="   83.862">  5  6 -1 -1</clus>
<clus scale="   91.626">  7  8 -1 -1</clus>
<clus scale="  106.634">  1  9  2 -1</clus>
<clus scale="  144.241">  2  5  1 -1</clus>
<clus scale="  106.634">  1  5  2 -1</clus>
</clustering>
</event>
<event>
 9    1  0.1487426E-004  0.2363574E+03  0.7546771E-02  0.1122243E+00
         21   -1    0    0  501  502  0.00000000000E+00  0.00000000000E+00  0.11798519225E+03  0.11798519225E+03  0.00000000000E+00 0. -1.
          1   -1    0    0  502    0 -0.00000000000E+00 -0.00000000000E+00 -0.40390859329E+03  0.40390859329E+03  0.00000000000E+00 0. -1.
        -24    2    1    2    0    0  0.25010658581E+02 -0.73547800828E+02 -0.16465744975E+03  0.19879347577E+03  0.79824546367E+02 0.  0.
         23    2    1    2    0    0 -0.25497777085E+01 -0.82243770297E+02 -0.11249058873E+03  0.16545351535E+03  0.89163860774E+02 0.  0.
         11    1    3    3    0    0  0.52208881205E+02 -0.36949028324E+02 -0.77997896360E+02  0.10086956829E+03  0.00000000000E+00 0. -1.
        -12    1    3    3    0    0 -0.27198222624E+02 -0.36598772504E+02 -0.86659553391E+02  0.97923907482E+02  0.00000000000E+00 0.  1.
        -13    1    4    4    0    0 -0.27572430471E+02 -0.11745045299E+02 -0.77053744364E+02  0.82676868178E+02  0.00000000000E+00 0.  1.
         13    1    4    4    0    0  0.25022652763E+02 -0.70498724998E+02 -0.35436844369E+02  0.82776647169E+02  0.00000000000E+00 0. -1.
          2    1    1    2  501    0 -0.22460880873E+02  0.15579157113E+03 -0.87753625512E+01  0.15764679442E+03  0.00000000000E+00 0. -1.
<scales pt_clust_5="13000.00000" pt_clust_6="13000.00000" pt_clust_7="13000.00000" pt_clust_8="13000.00000" pt_clust_9="157.40237"></scales>
<clustering>
<clus scale="   79.825">  5  6 -1 -1</clus>
<clus scale="   89.164">  7  8 -1 -1</clus>
<clus scale="  100.234">  5  7 -1 -1</clus>
<clus scale="  157.402">  1  9  2 -1</clus>
<clus scale="  157.402">  1  5  2 -1</clus>
</clustering>
</event>
<event>
 9    1  0.1487426E-004  0.1434523E+03  0.7546771E-02  0.1213607E+00
         21   -1    0    0  501  502  0.00000000000E+00  0.00000000000E+00  0.36449305166E+02  0.36449305166E+02  0.00000000000E+00 0. -1.
          1   -1    0    0  502    0 -0.00000000000E+00 -0.00000000000E+00 -0.10092910738E+04  0.10092910738E+04  0.00000000000E+00 0. -1.
        -24    2    1    2    0    0  0.84685698714E+02  0.40354333649E+02 -0.62115031615E+03  0.63355794546E+03  0.82266732000E+02 0.  0.
         23    2    1    2    0    0 -0.11412471171E+03 -0.28996577925E+02 -0.34653000547E+03  0.38020909090E+03  0.10300804220E+03 0.  0.
         11    1    3    3    0    0  0.61247970477E+02  0.61596661431E+02 -0.35219488719E+03  0.36274881274E+03  0.00000000000E+00 0. -1.
        -12    1    3    3    0    0  0.23437728237E+02 -0.21242327782E+02 -0.26895542896E+03  0.27080913272E+03  0.00000000000E+00 0.  1.
        -11    1    4    4    0    0  0.46446332983E+01  0.23092566319E+02 -0.30010837015E+02  0.38150879099E+02  0.00000000000E+00 0.  1.
         11    1    4    4    0    0 -0.11876934501E+03 -0.52089144244E+02 -0.31651916846E+03  0.34205821180E+03  0.00000000000E+00 0. -1.
          2    1    1    2  501    0  0.29439012996E+02 -0.11357755724E+02 -0.51614470034E+01  0.31973342591E+02  0.00000000000E+00 0. -1.
<scales pt_clust_5="13000.00000" pt_clust_6="13000.00000" pt_clust_7="13000.00000" pt_clust_8="13000.00000" pt_clust_9="31.55399"></scales>
<clustering>
<clus scale="   31.554">  1  9  2 -1</clus>
<clus scale="   82.267">  5  6 -1 -1</clus>
<clus scale="  103.008">  7  8 -1 -1</clus>
<clus scale="  129.367">  2  5  1 -1</clus>
<clus scale="   31.554">  1  5  2 -1</clus>
</clustering>
</event>
<event>
 9    1  0.1487426E-004  0.1225289E+03  0.7546771E-02  0.1260578E+00
         21   -1    0    0  501  502  0.00000000000E+00  0.00000000000E+00  0.36202877607E+02  0.36202877607E+02  0.00000000000E+00 0. -1.
          1   -1    0    0  502    0 -0.00000000000E+00 -0.00000000000E+00 -0.60886701135E+03  0.60886701135E+03  0.00000000000E+00 0. -1.
        -24    2    1    2    0    0  0.40229184143E+01 -0.44729728211E+01 -0.20996515250E+03  0.22453912101E+03  0.79348977561E+02 0.  0.
         23    2    1    2    0    0 -0.15533553208E+02 -0.78010252198E+02 -0.15607270972E+03  0.19775196912E+03  0.91761973877E+02 0.  0.
         13    1    3    3    0    0 -0.31331464454E+02  0.19138630058E+02 -0.10782953159E+03  0.11390854098E+03  0.00000000000E+00 0. -1.
        -14    1    3    3    0    0  0.35354382868E+02 -0.23611602879E+02 -0.10213562092E+03  0.11063058003E+03  0.00000000000E+00 0.  1.
        -13    1    4    4    0    0  0.22541477614E+02 -0.59337387055E+02 -0.13752334418E+03  0.15146522343E+03  0.00000000000E+00 0.  1.
         13    1    4    4    0    0 -0.38075030822E+02 -0.18672865142E+02 -0.18549365542E+02  0.46286745692E+02  0.00000000000E+00 0. -1.
          2    1    1    2  501    0  0.11510634793E+02  0.82483225019E+02 -0.20662627152E+03  0.22277879882E+03  0.00000000000E+00 0. -1.
<scales pt_clust_5="13000.00000" pt_clust_6="13000.00000" pt_clust_7="13000.00000" pt_clust_8="13000.00000" pt_clust_9="81.19784"></scales>
<clustering>
<clus scale="   79.349">  5  6 -1 -1</clus>
<clus scale="   79.577">  2  5  1 -1</clus>
<clus scale="   81.198">  1  9  2 -1</clus>
<clus scale="   91.762">  7  8 -1 -1</clus>
<clus scale="   81.198">  1  5  2 -1</clus>
</clustering>
</event>
<event>
 9    1  0.1487426E-004  0.1004095E+03  0.7546771E-02  0.1285604E+00
          3   -1    0    0  502    0 -0.00000000000E+00  0.00000000000E+00  0.24936309934E+03  0.24936309934E+03  0.00000000000E+00 0. -1.
         21   -1    0    0  501  502  0.00000000000E+00 -0.00000000000E+00 -0.61955123046E+02  0.61955123046E+02  0.00000000000E+00 0. -1.
         23    2    1    2    0    0 -0.36661599181E+02 -0.31777666010E+02  0.10212263907E+03  0.14598767515E+03  0.92355156723E+02 0.  0.
        -24    2    1    2    0    0  0.10485547682E+02  0.23369668830E+02  0.94852014930E+01  0.84698415519E+02  0.80173339787E+02 0.  0.
         11    1    4    4    0    0 -0.28178721196E+02  0.32576372480E+02  0.12469096894E+02  0.44841261685E+02  0.00000000000E+00 0. -1.
        -12    1    4    4    0    0  0.38664268878E+02 -0.92067036496E+01 -0.29838954011E+01  0.39857153834E+02  0.00000000000E+00 0.  1.
        -11    1    3    3    0    0  0.51305118644E+01 -0.19796964427E+02 -0.12105913944E+02  0.23765418257E+02  0.00000000000E+00 0.  1.
         11    1    3    3    0    0 -0.41792111046E+02 -0.11980701583E+02  0.11422855302E+03  0.12222225690E+03  0.00000000000E+00 0. -1.
          4    1    1    2  501    0  0.26176051500E+02  0.84079971800E+01  0.75800135724E+02  0.80632131713E+02  0.00000000000E+00 0. -1.
<scales pt_clust_5="13000.00000" pt_clust_6="13000.00000" pt_clust_7="13000.00000" pt_clust_8="13000.00000" pt_clust_9="27.49329"></scales>
<clustering>
<clus scale="   27.493">  2  9  1 -1</clus>
<clus scale="   80.173">  5  6 -1 -1</clus>
<clus scale="   89.333">  2  5  1 -1</clus>
<clus scale="   92.355">  7  8 -1 -1</clus>
<clus scale="   27.493">  2  5  1 -1</clus>
</clustering>
</event>
<event>
 9    1  0.1487426E-004  0.1361343E+03  0.7546771E-02  0.1236750E+00
         21   -1    0    0  501  502  0.00000000000E+00  0.00000000000E+00  0.17062052671E+03  0.17062052671E+03  0.00000000000E+00 0.  1.
         -2   -1    0    0    0  501 -0.00000000000E+00 -0.00000000000E+00 -0.18051627451E+03  0.18051627451E+03  0.00000000000E+00 0.  1.
        -24    2    1    2    0    0 -0.32644577384E+02 -0.33307043121E+02 -0.47949180676E+02  0.10507868112E+03  0.81039359233E+02 0.  0.
         23    2    1    2    0    0 -0.29552248343E+02  0.10925271448E+03  0.19555082236E+02  0.14616628307E+03  0.90402931712E+02 0.  0.
         13    1    3    3    0    0 -0.37529147495E+02 -0.40116658132E+02  0.14699662502E+01  0.54954016888E+02  0.00000000000E+00 0. -1.
        -14    1    3    3    0    0  0.48845701109E+01  0.68096150103E+01 -0.49419146926E+02  0.50124664235E+02  0.00000000000E+00 0.  1.
        -13    1    4    4    0    0 -0.52438462254E+02  0.10904032144E+03  0.10140341270E+02  0.12141832870E+03  0.00000000000E+00 0.  1.
         13    1    4    4    0    0  0.22886213912E+02  0.21239303865E+00  0.94147409655E+01  0.24747954369E+02  0.00000000000E+00 0. -1.
         -1    1    1    2    0  502  0.62196825727E+02 -0.75945671358E+02  0.18498350636E+02  0.99891837028E+02  0.00000000000E+00 0.  1.
<scales pt_clust_5="13000.00000" pt_clust_6="13000.00000" pt_clust_7="13000.00000" pt_clust_8="13000.00000" pt_clust_9="101.78341"></scales>
<clustering>
<clus scale="   81.039">  5  6 -1 -1</clus>
<clus scale="   90.403">  7  8 -1 -1</clus>
<clus scale="   93.501">  2  5  1 -1</clus>
<clus scale="  101.783">  1  9  2 -1</clus>
<clus scale="  101.783">  1  5  2 -1</clus>
</clustering>
</event>
<event>
 9    1  0.1487426E-004  0.9392576E+02  0.7546771E-02  0.1301257E+00
         21   -1    0    0  501  502  0.00000000000E+00  0.00000000000E+00  0.16149945126E+03  0.16149945126E+03  0.00000000000E+00 0. -1.
          1   -1    0    0  502    0 -0.00000000000E+00 -0.00000000000E+00 -0.24371650712E+03  0.24371650712E+03  0.00000000000E+00 0. -1.
         23    2    1    2    0    0 -0.11679612226E+02 -0.29573326240E+02 -0.17617171703E+03  0.20093646815E+03  0.91257851075E+02 0.  0.
        -24    2    1    2    0    0 -0.37523009005E+02 -0.14293970058E+01 -0.75470480599E+01  0.87298022628E+02  0.78447227101E+02 0.  0.
         13    1    4    4    0    0 -0.58322743154E+02 -0.43499671428E+01 -0.21243173997E+02  0.62223283621E+02  0.00000000000E+00 0. -1.
        -14    1    4    4    0    0  0.20799734149E+02  0.29205701370E+01  0.13696125937E+02  0.25074739007E+02  0.00000000000E+00 0.  1.
        -13    1    3    3    0    0  0.28760930305E+02 -0.33363669108E+02 -0.42421624150E+02  0.61154883075E+02  0.00000000000E+00 0.  1.
         13    1    3    3    0    0 -0.40440542532E+02  0.37903428680E+01 -0.13375009288E+03  0.13978158507E+03  0.00000000000E+00 0. -1.
          2    1    1    2  501    0  0.49202621231E+02  0.31002723246E+02  0.10150170924E+03  0.11698146760E+03  0.00000000000E+00 0. -1.
<scales pt_clust_5="13000.00000" pt_clust_6="13000.00000" pt_clust_7="13000.00000" pt_clust_8="13000.00000" pt_clust_9="58.15554"></scales>
<clustering>
<clus scale="   58.156">  1  9  2 -1</clus>
<clus scale="   78.447">  5  6 -1 -1</clus>
<clus scale="   81.535">  1  5  2 -1</clus>
<clus scale="   91.258">  7  8 -1 -1</clus>
<clus scale="   58.156">  1  5  2 -1</clus>
</clustering>
</event>
<event>
 9    1  0.1487426E-004  0.1386649E+03  0.7546771E-02  0.1231685E+00
          1   -1    0    0  502    0 -0.00000000000E+00  0.00000000000E+00  0.66651590023E+03  0.66651590023E+03  0.00000000000E+00 0. -1.
         21   -1    0    0  501  502  0.00000000000E+00 -0.00000000000E+00 -0.57673611757E+02  0.57673611757E+02  0.00000000000E+00 0. -1.
        -24    2    1    2    0    0  0.52192698583E+02 -0.23154007140E+02  0.73745426248E+02  0.12277208989E+03  0.79839916912E+02 0.  0.
         23    2    1    2    0    0  0.62787703834E+02  0.96539429570E+00  0.43001959325E+03  0.44408319207E+03  0.91377257375E+02 0.  0.
         13    1    3    3    0    0  0.65883177785E+02  0.10045609952E+01  0.67463500296E+02  0.94302312432E+02  0.00000000000E+00 0. -1.
        -14    1    3    3    0    0 -0.13690479202E+02 -0.24158568135E+02  0.62819259524E+01  0.28469777463E+02  0.00000000000E+00 0.  1.
        -11    1    4    4    0    0  0.82788927523E+02  0.17768774036E+02  0.32145823291E+03  0.33242312098E+03  0.00000000000E+00 0. -1.
         11    1    4    4    0    0 -0.20001223689E+02 -0.16803379741E+02  0.10856136034E+03  0.11166007110E+03  0.00000000000E+00 0.  1.
          2    1    1    2  501    0 -0.11498040242E+03  0.22188612844E+02  0.10507726897E+03  0.15733423002E+03  0.00000000000E+00 0. -1.
<scales pt_clust_5="13000.00000" pt_clust_6="13000.00000" pt_clust_7="13000.00000" pt_clust_8="13000.00000" pt_clust_9="104.29844"></scales>
<clustering>
<clus scale="   79.840">  5  6 -1 -1</clus>
<clus scale="   91.377">  7  8 -1 -1</clus>
<clus scale="   98.156">  1  5  2 -1</clus>
<clus scale="  104.298">  2  9  1 -1</clus>
<clus scale="  104.298">  2  5  1 -1</clus>
</clustering>
</event>
<event>
 9    1  0.1487426E-004  0.4114064E+03  0.7546771E-02  0.1087734E+00
         21   -1    0    0  501  502  0.00000000000E+00  0.00000000000E+00  0.11377103563E+03  0.11377103563E+03  0.00000000000E+00 0.  1.
          1   -1    0    0  502    0 -0.00000000000E+00 -0.00000000000E+00 -0.33336616162E+04  0.33336616162E+04  0.00000000000E+00 0. -1.
        -24    2    1    2    0    0 -0.53764262123E+02 -0.52213254125E+02 -0.21871257688E+03  0.24430534621E+03  0.78949927883E+02 0.  0.
         23    2    1    2    0    0  0.21258138670E+03  0.35387010668E+03 -0.40756501260E+03  0.58720527250E+03  0.91026887155E+02 0.  0.
         13    1    3    3    0    0 -0.57855412152E+02 -0.63711877183E+02 -0.13772045960E+03  0.16239882081E+03  0.00000000000E+00 0. -1.
        -14    1    3    3    0    0  0.40911500287E+01  0.11498623057E+02 -0.80992117278E+02  0.81906525393E+02  0.00000000000E+00 0.  1.
        -11    1    4    4    0    0  0.11816607295E+02  0.84387425814E+02 -0.63575458942E+02  0.10631419860E+03  0.00000000000E+00 0. -1.
         11    1    4    4    0    0  0.20076477941E+03  0.26948268087E+03 -0.34398955365E+03  0.48089107390E+03  0.00000000000E+00 0.  1.
          2    1    1    2  501    0 -0.15881712458E+03 -0.30165685255E+03 -0.25936129911E+04  0.26159220331E+04  0.00000000000E+00 0. -1.
<scales pt_clust_5="13000.00000" pt_clust_6="13000.00000" pt_clust_7="13000.00000" pt_clust_8="13000.00000" pt_clust_9="401.21001"></scales>
<clustering>
<clus scale="   78.950">  5  6 -1 -1</clus>
<clus scale="   91.027">  7  8 -1 -1</clus>
<clus scale="  108.857">  2  5  1 -1</clus>
<clus scale="  401.210">  1  9  2 -1</clus>
<clus scale="  401.210">  1  5  2 -1</clus>
</clustering>
</event>
<event>
 9    1  0.1487426E-004  0.1287662E+03  0.7546771E-02  0.1234685E+00
         21   -1    0    0  501  502  0.00000000000E+00  0.00000000000E+00  0.52148592347E+03  0.52148592347E+03  0.00000000000E+00 0.  1.
         -2   -1    0    0    0  501 -0.00000000000E+00 -0.00000000000E+00 -0.64180248946E+02  0.64180248946E+02  0.00000000000E+00 0.  1.
         23    2    1    2    0    0  0.63879376145E+02  0.28112496762E+02  0.11046541124E+03  0.15964313019E+03  0.91719326027E+02 0.  0.
        -24    2    1    2    0    0 -0.40655695750E+02  0.87253682281E+02  0.21685281428E+03  0.25067928985E+03  0.80925105060E+02 0.  0.
         13    1    4    4    0    0 -0.33404590242E+02  0.65962615772E+01  0.24422197617E+02  0.41902518450E+02  0.00000000000E+00 0. -1.
        -14    1    4    4    0    0 -0.72511055081E+01  0.80657420703E+02  0.19243061667E+03  0.20877677140E+03  0.00000000000E+00 0.  1.
        -11    1    3    3    0    0  0.37869570739E+02  0.84022616321E+01  0.11961730576E+03  0.12574976034E+03  0.00000000000E+00 0.  1.
         11    1    3    3    0    0  0.26009805406E+02  0.19710235130E+02 -0.91518945279E+01  0.33893369847E+02  0.00000000000E+00 0. -1.
         -1    1    1    2    0  502 -0.23223680395E+02 -0.11536617904E+03  0.12998744901E+03  0.17534375238E+03  0.00000000000E+00 0.  1.
<scales pt_clust_5="13000.00000" pt_clust_6="13000.00000" pt_clust_7="13000.00000" pt_clust_8="13000.00000" pt_clust_9="100.15918"></scales>
<clustering>
<clus scale="   80.925">  5  6 -1 -1</clus>
<clus scale="   91.719">  7  8 -1 -1</clus>
<clus scale="  115.253">  2  7  1 -1</clus>
<clus scale="  100.159">  1  9  2 -1</clus>
<clus scale="  100.159">  1  5  2 -1</clus>
</clustering>
</event>
<event>
 9    1  0.1487426E-004  0.1369349E+03  0.7546771E-02  0.1241980E+00
         21   -1    0    0  501  502  0.00000000000E+00  0.00000000000E+00  0.54769717945E+02  0.54769717945E+02  0.00000000000E+00 0.  1.
         -2   -1    0    0    0  501 -0.00000000000E+00 -0.00000000000E+00 -0.59472168920E+03  0.59472168920E+03  0.00000000000E+00 0.  1.
        -24    2    1    2    0    0  0.13856542031E+02  0.91593301721E+01 -0.24836240806E+03  0.26173859673E+03  0.80915450910E+02 0.  0.
         23    2    1    2    0    0  0.10195138262E+02  0.98341355318E+02 -0.10088532818E+03  0.16751887579E+03  0.90054213085E+02 0.  0.
         11    1    3    3    0    0  0.95206081010E+01 -0.26803498464E+02 -0.33963069499E+02  0.44300785527E+02  0.00000000000E+00 0. -1.
        -12    1    3    3    0    0  0.43359339302E+01  0.35962828636E+02 -0.21439933856E+03  0.21743781120E+03  0.00000000000E+00 0.  1.
        -11    1    4    4    0    0 -0.19165468256E+02  0.10224272849E+03 -0.75912498508E+02  0.12877731994E+03  0.00000000000E+00 0.  1.
         11    1    4    4    0    0  0.29360606518E+02 -0.39013731692E+01 -0.24972829668E+02  0.38741555846E+02  0.00000000000E+00 0. -1.
         -1    1    1    2    0  502 -0.24051680293E+02 -0.10750068549E+03 -0.19070423502E+03  0.22023393463E+03  0.00000000000E+00 0.  1.
<scales pt_clust_5="13000.00000" pt_clust_6="13000.00000" pt_clust_7="13000.00000" pt_clust_8="13000.00000" pt_clust_9="103.15728"></scales>
<clustering>
<clus scale="   80.915">  5  6 -1 -1</clus>
<clus scale="   82.603">  2  5  1 -1</clus>
<clus scale="   90.054">  7  8 -1 -1</clus>
<clus scale="  103.157">  1  9  2 -1</clus>
<clus scale="  103.157">  1  5  2 -1</clus>
</clustering>
</event>
<event>
 9    1  0.1487426E-004  0.9737001E+02  0.7546771E-02  0.1291904E+00
         21   -1    0    0  501  502  0.00000000000E+00  0.00000000000E+00  0.26170704575E+02  0.26170704575E+02  0.00000000000E+00 0. -1.
          1   -1    0    0  502    0 -0.00000000000E+00 -0.00000000000E+00 -0.60970636567E+03  0.60970636567E+03  0.00000000000E+00 0. -1.
         23    2    1    2    0    0 -0.13601362966E+02  0.14363459837E+02 -0.35040399879E+03  0.36274465875E+03  0.91702884496E+02 0.  0.
        -24    2    1    2    0    0  0.34616375520E+02 -0.48523760564E+02 -0.18542362592E+03  0.21080574278E+03  0.80649186888E+02 0.  0.
         11    1    4    4    0    0 -0.13868797996E+02 -0.49599087299E+02 -0.10344108400E+03  0.11555289212E+03  0.00000000000E+00 0. -1.
        -12    1    4    4    0    0  0.48485173516E+02  0.10753267350E+01 -0.81982541922E+02  0.95252850658E+02  0.00000000000E+00 0.  1.
        -13    1    3    3    0    0  0.15241433020E+01  0.50981006164E+02 -0.14919418269E+03  0.15767146271E+03  0.00000000000E+00 0.  1.
         13    1    3    3    0    0 -0.15125506268E+02 -0.36617546327E+02 -0.20120981610E+03  0.20507319604E+03  0.00000000000E+00 0. -1.
          2    1    1    2  501    0 -0.21015012554E+02  0.34160300727E+02 -0.47708036385E+02  0.62326668724E+02  0.00000000000E+00 0. -1.
<scales pt_clust_5="13000.00000" pt_clust_6="13000.00000" pt_clust_7="13000.00000" pt_clust_8="13000.00000" pt_clust_9="40.10682"></scales>
<clustering>
<clus scale="   40.107">  1  9  2 -1</clus>
<clus scale="   80.649">  5  6 -1 -1</clus>
<clus scale="   87.039">  1  5  2 -1</clus>
<clus scale="   91.703">  7  8 -1 -1</clus>
<clus scale="   40.107">  1  5  2 -1</clus>
</clustering>
</event>
<event>
 9    1  0.1487426E-004  0.9924828E+02  0.7546771E-02  0.1293288E+00
          1   -1    0    0  502    0 -0.00000000000E+00  0.00000000000E+00  0.46914471567E+03  0.46914471567E+03  0.00000000000E+00 0. -1.
         21   -1    0    0  501  502  0.00000000000E+00 -0.00000000000E+00 -0.30345310026E+02  0.30345310026E+02  0.00000000000E+00 0.  1.
        -24    2    1    2    0    0 -0.13066378145E+02 -0.32017690174E+02  0.24923819234E+03  0.26110820835E+03  0.69727736424E+02 0.  0.
         23    2    1    2    0    0  0.39975556170E+02  0.44001245123E+02  0.11538753856E+03  0.15857302412E+03  0.91087678964E+02 0.  0.
         11    1    3    3    0    0 -0.39975800429E+02 -0.12785072725E+02  0.10396221624E+03  0.11211451784E+03  0.00000000000E+00 0. -1.
        -12    1    3    3    0    0  0.26909422284E+02 -0.19232617449E+02  0.14527597610E+03  0.14899369051E+03  0.00000000000E+00 0.  1.
        -13    1    4    4    0    0  0.57143158871E+02  0.61047476939E+02  0.80137590484E+02  0.11581955126E+03  0.00000000000E+00 0.  1.
         13    1    4    4    0    0 -0.17167602701E+02 -0.17046231816E+02  0.35249948078E+02  0.42753472854E+02  0.00000000000E+00 0. -1.
          2    1    1    2  501    0 -0.26909178026E+02 -0.11983554949E+02  0.74173674742E+02  0.79808793224E+02  0.00000000000E+00 0. -1.
<scales pt_clust_5="13000.00000" pt_clust_6="13000.00000" pt_clust_7="13000.00000" pt_clust_8="13000.00000" pt_clust_9="29.45692"></scales>
<clustering>
<clus scale="   29.457">  2  9  1 -1</clus>
<clus scale="   69.728">  5  6 -1 -1</clus>
<clus scale="   80.095">  1  5  2 -1</clus>
<clus scale="   91.088">  7  8 -1 -1</clus>
<clus scale="   29.457">  2  5  1 -1</clus>
</clustering>
</event>
<event>
 9    1  0.1487426E-004  0.1532061E+03  0.7546771E-02  0.1198628E+00
         -4   -1    0    0    0  501 -0.00000000000E+00  0.00000000000E+00  0.37015712448E+03  0.37015712448E+03  0.00000000000E+00 0.  1.
         21   -1    0    0  501  502  0.00000000000E+00 -0.00000000000E+00 -0.16674632730E+03  0.16674632730E+03  0.00000000000E+00 0. -1.
         23    2    1    2    0    0 -0.94659847268E+02 -0.53348247168E+02  0.14924546626E+03  0.20608641918E+03  0.91601751142E+02 0.  0.
        -24    2    1    2    0    0  0.18667029580E+03  0.29584207528E+02 -0.25522915347E+02  0.20679740184E+03  0.79954496640E+02 0.  0.
         11    1    4    4    0    0  0.14963485250E+03  0.50799802090E+02 -0.37610848304E+02  0.16243701821E+03  0.00000000000E+00 0. -1.
        -12    1    4    4    0    0  0.37035443300E+02 -0.21215594562E+02  0.12087932956E+02  0.44360383634E+02  0.00000000000E+00 0.  1.
        -13    1    3    3    0    0 -0.42154272353E+02  0.14529796118E+02  0.15554796094E+02  0.47223398167E+02  0.00000000000E+00 0. -1.
         13    1    3    3    0    0 -0.52505574914E+02 -0.67878043287E+02  0.13369067016E+03  0.15886302101E+03  0.00000000000E+00 0.  1.
         -3    1    1    2    0  502 -0.92010448530E+02  0.23764039641E+02  0.79688246270E+02  0.12401963075E+03  0.00000000000E+00 0.  1.
<scales pt_clust_5="13000.00000" pt_clust_6="13000.00000" pt_clust_7="13000.00000" pt_clust_8="13000.00000" pt_clust_9="95.02979"></scales>
<clustering>
<clus scale="   79.954">  5  6 -1 -1</clus>
<clus scale="   91.602">  7  8 -1 -1</clus>
<clus scale="   95.030">  2  9  1 -1</clus>
<clus scale="  146.540">  2  5  1 -1</clus>
<clus scale="   95.030">  2  5  1 -1</clus>
</clustering>
</event>
<event>
 9    1  0.1487426E-004  0.1386692E+03  0.7546771E-02  0.1219269E+00
         -2   -1    0    0    0  501 -0.00000000000E+00  0.00000000000E+00  0.30556159972E+03  0.30556159972E+03  0.00000000000E+00 0.  1.
         21   -1    0    0  501  502  0.00000000000E+00 -0.00000000000E+00 -0.25260602909E+03  0.25260602909E+03  0.00000000000E+00 0. -1.
         23    2    1    2    0    0  0.14089215859E+02 -0.96231031697E+02  0.13954382666E+03  0.19561153415E+03  0.96604737303E+02 0.  0.
        -24    2    1    2    0    0 -0.21072381337E+02  0.11539047354E+03 -0.20130707913E+03  0.24603889770E+03  0.79067012296E+02 0.  0.
         13    1    4    4    0    0  0.16461957207E+02  0.69979404094E+02 -0.15583051933E+03  0.17161370512E+03  0.00000000000E+00 0. -1.
        -14    1    4    4    0    0 -0.37534338544E+02  0.45411069450E+02 -0.45476559806E+02  0.74425192579E+02  0.00000000000E+00 0.  1.
        -11    1    3    3    0    0  0.39988332547E+02 -0.98683223589E+02  0.12967235031E+03  0.16778666154E+03  0.00000000000E+00 0. -1.
         11    1    3    3    0    0 -0.25899116688E+02  0.24521918927E+01  0.98714763561E+01  0.27824872610E+02  0.00000000000E+00 0.  1.
         -1    1    1    2    0  502  0.69831654780E+01 -0.19159441848E+02  0.11471882310E+03  0.11651719695E+03  0.00000000000E+00 0.  1.
<scales pt_clust_5="13000.00000" pt_clust_6="13000.00000" pt_clust_7="13000.00000" pt_clust_8="13000.00000" pt_clust_9="20.39238"></scales>
<clustering>
<clus scale="   20.392">  2  9  1 -1</clus>
<clus scale="   79.067">  5  6 -1 -1</clus>
<clus scale="   96.605">  7  8 -1 -1</clus>
<clus scale="  127.076">  2  5  1 -1</clus>
<clus scale="   20.392">  2  5  1 -1</clus>
</clustering>
</event>
<event>
 9    1  0.1487426E-004  0.1306472E+03  0.7546771E-02  0.1231140E+00
          1   -1    0    0  502    0 -0.00000000000E+00  0.00000000000E+00  0.32408222922E+03  0.32408222922E+03  0.00000000000E+00 0. -1.
         21   -1    0    0  501  502  0.00000000000E+00 -0.00000000000E+00 -0.74098496162E+02  0.74098496162E+02  0.00000000000E+00 0. -1.
         23    2    1    2    0    0  0.71257655327E+02 -0.43827678940E+02  0.12785304866E+03  0.18085691003E+03  0.96769318328E+02 0.  0.
        -24    2    1    2    0    0 -0.10026453248E+03  0.13730574172E+01  0.90979832628E+02  0.15720585317E+03  0.79884219753E+02 0.  0.
         11    1    4    4    0    0 -0.80065660418E+02  0.24046274177E+02  0.95033897955E+02  0.12657083013E+03  0.00000000000E+00 0. -1.
        -12    1    4    4    0    0 -0.20198872065E+02 -0.22673216760E+02 -0.40540653261E+01  0.30635023039E+02  0.00000000000E+00 0.  1.
        -11    1    3    3    0    0  0.32186074054E+02 -0.47377041907E+02  0.12948862508E+03  0.14159036510E+03  0.00000000000E+00 0.  1.
         11    1    3    3    0    0  0.39071581274E+02  0.35493629675E+01 -0.16355764213E+01  0.39266544932E+02  0.00000000000E+00 0. -1.
          2    1    1    2  501    0  0.29006877155E+02  0.42454621523E+02  0.31150851770E+02  0.60117962182E+02  0.00000000000E+00 0. -1.
<scales pt_clust_5="13000.00000" pt_clust_6="13000.00000" pt_clust_7="13000.00000" pt_clust_8="13000.00000" pt_clust_9="51.41784"></scales>
<clustering>
<clus scale="   51.418">  2  9  1 -1</clus>
<clus scale="   79.884">  5  6 -1 -1</clus>
<clus scale="   96.769">  7  8 -1 -1</clus>
<clus scale="  118.684">  2  5  1 -1</clus>
<clus scale="   51.418">  2  5  1 -1</clus>
</clustering>
</event>
<event>
 9    1  0.1487426E-004  0.1199735E+03  0.7546771E-02  0.1246553E+00
         21   -1    0    0  501  502  0.00000000000E+00  0.00000000000E+00  0.31041635929E+03  0.31041635929E+03  0.00000000000E+00 0.  1.
         -4   -1    0    0    0  501 -0.00000000000E+00 -0.00000000000E+00 -0.61197783222E+02  0.61197783222E+02  0.00000000000E+00 0.  1.
         23    2    1    2    0    0 -0.55328279942E+02  0.68155288457E+02  0.66615415115E+02  0.14275951228E+03  0.90754079299E+02 0.  0.
        -24    2    1    2    0    0  0.45686939896E+02 -0.42497188789E+02  0.17160535347E+03  0.19932083119E+03  0.79919264732E+02 0.  0.
         11    1    4    4    0    0  0.20683582639E+02 -0.62659977094E+02  0.89808631576E+02  0.11144358943E+03  0.00000000000E+00 0. -1.
        -12    1    4    4    0    0  0.25003357257E+02  0.20162788305E+02  0.81796721896E+02  0.87877241760E+02  0.00000000000E+00 0.  1.
        -13    1    3    3    0    0 -0.55574472057E+02 -0.48991910979E-01  0.16020280893E+02  0.57837476989E+02  0.00000000000E+00 0.  1.
         13    1    3    3    0    0  0.24619211437E+00  0.68204280368E+02  0.50595134222E+02  0.84922035291E+02  0.00000000000E+00 0. -1.
         -3    1    1    2    0  502  0.96413400459E+01 -0.25658099668E+02  0.10997807484E+02  0.29533799042E+02  0.00000000000E+00 0.  1.
<scales pt_clust_5="13000.00000" pt_clust_6="13000.00000" pt_clust_7="13000.00000" pt_clust_8="13000.00000" pt_clust_9="27.40975"></scales>
<clustering>
<clus scale="   27.410">  1  9  2 -1</clus>
<clus scale="   79.919">  5  6 -1 -1</clus>
<clus scale="   90.754">  7  8 -1 -1</clus>
<clus scale="  112.002">  1  5  2 -1</clus>
<clus scale="   27.410">  1  5  2 -1</clus>
</clustering>
</event>
<event>
 9    1  0.1487426E-004  0.1419419E+03  0.7546771E-02  0.1235692E+00
         21   -1    0    0  501  502  0.00000000000E+00  0.00000000000E+00  0.29754640939E+03  0.29754640939E+03  0.00000000000E+00 0.  1.
         -2   -1    0    0    0  501 -0.00000000000E+00 -0.00000000000E+00 -0.10438965812E+03  0.10438965812E+03  0.00000000000E+00 0.  1.
        -24    2    1    2    0    0  0.22921572068E+02  0.10961916408E+02  0.12558049456E+01  0.84299237674E+02  0.80369287349E+02 0.  0.
         23    2    1    2    0    0 -0.26698726160E+02 -0.11467481396E+03  0.10504013079E+03  0.18230230621E+03  0.91310277825E+02 0.  0.
         11    1    3    3    0    0  0.32909629881E+02  0.25148140627E+02  0.29710474433E+02  0.50972394558E+02  0.00000000000E+00 0. -1.
        -12    1    3    3    0    0 -0.99880578135E+01 -0.14186224219E+02 -0.28454669487E+02  0.33326843117E+02  0.00000000000E+00 0.  1.
        -13    1    4    4    0    0 -0.58020217190E+02 -0.90809698531E+02  0.89077258065E+02  0.13981239163E+03  0.00000000000E+00 0.  1.
         13    1    4    4    0    0  0.31321491030E+02 -0.23865115431E+02  0.15962872729E+02  0.42489914576E+02  0.00000000000E+00 0. -1.
         -1    1    1    2    0  502  0.37771540920E+01  0.10371289755E+03  0.86860815528E+02  0.13533452363E+03  0.00000000000E+00 0.  1.
<scales pt_clust_5="13000.00000" pt_clust_6="13000.00000" pt_clust_7="13000.00000" pt_clust_8="13000.00000" pt_clust_9="108.67347"></scales>
<clustering>
<clus scale="   80.369">  5  6 -1 -1</clus>
<clus scale="   84.290">  2  5  1 -1</clus>
<clus scale="   91.310">  7  8 -1 -1</clus>
<clus scale="  108.673">  1  9  2 -1</clus>
<clus scale="  108.673">  1  5  2 -1</clus>
</clustering>
</event>
<event>
 9    1  0.1487426E-004  0.8962653E+02  0.7546771E-02  0.1307910E+00
         -4   -1    0    0    0  501 -0.00000000000E+00  0.00000000000E+00  0.33281133810E+03  0.33281133810E+03  0.00000000000E+00 0.  1.
         21   -1    0    0  501  502  0.00000000000E+00 -0.00000000000E+00 -0.94611941034E+02  0.94611941034E+02  0.00000000000E+00 0. -1.
        -24    2    1    2    0    0 -0.83445182680E+00 -0.10997770123E+02  0.20007514091E+03  0.21625570282E+03  0.81331542066E+02 0.  0.
         23    2    1    2    0    0  0.66827989334E+01  0.71723586632E+02 -0.32073350911E+02  0.11816471618E+03  0.88007202154E+02 0.  0.
         11    1    3    3    0    0 -0.12069154185E+02  0.33514154628E+02  0.75218356796E+02  0.83226583748E+02  0.00000000000E+00 0. -1.
        -12    1    3    3    0    0  0.11234702358E+02 -0.44511924751E+02  0.12485678411E+03  0.13302911907E+03  0.00000000000E+00 0.  1.
        -11    1    4    4    0    0  0.11581184492E+02 -0.17907536184E+02  0.34935773045E+01  0.21610385669E+02  0.00000000000E+00 0.  1.
         11    1    4    4    0    0 -0.48983855581E+01  0.89631122815E+02 -0.35566928215E+02  0.96554330514E+02  0.00000000000E+00 0. -1.
         -3    1    1    2    0  502 -0.58483471066E+01 -0.60725816509E+02  0.70197607067E+02  0.93002860131E+02  0.00000000000E+00 0.  1.
<scales pt_clust_5="13000.00000" pt_clust_6="13000.00000" pt_clust_7="13000.00000" pt_clust_8="13000.00000" pt_clust_9="61.00682"></scales>
<clustering>
<clus scale="   61.007">  2  9  1 -1</clus>
<clus scale="   81.332">  5  6 -1 -1</clus>
<clus scale="   83.081">  1  5  2 -1</clus>
<clus scale="   88.007">  7  8 -1 -1</clus>
<clus scale="   61.007">  2  5  1 -1</clus>
</clustering>
</event>
<event>
 9    1  0.1487426E-004  0.1340733E+03  0.7546771E-02  0.1223844E+00
          1   -1    0    0  502    0 -0.00000000000E+00  0.00000000000E+00  0.35330648112E+03  0.35330648112E+03  0.00000000000E+00 0. -1.
         21   -1    0    0  501  502  0.00000000000E+00 -0.00000000000E+00 -0.12634607811E+03  0.12634607811E+03  0.00000000000E+00 0. -1.
         23    2    1    2    0    0  0.52429813494E+02 -0.93340134494E+02  0.25708816145E+03  0.29271584095E+03  0.90149735074E+02 0.  0.
        -24    2    1    2    0    0 -0.16824221319E+02  0.55974275929E+02 -0.70091325780E+02  0.12165998203E+03  0.80449880609E+02 0.  0.
         11    1    4    4    0    0 -0.21599991715E+02  0.75726112863E+02 -0.51301235437E+02  0.93983086611E+02  0.00000000000E+00 0. -1.
        -12    1    4    4    0    0  0.47757703968E+01 -0.19751836934E+02 -0.18790090343E+02  0.27676895423E+02  0.00000000000E+00 0.  1.
        -13    1    3    3    0    0 -0.21094027420E+02 -0.84367494388E+01  0.19584466808E+02  0.29994800784E+02  0.00000000000E+00 0.  1.
         13    1    3    3    0    0  0.73523840914E+02 -0.84903385055E+02  0.23750369464E+03  0.26272104016E+03  0.00000000000E+00 0. -1.
          2    1    1    2  501    0 -0.35605592175E+02  0.37365858565E+02  0.39963567341E+02  0.65276736247E+02  0.00000000000E+00 0. -1.
<scales pt_clust_5="13000.00000" pt_clust_6="13000.00000" pt_clust_7="13000.00000" pt_clust_8="13000.00000" pt_clust_9="51.61364"></scales>
<clustering>
<clus scale="   51.614">  2  9  1 -1</clus>
<clus scale="   80.450">  5  6 -1 -1</clus>
<clus scale="   90.150">  7  8 -1 -1</clus>
<clus scale="  127.753">  2  5  1 -1</clus>
<clus scale="   51.614">  2  5  1 -1</clus>
</clustering>
</event>
<event>
 9    1  0.1487426E-004  0.1455187E+03  0.7546771E-02  0.1219124E+00
         21   -1    0    0  501  502  0.00000000000E+00  0.00000000000E+00  0.12515960532E+03  0.12515960532E+03  0.00000000000E+00 0. -1.
          3   -1    0    0  502    0 -0.00000000000E+00 -0.00000000000E+00 -0.41828915656E+03  0.41828915656E+03  0.00000000000E+00 0. -1.
        -24    2    1    2    0    0 -0.39369448305E+02 -0.64090976308E+02 -0.18451640903E+03  0.21497029144E+03  0.80674124094E+02 0.  0.
         23    2    1    2    0    0 -0.57567955816E+02 -0.71623210190E+02  0.68935979136E+00  0.12907376217E+03  0.90639986150E+02 0.  0.
         13    1    3    3    0    0  0.12038062329E+01 -0.55608851179E+02 -0.15330372727E+03  0.16308226842E+03  0.00000000000E+00 0. -1.
        -14    1    3    3    0    0 -0.40573254538E+02 -0.84821251290E+01 -0.31212681760E+02  0.51888023023E+02  0.00000000000E+00 0.  1.
        -13    1    4    4    0    0  0.22446698896E+02 -0.12432057191E+02  0.13038208753E+02  0.28782029547E+02  0.00000000000E+00 0.  1.
         13    1    4    4    0    0 -0.80014654712E+02 -0.59191152999E+02 -0.12348848962E+02  0.10029173262E+03  0.00000000000E+00 0. -1.
          4    1    1    2  501    0  0.96937404121E+02  0.13571418650E+03 -0.10930250200E+03  0.19940470827E+03  0.00000000000E+00 0. -1.
<scales pt_clust_5="13000.00000" pt_clust_6="13000.00000" pt_clust_7="13000.00000" pt_clust_8="13000.00000" pt_clust_9="113.84243"></scales>
<clustering>
<clus scale="   80.674">  5  6 -1 -1</clus>
<clus scale="   90.640">  7  8 -1 -1</clus>
<clus scale="  110.299">  2  5  1 -1</clus>
<clus scale="  113.842">  1  9  2 -1</clus>
<clus scale="  113.842">  1  5  2 -1</clus>
</clustering>
</event>
<event>
 9    1  0.1487426E-004  0.1417825E+03  0.7546771E-02  0.1223583E+00
          1   -1    0    0  502    0 -0.00000000000E+00  0.00000000000E+00  0.28944817132E+03  0.28944817132E+03  0.00000000000E+00 0. -1.
         21   -1    0    0  501  502  0.00000000000E+00 -0.00000000000E+00 -0.19821076366E+03  0.19821076366E+03  0.00000000000E+00 0.  1.
        -24    2    1    2    0    0 -0.76063741889E+00  0.72895022836E+02 -0.34832846323E+02  0.11406561078E+03  0.80519398011E+02 0.  0.
         23    2    1    2    0    0  0.10520057815E+03 -0.19712827832E+01 -0.55964976106E+02  0.15206521511E+03  0.94449475896E+02 0.  0.
         13    1    3    3    0    0  0.24414822695E+02  0.15334678534E+02  0.16248558476E+02  0.33094585441E+02  0.00000000000E+00 0. -1.
        -14    1    3    3    0    0 -0.25175460114E+02  0.57560344302E+02 -0.51081404798E+02  0.80971025338E+02  0.00000000000E+00 0.  1.
        -11    1    4    4    0    0  0.78563599383E+02  0.20571720037E+02  0.54860526934E+01  0.81397368431E+02  0.00000000000E+00 0.  1.
         11    1    4    4    0    0  0.26636978772E+02 -0.22543002820E+02 -0.61451028800E+02  0.70667846683E+02  0.00000000000E+00 0. -1.
          2    1    1    2  501    0 -0.10443994074E+03 -0.70923740052E+02  0.18203523009E+03  0.22152810909E+03  0.00000000000E+00 0. -1.
<scales pt_clust_5="13000.00000" pt_clust_6="13000.00000" pt_clust_7="13000.00000" pt_clust_8="13000.00000" pt_clust_9="105.74300"></scales>
<clustering>
<clus scale="   80.519">  5  6 -1 -1</clus>
<clus scale="   94.449">  7  8 -1 -1</clus>
<clus scale="  108.617">  1  5  2 -1</clus>
<clus scale="  105.743">  2  9  1 -1</clus>
<clus scale="  105.743">  2  5  1 -1</clus>
</clustering>
</event>
<event>
 9    1  0.1487426E-004  0.1000959E+03  0.7546771E-02  0.1287058E+00
          1   -1    0    0  502    0 -0.00000000000E+00  0.00000000000E+00  0.56685884351E+03  0.56685884351E+03  0.00000000000E+00 0. -1.
         21   -1    0    0  501  502  0.00000000000E+00 -0.00000000000E+00 -0.27897654761E+02  0.27897654761E+02  0.00000000000E+00 0.  1.
         23    2    1    2    0    0  0.30435113420E+02 -0.77472617195E+01  0.36926092207E+03  0.38213766094E+03  0.93216131380E+02 0.  0.
        -24    2    1    2    0    0 -0.52166882752E+02  0.55849464544E+01  0.94665071146E+02  0.13447009470E+03  0.79800722996E+02 0.  0.
         13    1    4    4    0    0 -0.55615525208E+02  0.35103066520E+02  0.64037459131E+02  0.91793834734E+02  0.00000000000E+00 0. -1.
        -14    1    4    4    0    0  0.34486424560E+01 -0.29518120065E+02  0.30627612015E+02  0.42676259967E+02  0.00000000000E+00 0.  1.
        -13    1    3    3    0    0  0.24352184155E+02  0.41744283712E+02  0.19305510935E+03  0.19901228440E+03  0.00000000000E+00 0. -1.
         13    1    3    3    0    0  0.60829292652E+01 -0.49491545432E+02  0.17620581272E+03  0.18312537654E+03  0.00000000000E+00 0.  1.
          2    1    1    2  501    0  0.21731769332E+02  0.21623152651E+01  0.75035195534E+02  0.78148742629E+02  0.00000000000E+00 0. -1.
<scales pt_clust_5="13000.00000" pt_clust_6="13000.00000" pt_clust_7="13000.00000" pt_clust_8="13000.00000" pt_clust_9="21.83909"></scales>
<clustering>
<clus scale="   21.839">  2  9  1 -1</clus>
<clus scale="   79.801">  5  6 -1 -1</clus>
<clus scale="   87.739">  2  5  1 -1</clus>
<clus scale="   93.216">  7  8 -1 -1</clus>
<clus scale="   21.839">  2  5  1 -1</clus>
</clustering>
</event>
<event>
 9    1  0.1487426E-004  0.1044196E+03  0.7546771E-02  0.1277845E+00
         21   -1    0    0  501  502  0.00000000000E+00  0.00000000000E+00  0.14399529556E+03  0.14399529556E+03  0.00000000000E+00 0. -1.
         -2   -1    0    0    0  501 -0.00000000000E+00 -0.00000000000E+00 -0.47072840269E+03  0.47072840269E+03  0.00000000000E+00 0.  1.
        -24    2    1    2    0    0  0.35798944201E+02  0.26583714289E+02 -0.42789618025E+03  0.43767279605E+03  0.80461649563E+02 0.  0.
         23    2    1    2    0    0 -0.24602733711E+02 -0.43647914275E+02  0.42600982077E+02  0.11503428702E+03  0.94380128153E+02 0.  0.
         11    1    3    3    0    0 -0.80094556628E+01  0.43278262983E+02 -0.24102262626E+03  0.24500829740E+03  0.00000000000E+00 0. -1.
        -12    1    3    3    0    0  0.43808399864E+02 -0.16694548694E+02 -0.18687355400E+03  0.19266449864E+03  0.00000000000E+00 0.  1.
        -13    1    4    4    0    0 -0.20797247895E+02 -0.14368008592E+02 -0.28470995534E+02  0.38073124085E+02  0.00000000000E+00 0.  1.
         13    1    4    4    0    0 -0.38054858160E+01 -0.29279905683E+02  0.71071977611E+02  0.76961162937E+02  0.00000000000E+00 0. -1.
         -1    1    1    2    0  502 -0.11196210490E+02  0.17064199985E+02  0.58562091048E+02  0.62016615180E+02  0.00000000000E+00 0.  1.
<scales pt_clust_5="13000.00000" pt_clust_6="13000.00000" pt_clust_7="13000.00000" pt_clust_8="13000.00000" pt_clust_9="20.40936"></scales>
<clustering>
<clus scale="   20.409">  1  9  2 -1</clus>
<clus scale="   80.462">  5  6 -1 -1</clus>
<clus scale="   92.032">  2  5  1 -1</clus>
<clus scale="   94.380">  7  8 -1 -1</clus>
<clus scale="   20.409">  1  5  2 -1</clus>
</clustering>
</event>
<event>
 9    1  0.1487426E-004  0.1374843E+03  0.7546771E-02  0.1218851E+00
         21   -1    0    0  501  502  0.00000000000E+00  0.00000000000E+00  0.17898897252E+03  0.17898897252E+03  0.00000000000E+00 0.  1.
          1   -1    0    0  502    0 -0.00000000000E+00 -0.00000000000E+00 -0.13062309059E+03  0.13062309059E+03  0.00000000000E+00 0. -1.
         23    2    1    2    0    0  0.62722829917E+02 -0.74307253494E+02 -0.18095478192E+02  0.13393452288E+03  0.90306637477E+02 0.  0.
        -24    2    1    2    0    0 -0.80596854593E+02  0.83467102121E+02  0.64501029485E+02  0.15549768689E+03  0.80972450358E+02 0.  0.
         13    1    4    4    0    0 -0.33244560183E+02  0.15371319794E+02 -0.15949907493E+02  0.39948439307E+02  0.00000000000E+00 0. -1.
        -14    1    4    4    0    0 -0.47352294410E+02  0.68095782327E+02  0.80450936978E+02  0.11554924758E+03  0.00000000000E+00 0.  1.
        -11    1    3    3    0    0  0.41927313027E+02  0.35744864050E+01 -0.31043116338E+02  0.52291027936E+02  0.00000000000E+00 0. -1.
         11    1    3    3    0    0  0.20795516891E+02 -0.77881739899E+02  0.12947638146E+02  0.81643494940E+02  0.00000000000E+00 0.  1.
          2    1    1    2  501    0  0.17874024676E+02 -0.91598486279E+01  0.19603306401E+01  0.20179853350E+02  0.00000000000E+00 0. -1.
<scales pt_clust_5="13000.00000" pt_clust_6="13000.00000" pt_clust_7="13000.00000" pt_clust_8="13000.00000" pt_clust_9="20.08442"></scales>
<clustering>
<clus scale="   20.084">  1  9  2 -1</clus>
<clus scale="   80.972">  5  6 -1 -1</clus>
<clus scale="   90.307">  7  8 -1 -1</clus>
<clus scale="  131.542">  1  5  2 -1</clus>
<clus scale="   20.084">  1  5  2 -1</clus>
</clustering>
</event>
<event>
 9    1  0.1487426E-004  0.2884685E+03  0.7546771E-02  0.1091813E+00
          1   -1    0    0  502    0 -0.00000000000E+00  0.00000000000E+00  0.77775400578E+03  0.77775400578E+03  0.00000000000E+00 0. -1.
         21   -1    0    0  501  502  0.00000000000E+00 -0.00000000000E+00 -0.22597316450E+03  0.22597316450E+03  0.00000000000E+00 0. -1.
        -24    2    1    2    0    0 -0.14797133664E+03 -0.18095128392E+03  0.29431525594E+03  0.38411533624E+03  0.79273186102E+02 0.  0.
         23    2    1    2    0    0  0.24960445537E+03  0.30106917145E+03  0.15269647588E+03  0.43057701179E+03  0.95578863767E+02 0.  0.
         13    1    3    3    0    0 -0.12362770366E+03 -0.94828696471E+02  0.20695210028E+03  0.25904722079E+03  0.00000000000E+00 0. -1.
        -14    1    3    3    0    0 -0.24343632978E+02 -0.86122587449E+02  0.87363155659E+02  0.12506811545E+03  0.00000000000E+00 0.  1.
        -13    1    4    4    0    0  0.10241407478E+03  0.90849683900E+02  0.10786538726E+02  0.13732682620E+03  0.00000000000E+00 0. -1.
         13    1    4    4    0    0  0.14719038059E+03  0.21021948755E+03  0.14190993715E+03  0.29325018559E+03  0.00000000000E+00 0.  1.
          2    1    1    2  501    0 -0.10163311873E+03 -0.12011788753E+03  0.10476910946E+03  0.18903482225E+03  0.00000000000E+00 0. -1.
<scales pt_clust_5="13000.00000" pt_clust_6="13000.00000" pt_clust_7="13000.00000" pt_clust_8="13000.00000" pt_clust_9="157.34555"></scales>
<clustering>
<clus scale="   79.273">  5  6 -1 -1</clus>
<clus scale="   95.579">  7  8 -1 -1</clus>
<clus scale="  157.346">  2  9  1 -1</clus>
<clus scale="  283.484">  1  5  2 -1</clus>
<clus scale="  157.346">  2  5  1 -1</clus>
</clustering>
</event>
<event>
 9    1  0.1487426E-004  0.1803680E+03  0.7546771E-02  0.1194246E+00
         21   -1    0    0  501  502  0.00000000000E+00  0.00000000000E+00  0.24364864447E+03  0.24364864447E+03  0.00000000000E+00 0. -1.
          1   -1    0    0  502    0 -0.00000000000E+00 -0.00000000000E+00 -0.54528189135E+03  0.54528189135E+03  0.00000000000E+00 0. -1.
         23    2    1    2    0    0 -0.10977802835E+02  0.35497085735E+02  0.63676234130E+02  0.11756779101E+03  0.91580387853E+02 0.  0.
        -24    2    1    2    0    0  0.16649728946E+03 -0.66617098830E+02 -0.45009267701E+03  0.49152126945E+03  0.82768080639E+02 0.  0.
         13    1    4    4    0    0  0.15294923789E+03 -0.75701252948E+02 -0.44094918311E+03  0.47282166950E+03  0.00000000000E+00 0. -1.
        -14    1    4    4    0    0  0.13548051577E+02  0.90841541180E+01 -0.91434939005E+01  0.18699599950E+02  0.00000000000E+00 0.  1.
        -13    1    3    3    0    0 -0.94874082211E+01 -0.27269429472E+02  0.42359226267E+02  0.51263405549E+02  0.00000000000E+00 0. -1.
         13    1    3    3    0    0 -0.14903946142E+01  0.62766515206E+02  0.21317007862E+02  0.66304385462E+02  0.00000000000E+00 0.  1.
          2    1    1    2  501    0 -0.15551948663E+03  0.31120013096E+02  0.84783196001E+02  0.17984147536E+03  0.00000000000E+00 0. -1.
<scales pt_clust_5="13000.00000" pt_clust_6="13000.00000" pt_clust_7="13000.00000" pt_clust_8="13000.00000" pt_clust_9="160.25622"></scales>
<clustering>
<clus scale="   82.768">  5  6 -1 -1</clus>
<clus scale="   91.580">  7  8 -1 -1</clus>
<clus scale="   98.831">  2  7  1 -1</clus>
<clus scale="  160.256">  1  9  2 -1</clus>
<clus scale="  160.256">  1  5  2 -1</clus>
</clustering>
</event>
<event>
 9    1  0.1487426E-004  0.1923408E+03  0.7546771E-02  0.1157329E+00
         21   -1    0    0  501  502  0.00000000000E+00  0.00000000000E+00  0.47187241886E+03  0.47187241886E+03  0.00000000000E+00 0. -1.
          1   -1    0    0  502    0 -0.00000000000E+00 -0.00000000000E+00 -0.16908696764E+03  0.16908696764E+03  0.00000000000E+00 0. -1.
         23    2    1    2    0    0 -0.85484771405E+02 -0.15947344409E+03 -0.70398037390E+02  0.21418920731E+03  0.90452790702E+02 0.  0.
        -24    2    1    2    0    0  0.70721828393E+02  0.10373723077E+03  0.26829175020E+03  0.30707579024E+03  0.80944966897E+02 0.  0.
         13    1    4    4    0    0  0.62701012640E+02  0.22867611592E+02  0.10053610136E+03  0.12067250027E+03  0.00000000000E+00 0. -1.
        -14    1    4    4    0    0  0.80208157539E+01  0.80869619179E+02  0.16775564884E+03  0.18640328996E+03  0.00000000000E+00 0.  1.
        -11    1    3    3    0    0 -0.57193678171E+02 -0.12102631154E+03 -0.91349457330E+02  0.16205927392E+03  0.00000000000E+00 0. -1.
         11    1    3    3    0    0 -0.28291093234E+02 -0.38447132550E+02  0.20951419940E+02  0.52129933390E+02  0.00000000000E+00 0.  1.
          2    1    1    2  501    0  0.14762943012E+02  0.55736213323E+02  0.10489173841E+03  0.11969438896E+03  0.00000000000E+00 0. -1.
<scales pt_clust_5="13000.00000" pt_clust_6="13000.00000" pt_clust_7="13000.00000" pt_clust_8="13000.00000" pt_clust_9="57.65822"></scales>
<clustering>
<clus scale="   57.658">  1  9  2 -1</clus>
<clus scale="   80.945">  5  6 -1 -1</clus>
<clus scale="   90.453">  7  8 -1 -1</clus>
<clus scale="  188.057">  1  5  2 -1</clus>
<clus scale="   57.658">  1  5  2 -1</clus>
</clustering>
</event>
<event>
 9    1  0.1487426E-004  0.9373792E+02  0.7546771E-02  0.1299684E+00
         21   -1    0    0  501  502  0.00000000000E+00  0.00000000000E+00  0.10459257126E+03  0.10459257126E+03  0.00000000000E+00 0.  1.
          1   -1    0    0  502    0 -0.00000000000E+00 -0.00000000000E+00 -0.29848482430E+03  0.29848482430E+03  0.00000000000E+00 0. -1.
        -24    2    1    2    0    0 -0.21953555569E+02  0.11176742105E+01 -0.23161460511E+03  0.24621804951E+03  0.80590289774E+02 0.  0.
         23    2    1    2    0    0  0.45044432572E+02  0.31034099434E+01 -0.12211185369E+02  0.10168358766E+03  0.90287357321E+02 0.  0.
         11    1    3    3    0    0 -0.52395742198E+01 -0.38643676819E+02 -0.13263464811E+03  0.13824882197E+03  0.00000000000E+00 0. -1.
        -12    1    3    3    0    0 -0.16713981349E+02  0.39761351029E+02 -0.98979957003E+02  0.10796922754E+03  0.00000000000E+00 0.  1.
        -11    1    4    4    0    0  0.15656775113E+02  0.46164061688E+02 -0.77631292719E+01  0.49361132225E+02  0.00000000000E+00 0.  1.
         11    1    4    4    0    0  0.29387657459E+02 -0.43060651744E+02 -0.44480560966E+01  0.52322455434E+02  0.00000000000E+00 0. -1.
          2    1    1    2  501    0 -0.23090877003E+02 -0.42210841539E+01  0.49933537443E+02  0.55175758388E+02  0.00000000000E+00 0. -1.
<scales pt_clust_5="13000.00000" pt_clust_6="13000.00000" pt_clust_7="13000.00000" pt_clust_8="13000.00000" pt_clust_9="23.47352"></scales>
<clustering>
<clus scale="   23.474">  1  9  2 -1</clus>
<clus scale="   80.590">  5  6 -1 -1</clus>
<clus scale="   84.438">  2  5  1 -1</clus>
<clus scale="   90.287">  7  8 -1 -1</clus>
<clus scale="   23.474">  1  5  2 -1</clus>
</clustering>
</event>
<event>
 9    1  0.1487426E-004  0.1027652E+03  0.7546771E-02  0.1281673E+00
         21   -1    0    0  501  502  0.00000000000E+00  0.00000000000E+00  0.72112927752E+02  0.72112927752E+02  0.00000000000E+00 0. -1.
          1   -1    0    0  502    0 -0.00000000000E+00 -0.00000000000E+00 -0.29261816502E+03  0.29261816502E+03  0.00000000000E+00 0. -1.
         23    2    1    2    0    0 -0.32746276772E+01  0.44654219305E+02 -0.22679326615E+03  0.24968984692E+03  0.94366898840E+02 0.  0.
        -24    2    1    2    0    0 -0.14352426440E+02 -0.23188356668E+02  0.15167920407E+02  0.85880505648E+02  0.80010645612E+02 0.  0.
         13    1    4    4    0    0 -0.34302754461E+02  0.17692143439E+02  0.25825912427E+01  0.38682821518E+02  0.00000000000E+00 0. -1.
        -14    1    4    4    0    0  0.19950328021E+02 -0.40880500106E+02  0.12585329164E+02  0.47197684130E+02  0.00000000000E+00 0.  1.
        -11    1    3    3    0    0 -0.41915679170E+02  0.24006156755E+02 -0.17649773385E+03  0.18298816841E+03  0.00000000000E+00 0. -1.
         11    1    3    3    0    0  0.38641051493E+02  0.20648062549E+02 -0.50295532302E+02  0.66701678517E+02  0.00000000000E+00 0.  1.
          2    1    1    2  501    0  0.17627054117E+02 -0.21465862637E+02 -0.88798915244E+01  0.29160740201E+02  0.00000000000E+00 0. -1.
<scales pt_clust_5="13000.00000" pt_clust_6="13000.00000" pt_clust_7="13000.00000" pt_clust_8="13000.00000" pt_clust_9="27.77582"></scales>
<clustering>
<clus scale="   27.776">  1  9  2 -1</clus>
<clus scale="   80.011">  5  6 -1 -1</clus>
<clus scale="   89.762">  1  5  2 -1</clus>
<clus scale="   94.367">  7  8 -1 -1</clus>
<clus scale="   27.776">  1  5  2 -1</clus>
</clustering>
</event>
<event>
 9    1  0.1487426E-004  0.2780128E+03  0.7546771E-02  0.1134378E+00
         21   -1    0    0  501  502  0.00000000000E+00  0.00000000000E+00  0.57124736448E+03  0.57124736448E+03  0.00000000000E+00 0. -1.
          1   -1    0    0  502    0 -0.00000000000E+00 -0.00000000000E+00 -0.72086930599E+03  0.72086930599E+03  0.00000000000E+00 0. -1.
        -24    2    1    2    0    0  0.25571016065E+02  0.57943861474E+02 -0.45911587564E+03  0.47158127155E+03  0.87121412182E+02 0.  0.
         23    2    1    2    0    0 -0.17475205474E+03 -0.26330028966E+03 -0.95597383615E+02  0.34249228307E+03  0.91086667700E+02 0.  0.
         13    1    3    3    0    0  0.58152351138E+02  0.38104484989E+02 -0.29029941534E+03  0.29850862344E+03  0.00000000000E+00 0. -1.
        -14    1    3    3    0    0 -0.32581335073E+02  0.19839376485E+02 -0.16881646030E+03  0.17307264811E+03  0.00000000000E+00 0.  1.
        -11    1    4    4    0    0 -0.90065199637E+02 -0.19876699252E+03 -0.89451791552E+02  0.23584249090E+03  0.00000000000E+00 0. -1.
         11    1    4    4    0    0 -0.84686855105E+02 -0.64533297143E+02 -0.61455920631E+01  0.10664979217E+03  0.00000000000E+00 0.  1.
          2    1    1    2  501    0  0.14918103868E+03  0.20535642819E+03  0.40509131775E+03  0.47804311586E+03  0.00000000000E+00 0. -1.
<scales pt_clust_5="13000.00000" pt_clust_6="13000.00000" pt_clust_7="13000.00000" pt_clust_8="13000.00000" pt_clust_9="262.66772"></scales>
<clustering>
<clus scale="   87.121">  5  6 -1 -1</clus>
<clus scale="   91.087">  7  8 -1 -1</clus>
<clus scale="  107.710">  2  5  1 -1</clus>
<clus scale="  262.668">  1  9  2 -1</clus>
<clus scale="  262.668">  1  5  2 -1</clus>
</clustering>
</event>
<event>
 9    1  0.1487426E-004  0.1084419E+03  0.7546771E-02  0.1269604E+00
         21   -1    0    0  501  502  0.00000000000E+00  0.00000000000E+00  0.47458253237E+02  0.47458253237E+02  0.00000000000E+00 0. -1.
          3   -1    0    0  502    0 -0.00000000000E+00 -0.00000000000E+00 -0.28007161788E+03  0.28007161788E+03  0.00000000000E+00 0. -1.
         23    2    1    2    0    0 -0.62220882878E+02 -0.46064996495E+00 -0.15297317703E+03  0.19001486309E+03  0.93985130938E+02 0.  0.
        -24    2    1    2    0    0  0.43106300041E+02  0.88655872497E+01 -0.61160842670E+02  0.10963138493E+03  0.79634415582E+02 0.  0.
         11    1    4    4    0    0  0.62003234695E+02  0.17082069382E+00 -0.63437421304E+02  0.88705900108E+02  0.00000000000E+00 0. -1.
        -12    1    4    4    0    0 -0.18896934654E+02  0.86947665558E+01  0.22765786341E+01  0.20925484822E+02  0.00000000000E+00 0.  1.
        -11    1    3    3    0    0  0.81437783112E+01  0.25578452561E+02 -0.10177390674E+02  0.28708145908E+02  0.00000000000E+00 0.  1.
         11    1    3    3    0    0 -0.70364661189E+02 -0.26039102525E+02 -0.14279578636E+03  0.16130671718E+03  0.00000000000E+00 0. -1.
          4    1    1    2  501    0  0.19114582837E+02 -0.84049372847E+01 -0.18479344938E+02  0.27883623098E+02  0.00000000000E+00 0. -1.
<scales pt_clust_5="13000.00000" pt_clust_6="13000.00000" pt_clust_7="13000.00000" pt_clust_8="13000.00000" pt_clust_9="20.88086"></scales>
<clustering>
<clus scale="   20.881">  1  9  2 -1</clus>
<clus scale="   79.634">  5  6 -1 -1</clus>
<clus scale="   93.985">  7  8 -1 -1</clus>
<clus scale="   96.271">  1  5  2 -1</clus>
<clus scale="   20.881">  1  5  2 -1</clus>
</clustering>
</event>
<event>
 9    1  0.1487426E-004  0.9440233E+02  0.7546771E-02  0.1296022E+00
          1   -1    0    0  502    0 -0.00000000000E+00  0.00000000000E+00  0.41691188429E+03  0.41691188429E+03  0.00000000000E+00 0. -1.
         21   -1    0    0  501  502  0.00000000000E+00 -0.00000000000E+00 -0.76867655623E+02  0.76867655623E+02  0.00000000000E+00 0.  1.
         23    2    1    2    0    0  0.22383297960E+02  0.14456207116E+02  0.36138430810E+03  0.37363340050E+03  0.91067589619E+02 0.  0.
        -24    2    1    2    0    0 -0.20458556631E+02  0.13541228432E+02 -0.70368317008E+01  0.88647823236E+02  0.84894064323E+02 0.  0.
         11    1    4    4    0    0  0.37004778270E+01  0.34897820787E+02 -0.32291684553E+02  0.47689666838E+02  0.00000000000E+00 0. -1.
        -12    1    4    4    0    0 -0.24159034458E+02 -0.21356592355E+02  0.25254852852E+02  0.40958156398E+02  0.00000000000E+00 0.  1.
        -11    1    3    3    0    0  0.48680426502E+02  0.21774600388E+02  0.31753569844E+03  0.32198266557E+03  0.00000000000E+00 0.  1.
         11    1    3    3    0    0 -0.26297128542E+02 -0.73183932713E+01  0.43848609661E+02  0.51650734930E+02  0.00000000000E+00 0. -1.
          2    1    1    2  501    0 -0.19247413282E+01 -0.27997435548E+02 -0.14303247728E+02  0.31498316178E+02  0.00000000000E+00 0. -1.
<scales pt_clust_5="13000.00000" pt_clust_6="13000.00000" pt_clust_7="13000.00000" pt_clust_8="13000.00000" pt_clust_9="28.06352"></scales>
<clustering>
<clus scale="   28.064">  2  9  1 -1</clus>
<clus scale="   84.894">  5  6 -1 -1</clus>
<clus scale="   88.462">  2  5  1 -1</clus>
<clus scale="   91.068">  7  8 -1 -1</clus>
<clus scale="   28.064">  2  5  1 -1</clus>
</clustering>
</event>
<event>
 9    1  0.1487426E-004  0.2265659E+03  0.7546771E-02  0.1158742E+00
         21   -1    0    0  501  502  0.00000000000E+00  0.00000000000E+00  0.70523207294E+02  0.70523207294E+02  0.00000000000E+00 0. -1.
          1   -1    0    0  502    0 -0.00000000000E+00 -0.00000000000E+00 -0.15284178931E+04  0.15284178931E+04  0.00000000000E+00 0. -1.
        -24    2    1    2    0    0  0.71991445272E+02 -0.18510093357E+02 -0.47729947056E+03  0.49010969348E+03  0.82869386984E+02 0.  0.
         23    2    1    2    0    0 -0.26404398140E+02 -0.19054386628E+03 -0.80290272344E+03  0.83070129609E+03  0.91693526499E+02 0.  0.
         11    1    3    3    0    0  0.44727918017E+02 -0.51567433119E+02 -0.27836469721E+03  0.28661244121E+03  0.00000000000E+00 0. -1.
        -12    1    3    3    0    0  0.27263527254E+02  0.33057339762E+02 -0.19893477336E+03  0.20349725227E+03  0.00000000000E+00 0.  1.
        -13    1    4    4    0    0 -0.89877134060E+01 -0.12473696539E+03 -0.66789731237E+03  0.67950490020E+03  0.00000000000E+00 0.  1.
         13    1    4    4    0    0 -0.17416684734E+02 -0.65806900890E+02 -0.13500541108E+03  0.15119639589E+03  0.00000000000E+00 0. -1.
          2    1    1    2  501    0 -0.45587047132E+02  0.20905395963E+03 -0.17769249182E+03  0.27813011083E+03  0.00000000000E+00 0. -1.
<scales pt_clust_5="13000.00000" pt_clust_6="13000.00000" pt_clust_7="13000.00000" pt_clust_8="13000.00000" pt_clust_9="207.18208"></scales>
<clustering>
<clus scale="   82.869">  5  6 -1 -1</clus>
<clus scale="   91.694">  7  8 -1 -1</clus>
<clus scale="  111.323">  2  5  1 -1</clus>
<clus scale="  207.182">  1  9  2 -1</clus>
<clus scale="  207.182">  1  5  2 -1</clus>
</clustering>
</event>
<event>
 9    1  0.1487426E-004  0.1404693E+03  0.7546771E-02  0.1225696E+00
         21   -1    0    0  501  502  0.00000000000E+00  0.00000000000E+00  0.57689715770E+02  0.57689715770E+02  0.00000000000E+00 0. -1.
          1   -1    0    0  502    0 -0.00000000000E+00 -0.00000000000E+00 -0.10600365512E+04  0.10600365512E+04  0.00000000000E+00 0. -1.
         23    2    1    2    0    0 -0.50272713200E+02 -0.26172238283E+02 -0.13498668194E+03  0.17217736873E+03  0.90616280284E+02 0.  0.
        -24    2    1    2    0    0 -0.70470548936E+00  0.12992967681E+03 -0.79438680499E+03  0.80883967084E+03  0.79303213447E+02 0.  0.
         13    1    4    4    0    0 -0.16857593846E+02  0.13417082575E+03 -0.72165198922E+03  0.73421221898E+03  0.00000000000E+00 0. -1.
        -14    1    4    4    0    0  0.16152888357E+02 -0.42411489455E+01 -0.72734815765E+02  0.74627451859E+02  0.00000000000E+00 0.  1.
        -13    1    3    3    0    0 -0.27890609568E+02 -0.60025647008E+02 -0.79869025418E+02  0.10373054334E+03  0.00000000000E+00 0. -1.
         13    1    3    3    0    0 -0.22382103632E+02  0.33853408725E+02 -0.55117656522E+02  0.68446825388E+02  0.00000000000E+00 0.  1.
          2    1    1    2  501    0  0.50977418689E+02 -0.10375743852E+03 -0.72973348510E+02  0.13670922741E+03  0.00000000000E+00 0. -1.
<scales pt_clust_5="13000.00000" pt_clust_6="13000.00000" pt_clust_7="13000.00000" pt_clust_8="13000.00000" pt_clust_9="115.94231"></scales>
<clustering>
<clus scale="   79.303">  5  6 -1 -1</clus>
<clus scale="   90.616">  7  8 -1 -1</clus>
<clus scale="  106.881">  2  7  1 -1</clus>
<clus scale="  115.942">  1  9  2 -1</clus>
<clus scale="  115.942">  1  5  2 -1</clus>
</clustering>
</event>
<event>
 9    1  0.1487426E-004  0.1094751E+03  0.7546771E-02  0.1263832E+00
          3   -1    0    0  502    0 -0.00000000000E+00  0.00000000000E+00  0.46618264252E+02  0.46618264252E+02  0.00000000000E+00 0. -1.
         21   -1    0    0  501  502  0.00000000000E+00 -0.00000000000E+00 -0.44125082212E+03  0.44125082212E+03  0.00000000000E+00 0.  1.
        -24    2    1    2    0    0 -0.34816826096E+02 -0.67528257624E+02 -0.58651183399E+02  0.12557269706E+03  0.80970759998E+02 0.  0.
         23    2    1    2    0    0  0.64385362921E+01  0.43250586199E+02 -0.22475266978E+03  0.24496541553E+03  0.87075968432E+02 0.  0.
         13    1    3    3    0    0  0.96455957592E+00 -0.61380638849E+02 -0.60870064079E+01  0.61689260392E+02  0.00000000000E+00 0. -1.
        -14    1    3    3    0    0 -0.35781385672E+02 -0.61476187751E+01 -0.52564176991E+02  0.63883436664E+02  0.00000000000E+00 0.  1.
        -13    1    4    4    0    0 -0.29575167011E+02  0.50666476348E+02 -0.16118458083E+03  0.17152915620E+03  0.00000000000E+00 0.  1.
         13    1    4    4    0    0  0.36013703303E+02 -0.74158901491E+01 -0.63568088951E+02  0.73436259335E+02  0.00000000000E+00 0. -1.
          4    1    1    2  501    0  0.28378289804E+02  0.24277671426E+02 -0.11122870469E+03  0.11733097379E+03  0.00000000000E+00 0. -1.
<scales pt_clust_5="13000.00000" pt_clust_6="13000.00000" pt_clust_7="13000.00000" pt_clust_8="13000.00000" pt_clust_9="37.34612"></scales>
<clustering>
<clus scale="   37.346">  2  9  1 -1</clus>
<clus scale="   80.971">  5  6 -1 -1</clus>
<clus scale="   87.076">  7  8 -1 -1</clus>
<clus scale="  104.685">  1  5  2 -1</clus>
<clus scale="   37.346">  2  5  1 -1</clus>
</clustering>
</event>
<event>
 9    1  0.1487426E-004  0.9742428E+02  0.7546771E-02  0.1286650E+00
         21   -1    0    0  501  502  0.00000000000E+00  0.00000000000E+00  0.42228029834E+02  0.42228029834E+02  0.00000000000E+00 0. -1.
          1   -1    0    0  502    0 -0.00000000000E+00 -0.00000000000E+00 -0.83849425470E+03  0.83849425470E+03  0.00000000000E+00 0. -1.
        -24    2    1    2    0    0  0.56613208373E+02  0.73713086716E+01 -0.67557558186E+03  0.68279655820E+03  0.80928249326E+02 0.  0.
         23    2    1    2    0    0 -0.30841511022E+02 -0.59502269107E+01 -0.14004378306E+03  0.16566516391E+03  0.82741050019E+02 0.  0.
         11    1    3    3    0    0  0.68223415698E+02  0.22553768592E+02 -0.38875042026E+03  0.39533529590E+03  0.00000000000E+00 0. -1.
        -12    1    3    3    0    0 -0.11610207325E+02 -0.15182459920E+02 -0.28682516159E+03  0.28746126230E+03  0.00000000000E+00 0.  1.
        -13    1    4    4    0    0  0.18114708102E+02 -0.24716585339E+02 -0.26157319559E+02  0.40289671219E+02  0.00000000000E+00 0. -1.
         13    1    4    4    0    0 -0.48956219123E+02  0.18766358428E+02 -0.11388646350E+03  0.12537549270E+03  0.00000000000E+00 0.  1.
          2    1    1    2  501    0 -0.25771697352E+02 -0.14210817609E+01  0.19353140050E+02  0.32260562419E+02  0.00000000000E+00 0. -1.
<scales pt_clust_5="13000.00000" pt_clust_6="13000.00000" pt_clust_7="13000.00000" pt_clust_8="13000.00000" pt_clust_9="25.81085"></scales>
<clustering>
<clus scale="   25.811">  1  9  2 -1</clus>
<clus scale="   80.928">  5  6 -1 -1</clus>
<clus scale="   82.741">  7  8 -1 -1</clus>
<clus scale="   95.889">  2  5  1 -1</clus>
<clus scale="   25.811">  1  5  2 -1</clus>
</clustering>
</event>
<event>
 9    1  0.1487426E-004  0.1960895E+03  0.7546771E-02  0.1179550E+00
         21   -1    0    0  501  502  0.00000000000E+00  0.00000000000E+00  0.54709176428E+03  0.54709176428E+03  0.00000000000E+00 0. -1.
          1   -1    0    0  502    0 -0.00000000000E+00 -0.00000000000E+00 -0.16634016831E+03  0.16634016831E+03  0.00000000000E+00 0. -1.
         23    2    1    2    0    0  0.84117009496E+01  0.34988307054E+02 -0.41706300411E+02  0.11447212226E+03  0.10034696277E+03 0.  0.
        -24    2    1    2    0    0 -0.70116928121E+02  0.14063259429E+03  0.51731227176E+02  0.18412430160E+03  0.80819109055E+02 0.  0.
         13    1    4    4    0    0 -0.74484126107E+02  0.14780510222E+03  0.55967751727E+02  0.17471869538E+03  0.00000000000E+00 0. -1.
        -14    1    4    4    0    0  0.43671979856E+01 -0.71725079206E+01 -0.42365245503E+01  0.94056062208E+01  0.00000000000E+00 0.  1.
        -13    1    3    3    0    0 -0.30131999594E+02 -0.15280860159E+02  0.70782826784E+01  0.34518751026E+02  0.00000000000E+00 0.  1.
         13    1    3    3    0    0  0.38543700543E+02  0.50269167213E+02 -0.48784583089E+02  0.79953371230E+02  0.00000000000E+00 0. -1.
          2    1    1    2  501    0  0.61705227171E+02 -0.17562090135E+03  0.37072666920E+03  0.41483550873E+03  0.00000000000E+00 0. -1.
<scales pt_clust_5="13000.00000" pt_clust_6="13000.00000" pt_clust_7="13000.00000" pt_clust_8="13000.00000" pt_clust_9="178.65988"></scales>
<clustering>
<clus scale="   80.819">  5  6 -1 -1</clus>
<clus scale="  100.347">  7  8 -1 -1</clus>
<clus scale="  106.604">  2  7  1 -1</clus>
<clus scale="  178.660">  1  9  2 -1</clus>
<clus scale="  178.660">  1  5  2 -1</clus>
</clustering>
</event>
<event>
 9    1  0.1759885E-004  0.9988446E+02  0.7546771E-02  0.1286672E+00
          1   -1    0    0  502    0 -0.00000000000E+00  0.00000000000E+00  0.47555217776E+03  0.47555217776E+03  0.00000000000E+00 0. -1.
         21   -1    0    0  501  502  0.00000000000E+00 -0.00000000000E+00 -0.10148669880E+03  0.10148669880E+03  0.00000000000E+00 0.  1.
        -24    2    1    2    0    0 -0.38609272503E+02  0.92418934605E+01  0.43271438568E+03  0.44184624839E+03  0.80064218755E+02 0.  0.
         23    2    1    2    0    0  0.20103597119E+02 -0.20096817990E+02 -0.33222034251E+02  0.10192379513E+03  0.92069103084E+02 0.  0.
         13    1    3    3    0    0 -0.60863828640E+02  0.16734651616E+02  0.35820560612E+03  0.36372477295E+03  0.00000000000E+00 0. -1.
        -14    1    3    3    0    0  0.22254556137E+02 -0.74927581557E+01  0.74508779563E+02  0.78121475444E+02  0.00000000000E+00 0.  1.
        -11    1    4    4    0    0 -0.32586172745E+02 -0.19053493071E+01  0.67487856557E+01  0.33332193416E+02  0.00000000000E+00 0. -1.
         11    1    4    4    0    0  0.52689769863E+02 -0.18191468683E+02 -0.39970819907E+02  0.68591601710E+02  0.00000000000E+00 0.  1.
          2    1    1    2  501    0  0.18505675385E+02  0.10854924530E+02 -0.25426872471E+02  0.33268833037E+02  0.00000000000E+00 0. -1.
<scales pt_clust_5="13000.00000" pt_clust_6="13000.00000" pt_clust_7="13000.00000" pt_clust_8="13000.00000" pt_clust_9="21.45436"></scales>
<clustering>
<clus scale="   21.454">  2  9  1 -1</clus>
<clus scale="   80.064">  5  6 -1 -1</clus>
<clus scale="   88.941">  1  5  2 -1</clus>
<clus scale="   92.069">  7  8 -1 -1</clus>
<clus scale="   21.454">  2  5  1 -1</clus>
</clustering>
</event>
<event>
 9    1  0.1487426E-004  0.1046685E+03  0.7546771E-02  0.1275589E+00
          1   -1    0    0  502    0 -0.00000000000E+00  0.00000000000E+00  0.52360831289E+03  0.52360831289E+03  0.00000000000E+00 0. -1.
         21   -1    0    0  501  502  0.00000000000E+00 -0.00000000000E+00 -0.32227426278E+02  0.32227426278E+02  0.00000000000E+00 0.  1.
        -24    2    1    2    0    0  0.35760967001E+02  0.32550734358E+02  0.33966149469E+03  0.35235884467E+03  0.80302100670E+02 0.  0.
         23    2    1    2    0    0 -0.58574815557E+02 -0.27399094680E+02  0.11867612001E+03  0.16299394876E+03  0.91111395910E+02 0.  0.
         13    1    3    3    0    0  0.20479058594E+02 -0.24592726665E+02  0.82683304774E+02  0.88660718101E+02  0.00000000000E+00 0. -1.
        -14    1    3    3    0    0  0.15281908407E+02  0.57143461023E+02  0.25697818992E+03  0.26369812657E+03  0.00000000000E+00 0.  1.
        -13    1    4    4    0    0 -0.24443367210E+02 -0.55702835382E+02  0.94788994049E+02  0.11262875948E+03  0.00000000000E+00 0. -1.
         13    1    4    4    0    0 -0.34131448347E+02  0.28303740702E+02  0.23887125962E+02  0.50365189275E+02  0.00000000000E+00 0.  1.
          2    1    1    2  501    0  0.22813848556E+02 -0.51516396780E+01  0.33043271909E+02  0.40482945740E+02  0.00000000000E+00 0. -1.
<scales pt_clust_5="13000.00000" pt_clust_6="13000.00000" pt_clust_7="13000.00000" pt_clust_8="13000.00000" pt_clust_9="23.38827"></scales>
<clustering>
<clus scale="   23.388">  2  9  1 -1</clus>
<clus scale="   80.302">  5  6 -1 -1</clus>
<clus scale="   91.111">  7  8 -1 -1</clus>
<clus scale="   95.408">  1  5  2 -1</clus>
<clus scale="   23.388">  2  5  1 -1</clus>
</clustering>
</event>
<event>
 9    1  0.1487426E-004  0.1075427E+03  0.7546771E-02  0.1277650E+00
         -4   -1    0    0    0  501 -0.00000000000E+00  0.00000000000E+00  0.58181100049E+03  0.58181100049E+03  0.00000000000E+00 0.  1.
         21   -1    0    0  501  502  0.00000000000E+00 -0.00000000000E+00 -0.11133920105E+03  0.11133920105E+03  0.00000000000E+00 0. -1.
        -24    2    1    2    0    0 -0.72261288247E+01  0.14335353787E+02  0.41993891517E+03  0.42802361383E+03  0.81226856526E+02 0.  0.
         23    2    1    2    0    0  0.65289246236E+02 -0.63818228833E+02  0.10253089754E+03  0.17280284259E+03  0.10494181936E+03 0.  0.
         13    1    3    3    0    0  0.18515299736E+02 -0.27755008417E+02  0.17963105224E+03  0.18270323409E+03  0.00000000000E+00 0. -1.
        -14    1    3    3    0    0 -0.25741428561E+02  0.42090362204E+02  0.24030786292E+03  0.24532037974E+03  0.00000000000E+00 0.  1.
        -13    1    4    4    0    0  0.71549719076E+02 -0.11678834003E+02  0.20388840086E+02  0.75309111424E+02  0.00000000000E+00 0. -1.
         13    1    4    4    0    0 -0.62604728393E+01 -0.52139394830E+02  0.82142057458E+02  0.97493731167E+02  0.00000000000E+00 0.  1.
         -3    1    1    2    0  502 -0.58063117412E+02  0.49482875047E+02 -0.51998013277E+02  0.92323745111E+02  0.00000000000E+00 0.  1.
<scales pt_clust_5="13000.00000" pt_clust_6="13000.00000" pt_clust_7="13000.00000" pt_clust_8="13000.00000" pt_clust_9="76.28814"></scales>
<clustering>
<clus scale="   76.288">  2  9  1 -1</clus>
<clus scale="   81.227">  5  6 -1 -1</clus>
<clus scale="   84.560">  1  5  2 -1</clus>
<clus scale="  104.942">  7  8 -1 -1</clus>
<clus scale="   76.288">  2  5  1 -1</clus>
</clustering>
</event>
<event>
 9    1  0.1860323E-004  0.1436589E+03  0.7546771E-02  0.1210721E+00
         21   -1    0    0  501  502  0.00000000000E+00  0.00000000000E+00  0.15684420718E+03  0.15684420718E+03  0.00000000000E+00 0. -1.
          1   -1    0    0  502    0 -0.00000000000E+00 -0.00000000000E+00 -0.18276593007E+03  0.18276593007E+03  0.00000000000E+00 0. -1.
         23    2    1    2    0    0 -0.20057423535E+01  0.10171523411E+03 -0.12499388750E+02  0.13698224939E+03  0.90872933682E+02 0.  0.
        -24    2    1    2    0    0  0.62293819972E+01 -0.12517157044E+03  0.31367722101E+02  0.15189143169E+03  0.79877066708E+02 0.  0.
         11    1    4    4    0    0  0.24407869025E+02 -0.12193007025E+03  0.11675307512E+02  0.12489595232E+03  0.00000000000E+00 0. -1.
        -12    1    4    4    0    0 -0.18178487027E+02 -0.32415001904E+01  0.19692414590E+02  0.26995479371E+02  0.00000000000E+00 0.  1.
        -11    1    3    3    0    0  0.42679961603E+02  0.32686078789E+02  0.31578519778E+00  0.53759265149E+02  0.00000000000E+00 0. -1.
         11    1    3    3    0    0 -0.44685703957E+02  0.69029155318E+02 -0.12815173948E+02  0.83222984237E+02  0.00000000000E+00 0.  1.
          2    1    1    2  501    0 -0.42236396436E+01  0.23456336331E+02 -0.44790056247E+02  0.50736456168E+02  0.00000000000E+00 0. -1.
<scales pt_clust_5="13000.00000" pt_clust_6="13000.00000" pt_clust_7="13000.00000" pt_clust_8="13000.00000" pt_clust_9="23.83358"></scales>
<clustering>
<clus scale="   23.834">  1  9  2 -1</clus>
<clus scale="   79.877">  5  6 -1 -1</clus>
<clus scale="   90.873">  7  8 -1 -1</clus>
<clus scale="  136.968">  1  5  2 -1</clus>
<clus scale="   23.834">  1  5  2 -1</clus>
</clustering>
</event>
<event>
 9    1  0.1487426E-004  0.1010211E+03  0.7546771E-02  0.1283964E+00
         21   -1    0    0  501  502  0.00000000000E+00  0.00000000000E+00  0.13871531149E+03  0.13871531149E+03  0.00000000000E+00 0. -1.
          1   -1    0    0  502    0 -0.00000000000E+00 -0.00000000000E+00 -0.15902533772E+03  0.15902533772E+03  0.00000000000E+00 0. -1.
        -24    2    1    2    0    0 -0.80402474187E+01  0.57988660486E+02 -0.27092468404E+02  0.10291232794E+03  0.80184880586E+02 0.  0.
         23    2    1    2    0    0  0.53025448286E+02  0.91066624326E+01  0.30236007436E+02  0.11071220879E+03  0.91914893040E+02 0.  0.
         11    1    3    3    0    0 -0.16363481672E+02  0.76189926601E+02 -0.28186863297E+02  0.82868375816E+02  0.00000000000E+00 0. -1.
        -12    1    3    3    0    0  0.83232342537E+01 -0.18201266115E+02  0.10943948924E+01  0.20043952125E+02  0.00000000000E+00 0.  1.
        -11    1    4    4    0    0  0.49306058391E+02 -0.16297625032E+02 -0.18908408309E+02  0.55265069262E+02  0.00000000000E+00 0.  1.
         11    1    4    4    0    0  0.37193898955E+01  0.25404287464E+02  0.49144415745E+02  0.55447139527E+02  0.00000000000E+00 0. -1.
          2    1    1    2  501    0 -0.44985200868E+02 -0.67095322919E+02 -0.23453565264E+02  0.84116112477E+02  0.00000000000E+00 0. -1.
<scales pt_clust_5="13000.00000" pt_clust_6="13000.00000" pt_clust_7="13000.00000" pt_clust_8="13000.00000" pt_clust_9="80.78030"></scales>
<clustering>
<clus scale="   80.185">  5  6 -1 -1</clus>
<clus scale="   80.780">  1  9  2 -1</clus>
<clus scale="   90.479">  2  5  1 -1</clus>
<clus scale="   91.915">  7  8 -1 -1</clus>
<clus scale="   80.780">  1  5  2 -1</clus>
</clustering>
</event>
<event>
 9    1  0.1487426E-004  0.2437816E+03  0.7546771E-02  0.1133213E+00
         21   -1    0    0  501  502  0.00000000000E+00  0.00000000000E+00  0.30988159332E+03  0.30988159332E+03  0.00000000000E+00 0. -1.
          1   -1    0    0  502    0 -0.00000000000E+00 -0.00000000000E+00 -0.36448956371E+03  0.36448956371E+03  0.00000000000E+00 0. -1.
        -24    2    1    2    0    0  0.88956300966E+02 -0.11159558910E+03  0.42400851717E+02  0.16973667258E+03  0.81522431303E+02 0.  0.
         23    2    1    2    0    0  0.61214788212E+02 -0.12766843554E+03 -0.13852839509E+03  0.21911302386E+03  0.93669211864E+02 0.  0.
         11    1    3    3    0    0  0.10416802024E+03 -0.94207409087E+02  0.42130503031E+02  0.14663216446E+03  0.00000000000E+00 0. -1.
        -12    1    3    3    0    0 -0.15211719274E+02 -0.17388180014E+02  0.27034868647E+00  0.23104508129E+02  0.00000000000E+00 0.  1.
        -11    1    4    4    0    0 -0.11606998546E+02 -0.83168971477E+02 -0.60745772718E+02  0.10364289235E+03  0.00000000000E+00 0. -1.
         11    1    4    4    0    0  0.72821786758E+02 -0.44499464066E+02 -0.77782622368E+02  0.11547013151E+03  0.00000000000E+00 0.  1.
          2    1    1    2  501    0 -0.15017108918E+03  0.23926402464E+03  0.41519572987E+02  0.28552146058E+03  0.00000000000E+00 0. -1.
<scales pt_clust_5="13000.00000" pt_clust_6="13000.00000" pt_clust_7="13000.00000" pt_clust_8="13000.00000" pt_clust_9="225.06790"></scales>
<clustering>
<clus scale="   81.522">  5  6 -1 -1</clus>
<clus scale="   93.669">  7  8 -1 -1</clus>
<clus scale="  164.356">  2  5  1 -1</clus>
<clus scale="  225.068">  1  9  2 -1</clus>
<clus scale="  225.068">  1  5  2 -1</clus>
</clustering>
</event>
<event>
 9    1  0.1487426E-004  0.1109949E+03  0.7546771E-02  0.1263730E+00
         21   -1    0    0  501  502  0.00000000000E+00  0.00000000000E+00  0.25195082547E+03  0.25195082547E+03  0.00000000000E+00 0.  1.
          3   -1    0    0  502    0 -0.00000000000E+00 -0.00000000000E+00 -0.97368777271E+02  0.97368777271E+02  0.00000000000E+00 0. -1.
         23    2    1    2    0    0  0.59532408800E+02  0.10747172548E+02 -0.40289387615E+02  0.12068223966E+03  0.96339809008E+02 0.  0.
        -24    2    1    2    0    0 -0.35195375480E+02 -0.80113756839E+01  0.12788970973E+03  0.15731887036E+03  0.84205418591E+02 0.  0.
         11    1    4    4    0    0  0.27443882162E+02  0.31867892440E+01  0.32550091242E+02  0.42694621835E+02  0.00000000000E+00 0. -1.
        -12    1    4    4    0    0 -0.62639257642E+02 -0.11198164928E+02  0.95339618488E+02  0.11462424852E+03  0.00000000000E+00 0.  1.
        -11    1    3    3    0    0  0.17275841405E+01 -0.21546439978E+02 -0.49326250371E+02  0.53854550396E+02  0.00000000000E+00 0.  1.
         11    1    3    3    0    0  0.57804824660E+02  0.32293612526E+02  0.90368627562E+01  0.66827689264E+02  0.00000000000E+00 0. -1.
          4    1    1    2  501    0 -0.24337033321E+02 -0.27357968642E+01  0.66981726081E+02  0.71318492722E+02  0.00000000000E+00 0. -1.
<scales pt_clust_5="13000.00000" pt_clust_6="13000.00000" pt_clust_7="13000.00000" pt_clust_8="13000.00000" pt_clust_9="24.49032"></scales>
<clustering>
<clus scale="   24.490">  1  9  2 -1</clus>
<clus scale="   84.205">  5  6 -1 -1</clus>
<clus scale="   96.340">  7  8 -1 -1</clus>
<clus scale="  100.643">  1  5  2 -1</clus>
<clus scale="   24.490">  1  5  2 -1</clus>
</clustering>
</event>
<event>
 9    1  0.1487426E-004  0.9313212E+02  0.7546771E-02  0.1302411E+00
         -2   -1    0    0    0  501 -0.00000000000E+00  0.00000000000E+00  0.55296765004E+02  0.55296765004E+02  0.00000000000E+00 0.  1.
         21   -1    0    0  501  502  0.00000000000E+00 -0.00000000000E+00 -0.25788292483E+03  0.25788292483E+03  0.00000000000E+00 0. -1.
        -24    2    1    2    0    0 -0.59259197101E+01 -0.18174082435E+02 -0.21396432868E+02  0.84475515565E+02  0.79453707238E+02 0.  0.
         23    2    1    2    0    0 -0.21076440595E+02  0.22271157550E+02 -0.83463823715E+02  0.12723365810E+03  0.91005346424E+02 0.  0.
         13    1    3    3    0    0 -0.40268891391E+02 -0.11613866167E+02 -0.25831519598E+02  0.49231421937E+02  0.00000000000E+00 0. -1.
        -14    1    3    3    0    0  0.34342971681E+02 -0.65602162677E+01  0.44350867303E+01  0.35244093628E+02  0.00000000000E+00 0.  1.
        -11    1    4    4    0    0 -0.45603242353E+02  0.13112599259E+02 -0.89941544463E+01  0.48295867180E+02  0.00000000000E+00 0.  1.
         11    1    4    4    0    0  0.24526801758E+02  0.91585582906E+01 -0.74469669269E+02  0.78937790921E+02  0.00000000000E+00 0. -1.
         -1    1    1    2    0  502  0.27002360305E+02 -0.40970751153E+01 -0.97725903246E+02  0.10147051617E+03  0.00000000000E+00 0.  1.
<scales pt_clust_5="13000.00000" pt_clust_6="13000.00000" pt_clust_7="13000.00000" pt_clust_8="13000.00000" pt_clust_9="27.31142"></scales>
<clustering>
<clus scale="   27.311">  2  9  1 -1</clus>
<clus scale="   79.454">  5  6 -1 -1</clus>
<clus scale="   81.881">  1  5  2 -1</clus>
<clus scale="   91.005">  7  8 -1 -1</clus>
<clus scale="   27.311">  2  5  1 -1</clus>
</clustering>
</event>
<event>
 9    1  0.1487426E-004  0.1069238E+03  0.7546771E-02  0.1271486E+00
          3   -1    0    0  502    0 -0.00000000000E+00  0.00000000000E+00  0.11020893212E+03  0.11020893212E+03  0.00000000000E+00 0. -1.
         21   -1    0    0  501  502  0.00000000000E+00 -0.00000000000E+00 -0.22280311322E+03  0.22280311322E+03  0.00000000000E+00 0. -1.
        -24    2    1    2    0    0 -0.39822868348E+02  0.49745749852E+02  0.25101468138E+02  0.10537880306E+03  0.80088126206E+02 0.  0.
         23    2    1    2    0    0  0.23166143662E+02 -0.24772205386E+01 -0.14861095736E+03  0.17634090082E+03  0.92022224603E+02 0.  0.
         13    1    3    3    0    0 -0.11076030737E+01  0.23453378138E+02  0.47882555074E+02  0.53329417877E+02  0.00000000000E+00 0. -1.
        -14    1    3    3    0    0 -0.38715265274E+02  0.26292371714E+02 -0.22781086937E+02  0.52049385180E+02  0.00000000000E+00 0.  1.
        -13    1    4    4    0    0  0.28013068570E+02 -0.31683770272E+02 -0.24773120034E+02  0.49013271525E+02  0.00000000000E+00 0.  1.
         13    1    4    4    0    0 -0.48469249079E+01  0.29206549733E+02 -0.12383783733E+03  0.12732762930E+03  0.00000000000E+00 0. -1.
          4    1    1    2  501    0  0.16656724686E+02 -0.47268529314E+02  0.10915308126E+02  0.51292341458E+02  0.00000000000E+00 0. -1.
<scales pt_clust_5="13000.00000" pt_clust_6="13000.00000" pt_clust_7="13000.00000" pt_clust_8="13000.00000" pt_clust_9="50.11749"></scales>
<clustering>
<clus scale="   50.117">  2  9  1 -1</clus>
<clus scale="   80.088">  5  6 -1 -1</clus>
<clus scale="   92.022">  7  8 -1 -1</clus>
<clus scale="   96.844">  1  5  2 -1</clus>
<clus scale="   50.117">  2  5  1 -1</clus>
</clustering>
</event>
<event>
 9    1  0.1487426E-004  0.1685529E+03  0.7546771E-02  0.1180636E+00
         21   -1    0    0  501  502  0.00000000000E+00  0.00000000000E+00  0.21736303768E+03  0.21736303768E+03  0.00000000000E+00 0.  1.
          1   -1    0    0  502    0 -0.00000000000E+00 -0.00000000000E+00 -0.22803721778E+03  0.22803721778E+03  0.00000000000E+00 0. -1.
         23    2    1    2    0    0  0.83387832575E+02  0.10956053854E+03 -0.61990826954E+01  0.16377158640E+03  0.88462769891E+02 0.  0.
        -24    2    1    2    0    0 -0.21558929892E+02 -0.16261132593E+03  0.43328818292E+02  0.18717014057E+03  0.79044571281E+02 0.  0.
         13    1    4    4    0    0  0.43000014634E+01 -0.89046225127E+02 -0.14191933660E+02  0.90272538476E+02  0.00000000000E+00 0. -1.
        -14    1    4    4    0    0 -0.25858931355E+02 -0.73565100800E+02  0.57520751952E+02  0.96897602094E+02  0.00000000000E+00 0.  1.
        -13    1    3    3    0    0  0.96208868263E+02  0.66655002576E+02  0.65071569261E+01  0.11722362728E+03  0.00000000000E+00 0.  1.
         13    1    3    3    0    0 -0.12821035688E+02  0.42905535968E+02 -0.12706239621E+02  0.46547959119E+02  0.00000000000E+00 0. -1.
          2    1    1    2  501    0 -0.61828902683E+02  0.53050787382E+02 -0.47803915702E+02  0.94458528494E+02  0.00000000000E+00 0. -1.
<scales pt_clust_5="13000.00000" pt_clust_6="13000.00000" pt_clust_7="13000.00000" pt_clust_8="13000.00000" pt_clust_9="81.46905"></scales>
<clustering>
<clus scale="   79.045">  5  6 -1 -1</clus>
<clus scale="   81.469">  1  9  2 -1</clus>
<clus scale="   88.463">  7  8 -1 -1</clus>
<clus scale="  163.806">  1  5  2 -1</clus>
<clus scale="   81.469">  1  5  2 -1</clus>
</clustering>
</event>
<event>
 9    1  0.1487426E-004  0.9510909E+02  0.7546771E-02  0.1295744E+00
          1   -1    0    0  502    0 -0.00000000000E+00  0.00000000000E+00  0.68833249851E+02  0.68833249851E+02  0.00000000000E+00 0. -1.
         21   -1    0    0  501  502  0.00000000000E+00 -0.00000000000E+00 -0.26700908276E+03  0.26700908276E+03  0.00000000000E+00 0. -1.
         23    2    1    2    0    0  0.18416430923E+02  0.23519869990E+02 -0.29695903032E+01  0.95980255173E+02  0.91164914875E+02 0.  0.
        -24    2    1    2    0    0 -0.34187963181E+02  0.75013822551E+01 -0.82444287511E+02  0.12185225650E+03  0.82618547005E+02 0.  0.
         13    1    4    4    0    0 -0.20109041038E+02  0.45190731041E+02 -0.47051154371E+02  0.68267025943E+02  0.00000000000E+00 0. -1.
        -14    1    4    4    0    0 -0.14078922143E+02 -0.37689348785E+02 -0.35393133140E+02  0.53585230559E+02  0.00000000000E+00 0.  1.
        -11    1    3    3    0    0  0.84157644563E+01  0.51354042262E+02  0.22741121601E+02  0.56791032388E+02  0.00000000000E+00 0. -1.
         11    1    3    3    0    0  0.10000666467E+02 -0.27834172272E+02 -0.25710711904E+02  0.39189222784E+02  0.00000000000E+00 0.  1.
          2    1    1    2  501    0  0.15771532258E+02 -0.31021252245E+02 -0.11276195510E+03  0.11800982094E+03  0.00000000000E+00 0. -1.
<scales pt_clust_5="13000.00000" pt_clust_6="13000.00000" pt_clust_7="13000.00000" pt_clust_8="13000.00000" pt_clust_9="34.80028"></scales>
<clustering>
<clus scale="   34.800">  2  9  1 -1</clus>
<clus scale="   82.619">  5  6 -1 -1</clus>
<clus scale="   86.951">  2  5  1 -1</clus>
<clus scale="   91.165">  7  8 -1 -1</clus>
<clus scale="   34.800">  2  5  1 -1</clus>
</clustering>
</event>
<event>
 9    1  0.1487426E-004  0.1544541E+03  0.7546771E-02  0.1196791E+00
         -2   -1    0    0    0  501 -0.00000000000E+00  0.00000000000E+00  0.43781320980E+03  0.43781320980E+03  0.00000000000E+00 0.  1.
         21   -1    0    0  501  502  0.00000000000E+00 -0.00000000000E+00 -0.17306963451E+03  0.17306963451E+03  0.00000000000E+00 0.  1.
        -24    2    1    2    0    0 -0.12349185264E+03  0.47800711743E+02  0.29314010830E+03  0.33193294425E+03  0.81934184972E+02 0.  0.
         23    2    1    2    0    0  0.95101988628E+02 -0.50842871617E+02  0.82901848948E+02  0.16404746778E+03  0.91703158566E+02 0.  0.
         11    1    3    3    0    0 -0.78108434505E+02  0.55813583095E+02  0.12511154507E+03  0.15769902444E+03  0.00000000000E+00 0. -1.
        -12    1    3    3    0    0 -0.45383418135E+02 -0.80128713519E+01  0.16802856323E+03  0.17423391981E+03  0.00000000000E+00 0.  1.
        -13    1    4    4    0    0  0.95692159663E+01  0.24879150724E+02  0.22177609979E+02  0.34675472878E+02  0.00000000000E+00 0.  1.
         13    1    4    4    0    0  0.85532772661E+02 -0.75722022341E+02  0.60724238969E+02  0.12937199490E+03  0.00000000000E+00 0. -1.
         -1    1    1    2    0  502  0.28389864012E+02  0.30421598733E+01 -0.11129838197E+03  0.11490243228E+03  0.00000000000E+00 0.  1.
<scales pt_clust_5="13000.00000" pt_clust_6="13000.00000" pt_clust_7="13000.00000" pt_clust_8="13000.00000" pt_clust_9="28.55239"></scales>
<clustering>
<clus scale="   28.552">  2  9  1 -1</clus>
<clus scale="   81.934">  5  6 -1 -1</clus>
<clus scale="   91.703">  7  8 -1 -1</clus>
<clus scale="  148.862">  1  5  2 -1</clus>
<clus scale="   28.552">  2  5  1 -1</clus>
</clustering>
</event>
<event>
 9    1  0.1487426E-004  0.1902222E+03  0.7546771E-02  0.1159386E+00
         21   -1    0    0  501  502  0.00000000000E+00  0.00000000000E+00  0.28579507829E+03  0.28579507829E+03  0.00000000000E+00 0. -1.
          1   -1    0    0  502    0 -0.00000000000E+00 -0.00000000000E+00 -0.60477704774E+03  0.60477704774E+03  0.00000000000E+00 0. -1.
         23    2    1    2    0    0 -0.42177623226E+02  0.15976084330E+03 -0.53790342517E+03  0.57011917804E+03  0.91614973735E+02 0.  0.
        -24    2    1    2    0    0  0.31524679101E+02 -0.18618714647E+03  0.18927564165E+03  0.27933471591E+03  0.80889777393E+02 0.  0.
         11    1    4    4    0    0  0.21771921944E+02 -0.69993554552E+02  0.12827119099E+03  0.14773832510E+03  0.00000000000E+00 0. -1.
        -12    1    4    4    0    0  0.97527571572E+01 -0.11619359192E+03  0.61004450662E+02  0.13159639081E+03  0.00000000000E+00 0.  1.
        -13    1    3    3    0    0 -0.62647672265E+02  0.15468063978E+03 -0.45722254984E+03  0.48672712195E+03  0.00000000000E+00 0. -1.
         13    1    3    3    0    0  0.20470049040E+02  0.50802035278E+01 -0.80680875328E+02  0.83392056092E+02  0.00000000000E+00 0.  1.
          2    1    1    2  501    0  0.10652944124E+02  0.26426303165E+02  0.29645814069E+02  0.41118232079E+02  0.00000000000E+00 0. -1.
<scales pt_clust_5="13000.00000" pt_clust_6="13000.00000" pt_clust_7="13000.00000" pt_clust_8="13000.00000" pt_clust_9="28.49271"></scales>
<clustering>
<clus scale="   28.493">  1  9  2 -1</clus>
<clus scale="   80.890">  5  6 -1 -1</clus>
<clus scale="   91.615">  7  8 -1 -1</clus>
<clus scale="  185.295">  1  5  2 -1</clus>
<clus scale="   28.493">  1  5  2 -1</clus>
</clustering>
</event>
<event>
 9    1  0.1498863E-004  0.9922559E+02  0.7546771E-02  0.1291030E+00
         21   -1    0    0  501  502  0.00000000000E+00  0.00000000000E+00  0.23492329613E+03  0.23492329613E+03  0.00000000000E+00 0. -1.
          1   -1    0    0  502    0 -0.00000000000E+00 -0.00000000000E+00 -0.24120890400E+03  0.24120890400E+03  0.00000000000E+00 0. -1.
         23    2    1    2    0    0  0.30741478025E+02  0.21885408113E+02 -0.20472020978E+03  0.22742123412E+03  0.91575345334E+02 0.  0.
        -24    2    1    2    0    0 -0.50074912029E+01 -0.63324479263E+02  0.10619103594E+03  0.14436390012E+03  0.74359497723E+02 0.  0.
         11    1    4    4    0    0 -0.19381687122E+02 -0.61787185776E+02  0.38908472673E+02  0.75545849439E+02  0.00000000000E+00 0. -1.
        -12    1    4    4    0    0  0.14374195919E+02 -0.15372934874E+01  0.67282563269E+02  0.68818050681E+02  0.00000000000E+00 0.  1.
        -13    1    3    3    0    0  0.58219407175E+02  0.36866153137E+01 -0.16916139041E+03  0.17893760507E+03  0.00000000000E+00 0. -1.
         13    1    3    3    0    0 -0.27477929150E+02  0.18198792799E+02 -0.35558819374E+02  0.48483629041E+02  0.00000000000E+00 0.  1.
          2    1    1    2  501    0 -0.25733986822E+02  0.41439071151E+02  0.92243565982E+02  0.10434706589E+03  0.00000000000E+00 0. -1.
<scales pt_clust_5="13000.00000" pt_clust_6="13000.00000" pt_clust_7="13000.00000" pt_clust_8="13000.00000" pt_clust_9="48.77945"></scales>
<clustering>
<clus scale="   48.779">  1  9  2 -1</clus>
<clus scale="   74.359">  5  6 -1 -1</clus>
<clus scale="   83.600">  1  5  2 -1</clus>
<clus scale="   91.575">  7  8 -1 -1</clus>
<clus scale="   48.779">  1  5  2 -1</clus>
</clustering>
</event>
<event>
 9    1  0.1487426E-004  0.1027073E+03  0.7546771E-02  0.1279660E+00
         21   -1    0    0  501  502  0.00000000000E+00  0.00000000000E+00  0.10244586842E+03  0.10244586842E+03  0.00000000000E+00 0.  1.
         -2   -1    0    0    0  501 -0.00000000000E+00 -0.00000000000E+00 -0.22717144701E+03  0.22717144701E+03  0.00000000000E+00 0.  1.
         23    2    1    2    0    0 -0.36691704867E+02  0.65606253143E+01 -0.29911426065E+02  0.10546037866E+03  0.94009973131E+02 0.  0.
        -24    2    1    2    0    0 -0.17354060857E+02 -0.75574025458E+02 -0.40935599787E+02  0.12126528192E+03  0.83767228180E+02 0.  0.
         11    1    4    4    0    0  0.22463198237E+02 -0.28945718490E+02  0.13722040095E+02  0.39124727198E+02  0.00000000000E+00 0. -1.
        -12    1    4    4    0    0 -0.39817259094E+02 -0.46628306968E+02 -0.54657639882E+02  0.82140554722E+02  0.00000000000E+00 0.  1.
        -13    1    3    3    0    0 -0.17608690144E+02 -0.18249864499E+02 -0.58064834665E+02  0.63361254308E+02  0.00000000000E+00 0.  1.
         13    1    3    3    0    0 -0.19083014723E+02  0.24810489813E+02  0.28153408600E+02  0.42099124356E+02  0.00000000000E+00 0. -1.
         -1    1    1    2    0  502  0.54045765724E+02  0.69013400144E+02 -0.53878552737E+02  0.10289165485E+03  0.00000000000E+00 0.  1.
<scales pt_clust_5="13000.00000" pt_clust_6="13000.00000" pt_clust_7="13000.00000" pt_clust_8="13000.00000" pt_clust_9="87.65730"></scales>
<clustering>
<clus scale="   83.767">  5  6 -1 -1</clus>
<clus scale="   87.657">  1  9  2 -1</clus>
<clus scale="   93.423">  1  5  2 -1</clus>
<clus scale="   94.010">  7  8 -1 -1</clus>
<clus scale="   87.657">  1  5  2 -1</clus>
</clustering>
</event>
<event>
 9    1  0.1487426E-004  0.1861053E+03  0.7546771E-02  0.1163026E+00
          1   -1    0    0  502    0 -0.00000000000E+00  0.00000000000E+00  0.46599380588E+03  0.46599380588E+03  0.00000000000E+00 0. -1.
         21   -1    0    0  501  502  0.00000000000E+00 -0.00000000000E+00 -0.11108349346E+03  0.11108349346E+03  0.00000000000E+00 0.  1.
         23    2    1    2    0    0 -0.13246853078E+03  0.77293285689E+02  0.26604630255E+03  0.32010921425E+03  0.90372065853E+02 0.  0.
        -24    2    1    2    0    0  0.16481377128E+03 -0.83973740418E+02  0.95234267825E+02  0.22333144963E+03  0.81192378605E+02 0.  0.
         11    1    4    4    0    0  0.60982708171E+02  0.91767222484E+01  0.19920816336E+02  0.64806958351E+02  0.00000000000E+00 0. -1.
        -12    1    4    4    0    0  0.10383106311E+03 -0.93150462666E+02  0.75313451489E+02  0.15852449128E+03  0.00000000000E+00 0.  1.
        -11    1    3    3    0    0 -0.80162171388E+02  0.66388294690E+02  0.23800120367E+03  0.25976518693E+03  0.00000000000E+00 0. -1.
         11    1    3    3    0    0 -0.52306359393E+02  0.10904990999E+02  0.28045098881E+02  0.60344027318E+02  0.00000000000E+00 0.  1.
          2    1    1    2  501    0 -0.32345240502E+02  0.66804547285E+01 -0.63702579568E+01  0.33636635458E+02  0.00000000000E+00 0. -1.
<scales pt_clust_5="13000.00000" pt_clust_6="13000.00000" pt_clust_7="13000.00000" pt_clust_8="13000.00000" pt_clust_9="33.02791"></scales>
<clustering>
<clus scale="   33.028">  2  9  1 -1</clus>
<clus scale="   81.192">  5  6 -1 -1</clus>
<clus scale="   90.372">  7  8 -1 -1</clus>
<clus scale="  181.825">  2  5  1 -1</clus>
<clus scale="   33.028">  2  5  1 -1</clus>
</clustering>
</event>
<event>
 9    1  0.1487426E-004  0.1267843E+03  0.7546771E-02  0.1251562E+00
         21   -1    0    0  501  502  0.00000000000E+00  0.00000000000E+00  0.56522559473E+02  0.56522559473E+02  0.00000000000E+00 0. -1.
          3   -1    0    0  502    0 -0.00000000000E+00 -0.00000000000E+00 -0.91729430534E+03  0.91729430534E+03  0.00000000000E+00 0. -1.
        -24    2    1    2    0    0  0.35061104826E+02 -0.68746390727E+00 -0.62427198877E+03  0.63014785165E+03  0.78364821869E+02 0.  0.
         23    2    1    2    0    0 -0.54067008228E+01  0.86133909935E+02 -0.21794305716E+03  0.25133900759E+03  0.90685377641E+02 0.  0.
         11    1    3    3    0    0  0.56252993502E+02  0.10670734172E+02 -0.33311728947E+03  0.33800205974E+03  0.00000000000E+00 0. -1.
        -12    1    3    3    0    0 -0.21191888677E+02 -0.11358198079E+02 -0.29115469930E+03  0.29214579191E+03  0.00000000000E+00 0.  1.
        -13    1    4    4    0    0 -0.33503138381E+02  0.18764406161E+02 -0.27062961118E+02  0.46978368260E+02  0.00000000000E+00 0.  1.
         13    1    4    4    0    0  0.28096437558E+02  0.67369503774E+02 -0.19088009605E+03  0.20436063933E+03  0.00000000000E+00 0. -1.
          4    1    1    2  501    0 -0.29654404003E+02 -0.85446446028E+02 -0.18556699939E+02  0.92330005568E+02  0.00000000000E+00 0. -1.
<scales pt_clust_5="13000.00000" pt_clust_6="13000.00000" pt_clust_7="13000.00000" pt_clust_8="13000.00000" pt_clust_9="88.60258"></scales>
<clustering>
<clus scale="   78.365">  5  6 -1 -1</clus>
<clus scale="   85.853">  2  5  1 -1</clus>
<clus scale="   88.603">  1  9  2 -1</clus>
<clus scale="   90.685">  7  8 -1 -1</clus>
<clus scale="   88.603">  1  5  2 -1</clus>
</clustering>
</event>
<event>
 9    1  0.1487426E-004  0.9558880E+02  0.7546771E-02  0.1295247E+00
         21   -1    0    0  501  502  0.00000000000E+00  0.00000000000E+00  0.10228342526E+03  0.10228342526E+03  0.00000000000E+00 0. -1.
         -2   -1    0    0    0  501 -0.00000000000E+00 -0.00000000000E+00 -0.35682189513E+03  0.35682189513E+03  0.00000000000E+00 0.  1.
         23    2    1    2    0    0 -0.16309801924E+02  0.37186467322E+02 -0.69578756474E+02  0.12066346768E+03  0.89831097557E+02 0.  0.
        -24    2    1    2    0    0 -0.22412931674E+02 -0.16950276107E+02  0.50665516677E+02  0.98800031281E+02  0.80029995843E+02 0.  0.
         11    1    4    4    0    0 -0.46793706519E+02  0.33292857622E+01  0.47774154739E+02  0.66955992820E+02  0.00000000000E+00 0. -1.
        -12    1    4    4    0    0  0.24380774845E+02 -0.20279561869E+02  0.28913619384E+01  0.31844038461E+02  0.00000000000E+00 0.  1.
        -13    1    3    3    0    0 -0.28066797463E+02  0.55842059547E+02 -0.75323688343E+02  0.97876139891E+02  0.00000000000E+00 0. -1.
         13    1    3    3    0    0  0.11756995539E+02 -0.18655592225E+02  0.57449318686E+01  0.22787327785E+02  0.00000000000E+00 0.  1.
         -1    1    1    2    0  502  0.38722733598E+02 -0.20236191215E+02 -0.23562523008E+03  0.23964182144E+03  0.00000000000E+00 0.  1.
<scales pt_clust_5="13000.00000" pt_clust_6="13000.00000" pt_clust_7="13000.00000" pt_clust_8="13000.00000" pt_clust_9="43.69159"></scales>
<clustering>
<clus scale="   43.692">  1  9  2 -1</clus>
<clus scale="   80.030">  5  6 -1 -1</clus>
<clus scale="   86.443">  1  5  2 -1</clus>
<clus scale="   89.831">  7  8 -1 -1</clus>
<clus scale="   43.692">  1  5  2 -1</clus>
</clustering>
</event>
<event>
 9    1  0.1487426E-004  0.1524976E+03  0.7546771E-02  0.1216172E+00
          1   -1    0    0  502    0 -0.00000000000E+00  0.00000000000E+00  0.10257499205E+03  0.10257499205E+03  0.00000000000E+00 0. -1.
         21   -1    0    0  501  502  0.00000000000E+00 -0.00000000000E+00 -0.47796068997E+03  0.47796068997E+03  0.00000000000E+00 0. -1.
         23    2    1    2    0    0 -0.25477150522E+02  0.35965179900E+02 -0.24386920662E+03  0.26433825731E+03  0.91977959165E+02 0.  0.
        -24    2    1    2    0    0  0.13514273572E+03 -0.60130368457E+02 -0.11269118397E+03  0.20233395774E+03  0.79752788564E+02 0.  0.
         11    1    4    4    0    0  0.79550361338E+02 -0.21873574065E+02 -0.15397666545E+02  0.83927357676E+02  0.00000000000E+00 0. -1.
        -12    1    4    4    0    0  0.55592374377E+02 -0.38256794392E+02 -0.97293517429E+02  0.11840660007E+03  0.00000000000E+00 0.  1.
        -13    1    3    3    0    0 -0.13076304187E+02 -0.24316784982E+02 -0.25933611622E+02  0.37879387202E+02  0.00000000000E+00 0.  1.
         13    1    3    3    0    0 -0.12400846335E+02  0.60281964881E+02 -0.21793559500E+03  0.22645887010E+03  0.00000000000E+00 0. -1.
          2    1    1    2  501    0 -0.10966558519E+03  0.24165188557E+02 -0.18825307322E+02  0.11386346697E+03  0.00000000000E+00 0. -1.
<scales pt_clust_5="13000.00000" pt_clust_6="13000.00000" pt_clust_7="13000.00000" pt_clust_8="13000.00000" pt_clust_9="129.98091"></scales>
<clustering>
<clus scale="   79.753">  5  6 -1 -1</clus>
<clus scale="   91.978">  7  8 -1 -1</clus>
<clus scale="  101.993">  1  7  2 -1</clus>
<clus scale="  129.981">  2  9  1 -1</clus>
<clus scale="  129.981">  2  5  1 -1</clus>
</clustering>
</event>
<event>
 9    1  0.1487426E-004  0.9293578E+02  0.7546771E-02  0.1302663E+00
         -2   -1    0    0    0  501 -0.00000000000E+00  0.00000000000E+00  0.24178956352E+02  0.24178956352E+02  0.00000000000E+00 0.  1.
         21   -1    0    0  501  502  0.00000000000E+00 -0.00000000000E+00 -0.70236951008E+03  0.70236951008E+03  0.00000000000E+00 0.  1.
        -24    2    1    2    0    0 -0.40130462227E+01 -0.10839996429E+02 -0.13532598942E+03  0.15707107758E+03  0.78896070484E+02 0.  0.
         23    2    1    2    0    0  0.56226326733E+02 -0.11499643605E+02 -0.26276342688E+03  0.28367687561E+03  0.90190407641E+02 0.  0.
         11    1    3    3    0    0 -0.27269654161E+02  0.87139335723E+01 -0.11936371142E+03  0.12274877710E+03  0.00000000000E+00 0. -1.
        -12    1    3    3    0    0  0.23256607938E+02 -0.19553930001E+02 -0.15962278001E+02  0.34322300480E+02  0.00000000000E+00 0.  1.
        -13    1    4    4    0    0  0.55698682433E+02  0.29698666404E+02 -0.18797641525E+03  0.19829141862E+03  0.00000000000E+00 0.  1.
         13    1    4    4    0    0  0.52764429985E+00 -0.41198310008E+02 -0.74787011635E+02  0.85385456990E+02  0.00000000000E+00 0. -1.
         -1    1    1    2    0  502 -0.52213280510E+02  0.22339640033E+02 -0.28010113743E+03  0.28580051324E+03  0.00000000000E+00 0.  1.
<scales pt_clust_5="13000.00000" pt_clust_6="13000.00000" pt_clust_7="13000.00000" pt_clust_8="13000.00000" pt_clust_9="56.79160"></scales>
<clustering>
<clus scale="   56.792">  2  9  1 -1</clus>
<clus scale="   78.896">  5  6 -1 -1</clus>
<clus scale="   82.020">  1  5  2 -1</clus>
<clus scale="   90.190">  7  8 -1 -1</clus>
<clus scale="   56.792">  2  5  1 -1</clus>
</clustering>
</event>
<event>
 9    1  0.1487426E-004  0.1289787E+03  0.7546771E-02  0.1230657E+00
         21   -1    0    0  501  502  0.00000000000E+00  0.00000000000E+00  0.37524067963E+02  0.37524067963E+02  0.00000000000E+00 0.  1.
          1   -1    0    0  502    0 -0.00000000000E+00 -0.00000000000E+00 -0.69719036082E+03  0.69719036082E+03  0.00000000000E+00 0. -1.
        -24    2    1    2    0    0 -0.38370745149E+02 -0.72601456483E+02 -0.36460237520E+03  0.38332101154E+03  0.85186972721E+02 0.  0.
         23    2    1    2    0    0  0.66185141754E+02  0.84391381027E+02 -0.28757420892E+03  0.32026884952E+03  0.91492251886E+02 0.  0.
         11    1    3    3    0    0 -0.46553205610E+02 -0.40922788727E+02 -0.10705626827E+03  0.12370497228E+03  0.00000000000E+00 0. -1.
        -12    1    3    3    0    0  0.81824604606E+01 -0.31678667756E+02 -0.25754610693E+03  0.25961603926E+03  0.00000000000E+00 0.  1.
        -13    1    4    4    0    0  0.15980062783E+02  0.51193907487E+02 -0.23276858199E+03  0.23886689041E+03  0.00000000000E+00 0. -1.
         13    1    4    4    0    0  0.50205078971E+02  0.33197473540E+02 -0.54805626924E+02  0.81401959107E+02  0.00000000000E+00 0.  1.
          2    1    1    2  501    0 -0.27814396605E+02 -0.11789924544E+02 -0.74897087441E+01  0.31124567729E+02  0.00000000000E+00 0. -1.
<scales pt_clust_5="13000.00000" pt_clust_6="13000.00000" pt_clust_7="13000.00000" pt_clust_8="13000.00000" pt_clust_9="30.20998"></scales>
<clustering>
<clus scale="   30.210">  1  9  2 -1</clus>
<clus scale="   85.187">  5  6 -1 -1</clus>
<clus scale="   91.492">  7  8 -1 -1</clus>
<clus scale="  124.585">  2  5  1 -1</clus>
<clus scale="   30.210">  1  5  2 -1</clus>
</clustering>
</event>
<event>
 9    1  0.1487426E-004  0.2851770E+03  0.7546771E-02  0.1093416E+00
         21   -1    0    0  501  502  0.00000000000E+00  0.00000000000E+00  0.17776684940E+03  0.17776684940E+03  0.00000000000E+00 0. -1.
          1   -1    0    0  502    0 -0.00000000000E+00 -0.00000000000E+00 -0.16391431839E+04  0.16391431839E+04  0.00000000000E+00 0. -1.
         23    2    1    2    0    0  0.26777718254E+03  0.76285923979E+02 -0.14600596337E+04  0.14892664231E+04  0.92823398622E+02 0.  0.
        -24    2    1    2    0    0 -0.17908155272E+03 -0.49118894231E+02  0.66327192051E+02  0.21283656126E+03  0.80107659471E+02 0.  0.
         11    1    4    4    0    0 -0.11239712584E+03 -0.15614661824E+02  0.77444760795E+02  0.13738494290E+03  0.00000000000E+00 0. -1.
        -12    1    4    4    0    0 -0.66684426885E+02 -0.33504232407E+02 -0.11117568744E+02  0.75451618359E+02  0.00000000000E+00 0.  1.
        -11    1    3    3    0    0  0.20182175036E+03  0.28043022438E+02 -0.11825320082E+04  0.11999584912E+04  0.00000000000E+00 0. -1.
         11    1    3    3    0    0  0.65955432179E+02  0.48242901541E+02 -0.27752762543E+03  0.28930793190E+03  0.00000000000E+00 0.  1.
          2    1    1    2  501    0 -0.88695629817E+02 -0.27167029748E+02 -0.67643892939E+02  0.11480704903E+03  0.00000000000E+00 0. -1.
<scales pt_clust_5="13000.00000" pt_clust_6="13000.00000" pt_clust_7="13000.00000" pt_clust_8="13000.00000" pt_clust_9="92.76294"></scales>
<clustering>
<clus scale="   80.108">  5  6 -1 -1</clus>
<clus scale="   92.763">  1  9  2 -1</clus>
<clus scale="   92.823">  7  8 -1 -1</clus>
<clus scale="  281.295">  1  5  2 -1</clus>
<clus scale="   92.763">  1  5  2 -1</clus>
</clustering>
</event>
<event>
 9    1  0.1487426E-004  0.1324244E+03  0.7546771E-02  0.1240343E+00
         21   -1    0    0  501  502  0.00000000000E+00  0.00000000000E+00  0.13504921495E+03  0.13504921495E+03  0.00000000000E+00 0. -1.
          1   -1    0    0  502    0 -0.00000000000E+00 -0.00000000000E+00 -0.39041480976E+03  0.39041480976E+03  0.00000000000E+00 0. -1.
         23    2    1    2    0    0 -0.44728540939E+02  0.13264778758E+02 -0.32753259251E+03  0.35273920839E+03  0.12235502953E+03 0.  0.
        -24    2    1    2    0    0  0.63236268931E+02 -0.29582812588E+02  0.10684518604E+02  0.10647597135E+03  0.79680643997E+02 0.  0.
         13    1    4    4    0    0  0.57440914004E+02 -0.30633455073E+02 -0.25426118113E+02  0.69888158179E+02  0.00000000000E+00 0. -1.
        -14    1    4    4    0    0  0.57953549271E+01  0.10506424849E+01  0.36110636717E+02  0.36587813169E+02  0.00000000000E+00 0.  1.
        -11    1    3    3    0    0  0.33065432039E+02 -0.21575702690E+01 -0.29598902846E+02  0.44430540792E+02  0.00000000000E+00 0.  1.
         11    1    3    3    0    0 -0.77793972978E+02  0.15422349027E+02 -0.29793368966E+03  0.30830866760E+03  0.00000000000E+00 0. -1.
          2    1    1    2  501    0 -0.18507727993E+02  0.16318033830E+02  0.61482479094E+02  0.66248844964E+02  0.00000000000E+00 0. -1.
<scales pt_clust_5="13000.00000" pt_clust_6="13000.00000" pt_clust_7="13000.00000" pt_clust_8="13000.00000" pt_clust_9="24.67416"></scales>
<clustering>
<clus scale="   24.674">  1  9  2 -1</clus>
<clus scale="   79.681">  5  6 -1 -1</clus>
<clus scale="   94.416">  1  5  2 -1</clus>
<clus scale="  122.355">  7  8 -1 -1</clus>
<clus scale="   24.674">  1  5  2 -1</clus>
</clustering>
</event>
<event>
 9    1  0.1487426E-004  0.2167709E+03  0.7546771E-02  0.1162989E+00
          1   -1    0    0  502    0 -0.00000000000E+00  0.00000000000E+00  0.57248146468E+03  0.57248146468E+03  0.00000000000E+00 0. -1.
         21   -1    0    0  501  502  0.00000000000E+00 -0.00000000000E+00 -0.48676780601E+03  0.48676780601E+03  0.00000000000E+00 0. -1.
         23    2    1    2    0    0 -0.11933528729E+02 -0.67657307164E+02 -0.74014851060E+02  0.13689199948E+03  0.92419159398E+02 0.  0.
        -24    2    1    2    0    0  0.12619376168E+02  0.26636221940E+03  0.47466119024E+03  0.54997748419E+03  0.77871092304E+02 0.  0.
         11    1    4    4    0    0 -0.13979610110E+02  0.23398400519E+03  0.38036573281E+03  0.44679081781E+03  0.00000000000E+00 0. -1.
        -12    1    4    4    0    0  0.26598986278E+02  0.32378214210E+02  0.94295457433E+02  0.10318666638E+03  0.00000000000E+00 0.  1.
        -13    1    3    3    0    0  0.21341080200E+02 -0.51782590215E+02 -0.81872332913E+02  0.99196558660E+02  0.00000000000E+00 0.  1.
         13    1    3    3    0    0 -0.33274608929E+02 -0.15874716949E+02  0.78574818524E+01  0.37695440820E+02  0.00000000000E+00 0. -1.
          2    1    1    2  501    0 -0.68584743891E+00 -0.19870491223E+03 -0.31493268050E+03  0.37237978702E+03  0.00000000000E+00 0. -1.
<scales pt_clust_5="13000.00000" pt_clust_6="13000.00000" pt_clust_7="13000.00000" pt_clust_8="13000.00000" pt_clust_9="202.30109"></scales>
<clustering>
<clus scale="   77.871">  5  6 -1 -1</clus>
<clus scale="   92.419">  7  8 -1 -1</clus>
<clus scale="  115.157">  1  7  2 -1</clus>
<clus scale="  202.301">  2  9  1 -1</clus>
<clus scale="  202.301">  2  5  1 -1</clus>
</clustering>
</event>
<event>
 9    1  0.1487426E-004  0.2636872E+03  0.7546771E-02  0.1105348E+00
         21   -1    0    0  501  502  0.00000000000E+00  0.00000000000E+00  0.19475979632E+03  0.19475979632E+03  0.00000000000E+00 0.  1.
          1   -1    0    0  502    0 -0.00000000000E+00 -0.00000000000E+00 -0.53897614668E+03  0.53897614668E+03  0.00000000000E+00 0. -1.
         23    2    1    2    0    0 -0.11463818836E+03  0.22863377853E+03 -0.29506613771E+03  0.40113060226E+03  0.91795509320E+02 0.  0.
        -24    2    1    2    0    0  0.37518721106E+02 -0.23430285218E+03 -0.37529125517E+02  0.25440943105E+03  0.83727190152E+02 0.  0.
         13    1    4    4    0    0  0.43463763673E+02 -0.15160978060E+03  0.11422312328E+02  0.15812998939E+03  0.00000000000E+00 0. -1.
        -14    1    4    4    0    0 -0.59450425676E+01 -0.82693071586E+02 -0.48951437845E+02  0.96279441661E+02  0.00000000000E+00 0.  1.
        -13    1    3    3    0    0 -0.38006651895E+02  0.72442538929E+02 -0.36732928863E+02  0.89675721896E+02  0.00000000000E+00 0.  1.
         13    1    3    3    0    0 -0.76631536466E+02  0.15619123960E+03 -0.25833320885E+03  0.31145488036E+03  0.00000000000E+00 0. -1.
          2    1    1    2  501    0  0.77119467256E+02  0.56690736554E+01 -0.11621087139E+02  0.78195909690E+02  0.00000000000E+00 0. -1.
<scales pt_clust_5="13000.00000" pt_clust_6="13000.00000" pt_clust_7="13000.00000" pt_clust_8="13000.00000" pt_clust_9="77.32755"></scales>
<clustering>
<clus scale="   77.328">  1  9  2 -1</clus>
<clus scale="   83.727">  5  6 -1 -1</clus>
<clus scale="   91.796">  7  8 -1 -1</clus>
<clus scale="  260.988">  1  5  2 -1</clus>
<clus scale="   77.328">  1  5  2 -1</clus>
</clustering>
</event>
<event>
 9    1  0.1487426E-004  0.9493444E+02  0.7546771E-02  0.1296064E+00
         21   -1    0    0  501  502  0.00000000000E+00  0.00000000000E+00  0.60982333430E+02  0.60982333430E+02  0.00000000000E+00 0.  1.
         -2   -1    0    0    0  501 -0.00000000000E+00 -0.00000000000E+00 -0.57828273527E+03  0.57828273527E+03  0.00000000000E+00 0.  1.
        -24    2    1    2    0    0 -0.15686322020E+02 -0.28202089826E+02 -0.48316585317E+03  0.49108031842E+03  0.81665285800E+02 0.  0.
         23    2    1    2    0    0 -0.29899482172E+02  0.18515573089E+02 -0.15544233336E+02  0.98010115504E+02  0.90152948205E+02 0.  0.
         13    1    3    3    0    0 -0.78464097545E+01 -0.25737186215E+02 -0.42265042541E+02  0.50102921285E+02  0.00000000000E+00 0. -1.
        -14    1    3    3    0    0 -0.78399122654E+01 -0.24649036116E+01 -0.44090081063E+03  0.44097739714E+03  0.00000000000E+00 0.  1.
        -11    1    4    4    0    0 -0.60511171277E+02  0.11637770130E+02 -0.22980952431E+02  0.65765976900E+02  0.00000000000E+00 0.  1.
         11    1    4    4    0    0  0.30611689105E+02  0.68778029589E+01  0.74367190951E+01  0.32244138604E+02  0.00000000000E+00 0. -1.
         -1    1    1    2    0  502  0.45585804192E+02  0.96865167372E+01 -0.18590315333E+02  0.50174634772E+02  0.00000000000E+00 0.  1.
<scales pt_clust_5="13000.00000" pt_clust_6="13000.00000" pt_clust_7="13000.00000" pt_clust_8="13000.00000" pt_clust_9="46.60359"></scales>
<clustering>
<clus scale="   46.604">  1  9  2 -1</clus>
<clus scale="   81.665">  5  6 -1 -1</clus>
<clus scale="   86.915">  2  5  1 -1</clus>
<clus scale="   90.153">  7  8 -1 -1</clus>
<clus scale="   46.604">  1  5  2 -1</clus>
</clustering>
</event>
<event>
 9    1  0.1487426E-004  0.3204829E+03  0.7546771E-02  0.1075427E+00
         21   -1    0    0  501  502  0.00000000000E+00  0.00000000000E+00  0.62081297082E+02  0.62081297082E+02  0.00000000000E+00 0. -1.
          1   -1    0    0  502    0 -0.00000000000E+00 -0.00000000000E+00 -0.14579714492E+04  0.14579714492E+04  0.00000000000E+00 0. -1.
        -24    2    1    2    0    0 -0.19179744906E+03  0.58597110286E+02 -0.80651053289E+03  0.83496413890E+03  0.80535649177E+02 0.  0.
         23    2    1    2    0    0 -0.12569451208E+02  0.46062026832E+02 -0.29225350288E+03  0.30958455423E+03  0.90281697221E+02 0.  0.
         13    1    3    3    0    0 -0.17879973087E+03  0.73611093876E+02 -0.68203362207E+03  0.70891311071E+03  0.00000000000E+00 0. -1.
        -14    1    3    3    0    0 -0.12997718198E+02 -0.15013983590E+02 -0.12447691081E+03  0.12605102819E+03  0.00000000000E+00 0.  1.
        -13    1    4    4    0    0 -0.17515877878E+02  0.71594396161E+02 -0.24235863323E+03  0.25331851618E+03  0.00000000000E+00 0.  1.
         13    1    4    4    0    0  0.49464266699E+01 -0.25532369329E+02 -0.49894869651E+02  0.56266038050E+02  0.00000000000E+00 0. -1.
          2    1    1    2  501    0  0.20436690027E+03 -0.10465913712E+03 -0.29712611631E+03  0.37550405311E+03  0.00000000000E+00 0. -1.
<scales pt_clust_5="13000.00000" pt_clust_6="13000.00000" pt_clust_7="13000.00000" pt_clust_8="13000.00000" pt_clust_9="229.60698"></scales>
<clustering>
<clus scale="   80.536">  5  6 -1 -1</clus>
<clus scale="   90.282">  7  8 -1 -1</clus>
<clus scale="  101.435">  5  7 -1 -1</clus>
<clus scale="  229.607">  1  9  2 -1</clus>
<clus scale="  229.607">  1  5  2 -1</clus>
</clustering>
</event>
<event>
 9    1  0.1487426E-004  0.1463128E+03  0.7546771E-02  0.1207125E+00
         21   -1    0    0  501  502  0.00000000000E+00  0.00000000000E+00  0.82767130798E+03  0.82767130798E+03  0.00000000000E+00 0. -1.
         -2   -1    0    0    0  501 -0.00000000000E+00 -0.00000000000E+00 -0.37511030184E+02  0.37511030184E+02  0.00000000000E+00 0.  1.
        -24    2    1    2    0    0 -0.41034160909E+01 -0.94706471775E+02  0.24505519793E+03  0.27499706586E+03  0.81149136662E+02 0.  0.
         23    2    1    2    0    0  0.20972992989E+02  0.13928295492E+03  0.33535394490E+03  0.37508719213E+03  0.91588893275E+02 0.  0.
         11    1    3    3    0    0  0.38187390890E+01 -0.40081806367E+02  0.19922920676E+03  0.20325700676E+03  0.00000000000E+00 0. -1.
        -12    1    3    3    0    0 -0.79221551798E+01 -0.54624665408E+02  0.45825991168E+02  0.71740059104E+02  0.00000000000E+00 0.  1.
        -11    1    4    4    0    0 -0.20416856473E+02  0.93820012822E+01  0.10529101068E+03  0.10766181731E+03  0.00000000000E+00 0.  1.
         11    1    4    4    0    0  0.41389849462E+02  0.12990095364E+03  0.23006293423E+03  0.26742537482E+03  0.00000000000E+00 0. -1.
         -1    1    1    2    0  502 -0.16869576898E+02 -0.44576483148E+02  0.20975113496E+03  0.21509808017E+03  0.00000000000E+00 0.  1.
<scales pt_clust_5="13000.00000" pt_clust_6="13000.00000" pt_clust_7="13000.00000" pt_clust_8="13000.00000" pt_clust_9="47.66178"></scales>
<clustering>
<clus scale="   47.662">  1  9  2 -1</clus>
<clus scale="   81.149">  5  6 -1 -1</clus>
<clus scale="   91.589">  7  8 -1 -1</clus>
<clus scale="  140.015">  2  5  1 -1</clus>
<clus scale="   47.662">  1  5  2 -1</clus>
</clustering>
</event>
<event>
 9    1  0.1487426E-004  0.1268905E+03  0.7546771E-02  0.1234108E+00
         -2   -1    0    0    0  501 -0.00000000000E+00  0.00000000000E+00  0.54052365925E+03  0.54052365925E+03  0.00000000000E+00 0.  1.
         21   -1    0    0  501  502  0.00000000000E+00 -0.00000000000E+00 -0.14390547785E+03  0.14390547785E+03  0.00000000000E+00 0. -1.
        -24    2    1    2    0    0 -0.40734698227E+02 -0.77258823818E+02  0.48948254423E+03  0.50443603913E+03  0.85054776267E+02 0.  0.
         23    2    1    2    0    0  0.18653442362E+02  0.87706819582E+02 -0.69211234062E+02  0.14598996611E+03  0.92100152933E+02 0.  0.
         13    1    3    3    0    0 -0.19219843275E+02 -0.73307290607E+02  0.19602915747E+03  0.21016848434E+03  0.00000000000E+00 0. -1.
        -14    1    3    3    0    0 -0.21514854952E+02 -0.39515332111E+01  0.29345338676E+03  0.29426755479E+03  0.00000000000E+00 0.  1.
        -13    1    4    4    0    0 -0.28190073720E+02  0.64840839915E+02 -0.60675284153E+02  0.93169227132E+02  0.00000000000E+00 0. -1.
         13    1    4    4    0    0  0.46843516081E+02  0.22865979667E+02 -0.85359499084E+01  0.52820738975E+02  0.00000000000E+00 0.  1.
         -1    1    1    2    0  502  0.22081255865E+02 -0.10447995764E+02 -0.23653128767E+02  0.34003131864E+02  0.00000000000E+00 0.  1.
<scales pt_clust_5="13000.00000" pt_clust_6="13000.00000" pt_clust_7="13000.00000" pt_clust_8="13000.00000" pt_clust_9="24.42831"></scales>
<clustering>
<clus scale="   24.428">  2  9  1 -1</clus>
<clus scale="   85.055">  5  6 -1 -1</clus>
<clus scale="   92.100">  7  8 -1 -1</clus>
<clus scale="  121.873">  1  5  2 -1</clus>
<clus scale="   24.428">  2  5  1 -1</clus>
</clustering>
</event>
<event>
 9    1  0.1487426E-004  0.1320545E+03  0.7546771E-02  0.1230004E+00
         21   -1    0    0  501  502  0.00000000000E+00  0.00000000000E+00  0.45301985055E+02  0.45301985055E+02  0.00000000000E+00 0. -1.
          1   -1    0    0  502    0 -0.00000000000E+00 -0.00000000000E+00 -0.10220901380E+04  0.10220901380E+04  0.00000000000E+00 0. -1.
         23    2    1    2    0    0 -0.27940042579E+02  0.68882674625E+02 -0.59698767207E+03  0.60847115709E+03  0.91199778293E+02 0.  0.
        -24    2    1    2    0    0  0.80315139355E+02  0.50353695874E+02 -0.15106119258E+03  0.19570598762E+03  0.80593631199E+02 0.  0.
         11    1    4    4    0    0  0.82369952133E+02  0.10513543050E+02 -0.11558172180E+03  0.14231822798E+03  0.00000000000E+00 0. -1.
        -12    1    4    4    0    0 -0.20548127779E+01  0.39840152824E+02 -0.35479470783E+02  0.53387759642E+02  0.00000000000E+00 0.  1.
        -13    1    3    3    0    0  0.33134561680E+02  0.32623831343E+02 -0.22239149392E+03  0.22720077051E+03  0.00000000000E+00 0.  1.
         13    1    3    3    0    0 -0.61074604259E+02  0.36258843283E+02 -0.37459617814E+03  0.38127038658E+03  0.00000000000E+00 0. -1.
          2    1    1    2  501    0 -0.52375096776E+02 -0.11923637050E+03 -0.22873928825E+03  0.26321497830E+03  0.00000000000E+00 0. -1.
<scales pt_clust_5="13000.00000" pt_clust_6="13000.00000" pt_clust_7="13000.00000" pt_clust_8="13000.00000" pt_clust_9="104.60912"></scales>
<clustering>
<clus scale="   80.594">  5  6 -1 -1</clus>
<clus scale="   91.200">  7  8 -1 -1</clus>
<clus scale="  117.656">  2  7  1 -1</clus>
<clus scale="  104.609">  1  9  2 -1</clus>
<clus scale="  104.609">  1  5  2 -1</clus>
</clustering>
</event>
<event>
 9    1  0.1487426E-004  0.1463159E+03  0.7546771E-02  0.1222734E+00
         -4   -1    0    0    0  501 -0.00000000000E+00  0.00000000000E+00  0.62056183727E+02  0.62056183727E+02  0.00000000000E+00 0.  1.
         21   -1    0    0  501  502  0.00000000000E+00 -0.00000000000E+00 -0.73021619664E+03  0.73021619664E+03  0.00000000000E+00 0.  1.
        -24    2    1    2    0    0 -0.16843389745E+02 -0.60997117478E+02 -0.11489525028E+03  0.15271133863E+03  0.78201574742E+02 0.  0.
         23    2    1    2    0    0 -0.44743327565E+02  0.14333719024E+03 -0.18533281337E+03  0.25753129077E+03  0.97090671788E+02 0.  0.
         11    1    3    3    0    0 -0.45401574164E+01 -0.64786098895E+02 -0.12185170361E+03  0.13807856210E+03  0.00000000000E+00 0. -1.
        -12    1    3    3    0    0 -0.12303232328E+02  0.37889814173E+01  0.69564533363E+01  0.14632776528E+02  0.00000000000E+00 0.  1.
        -11    1    4    4    0    0 -0.66333122533E+02  0.57298051917E+02 -0.11338298804E+03  0.14331382304E+03  0.00000000000E+00 0.  1.
         11    1    4    4    0    0  0.21589794967E+02  0.86039138318E+02 -0.71949825336E+02  0.11421746773E+03  0.00000000000E+00 0. -1.
         -3    1    1    2    0  502  0.61586717310E+02 -0.82340072757E+02 -0.36793194927E+03  0.38202975096E+03  0.00000000000E+00 0.  1.
<scales pt_clust_5="13000.00000" pt_clust_6="13000.00000" pt_clust_7="13000.00000" pt_clust_8="13000.00000" pt_clust_9="109.46122"></scales>
<clustering>
<clus scale="   78.202">  5  6 -1 -1</clus>
<clus scale="   97.091">  7  8 -1 -1</clus>
<clus scale="  100.597">  1  5  2 -1</clus>
<clus scale="  109.461">  2  9  1 -1</clus>
<clus scale="  109.461">  2  5  1 -1</clus>
</clustering>
</event>
<event>
 9    1  0.1487426E-004  0.9969820E+02  0.7546771E-02  0.1286398E+00
          1   -1    0    0  502    0 -0.00000000000E+00  0.00000000000E+00  0.26031672451E+03  0.26031672451E+03  0.00000000000E+00 0. -1.
         21   -1    0    0  501  502  0.00000000000E+00 -0.00000000000E+00 -0.63889462692E+02  0.63889462692E+02  0.00000000000E+00 0. -1.
         23    2    1    2    0    0  0.10092421906E+02 -0.47399727048E+02  0.16004858588E+03  0.19025490991E+03  0.90734722131E+02 0.  0.
        -24    2    1    2    0    0 -0.26353835033E+02  0.22457000436E+02  0.50900977421E+02  0.10082318636E+03  0.79847128418E+02 0.  0.
         11    1    4    4    0    0 -0.51883003244E+02  0.84049590877E+01  0.15148182481E+02  0.54698782394E+02  0.00000000000E+00 0. -1.
        -12    1    4    4    0    0  0.25529168211E+02  0.14052041348E+02  0.35752794940E+02  0.46124403970E+02  0.00000000000E+00 0.  1.
        -11    1    3    3    0    0  0.94702765302E+01 -0.74710571891E+02  0.12300984723E+03  0.14423168239E+03  0.00000000000E+00 0. -1.
         11    1    3    3    0    0  0.62214537588E+00  0.27310844843E+02  0.37038738653E+02  0.46023227526E+02  0.00000000000E+00 0.  1.
          2    1    1    2  501    0  0.16261413127E+02  0.24942726612E+02 -0.14522301485E+02  0.33128090922E+02  0.00000000000E+00 0. -1.
<scales pt_clust_5="13000.00000" pt_clust_6="13000.00000" pt_clust_7="13000.00000" pt_clust_8="13000.00000" pt_clust_9="29.77538"></scales>
<clustering>
<clus scale="   29.775">  2  9  1 -1</clus>
<clus scale="   79.847">  5  6 -1 -1</clus>
<clus scale="   89.903">  2  5  1 -1</clus>
<clus scale="   90.735">  7  8 -1 -1</clus>
<clus scale="   29.775">  2  5  1 -1</clus>
</clustering>
</event>
<event>
 9    1  0.1487426E-004  0.2169359E+03  0.7546771E-02  0.1158071E+00
          1   -1    0    0  502    0 -0.00000000000E+00  0.00000000000E+00  0.39864121880E+03  0.39864121880E+03  0.00000000000E+00 0. -1.
         21   -1    0    0  501  502  0.00000000000E+00 -0.00000000000E+00 -0.19812951084E+03  0.19812951084E+03  0.00000000000E+00 0. -1.
        -24    2    1    2    0    0 -0.23067723748E+02 -0.97375179920E+02  0.88316534736E+02  0.15618644760E+03  0.81119359984E+02 0.  0.
         23    2    1    2    0    0 -0.14522274134E+03  0.17035700997E+03  0.47543120588E+02  0.24609028196E+03  0.90492668825E+02 0.  0.
         11    1    3    3    0    0 -0.36799985206E+02 -0.97552872795E+02  0.94874146777E+02  0.14096774677E+03  0.00000000000E+00 0. -1.
        -12    1    3    3    0    0  0.13732261458E+02  0.17769287468E+00 -0.65576120416E+01  0.15218700838E+02  0.00000000000E+00 0.  1.
        -13    1    4    4    0    0 -0.56752883764E+02  0.11269257338E+02 -0.35320915759E+00  0.57861997315E+02  0.00000000000E+00 0.  1.
         13    1    4    4    0    0 -0.88469857577E+02  0.15908775263E+03  0.47896329745E+02  0.18822828465E+03  0.00000000000E+00 0. -1.
          2    1    1    2  501    0  0.16829046509E+03 -0.72981830051E+02  0.64652052638E+02  0.19449400008E+03  0.00000000000E+00 0. -1.
<scales pt_clust_5="13000.00000" pt_clust_6="13000.00000" pt_clust_7="13000.00000" pt_clust_8="13000.00000" pt_clust_9="197.16051"></scales>
<clustering>
<clus scale="   81.119">  5  6 -1 -1</clus>
<clus scale="   90.493">  7  8 -1 -1</clus>
<clus scale="  128.819">  1  5  2 -1</clus>
<clus scale="  197.161">  2  9  1 -1</clus>
<clus scale="  197.161">  2  5  1 -1</clus>
</clustering>
</event>
<event>
 9    1  0.1487426E-004  0.1719670E+03  0.7546771E-02  0.1177820E+00
         -4   -1    0    0    0  501 -0.00000000000E+00  0.00000000000E+00  0.23799292213E+03  0.23799292213E+03  0.00000000000E+00 0.  1.
         21   -1    0    0  501  502  0.00000000000E+00 -0.00000000000E+00 -0.23415328931E+03  0.23415328931E+03  0.00000000000E+00 0. -1.
         23    2    1    2    0    0  0.11505370023E+03  0.10293131434E+03  0.15047699742E+03  0.23466366624E+03  0.92690345213E+02 0.  0.
        -24    2    1    2    0    0 -0.67717326355E+02 -0.90485097580E+02 -0.11715648236E+03  0.18034444040E+03  0.77622719931E+02 0.  0.
         11    1    4    4    0    0  0.81015414112E+01 -0.48718962663E+02 -0.31573673963E+02  0.58617993686E+02  0.00000000000E+00 0. -1.
        -12    1    4    4    0    0 -0.75818867766E+02 -0.41766134917E+02 -0.85582808400E+02  0.12172644671E+03  0.00000000000E+00 0.  1.
        -11    1    3    3    0    0  0.27505303180E+02  0.66771790206E+02  0.22883820361E+02  0.75754094970E+02  0.00000000000E+00 0. -1.
         11    1    3    3    0    0  0.87548397046E+02  0.36159524131E+02  0.12759317706E+03  0.15890957127E+03  0.00000000000E+00 0.  1.
         -3    1    1    2    0  502 -0.47336373871E+02 -0.12446216757E+02 -0.29480882240E+02  0.57138104804E+02  0.00000000000E+00 0.  1.
<scales pt_clust_5="13000.00000" pt_clust_6="13000.00000" pt_clust_7="13000.00000" pt_clust_8="13000.00000" pt_clust_9="48.94528"></scales>
<clustering>
<clus scale="   48.945">  2  9  1 -1</clus>
<clus scale="   77.623">  5  6 -1 -1</clus>
<clus scale="   92.690">  7  8 -1 -1</clus>
<clus scale="  164.336">  2  5  1 -1</clus>
<clus scale="   48.945">  2  5  1 -1</clus>
</clustering>
</event>
<event>
 9    1  0.1487426E-004  0.3087955E+03  0.7546771E-02  0.1118071E+00
         21   -1    0    0  501  502  0.00000000000E+00  0.00000000000E+00  0.31038406871E+03  0.31038406871E+03  0.00000000000E+00 0.  1.
          3   -1    0    0  502    0 -0.00000000000E+00 -0.00000000000E+00 -0.48019086369E+03  0.48019086369E+03  0.00000000000E+00 0. -1.
        -24    2    1    2    0    0  0.69687441309E+02 -0.52057149489E+02 -0.10771696773E+03  0.15950785115E+03  0.79205575255E+02 0.  0.
         23    2    1    2    0    0 -0.77199157156E+02 -0.26062751985E+03 -0.12416286536E+03  0.31219219924E+03  0.90339017937E+02 0.  0.
         11    1    3    3    0    0 -0.88782154680E+01 -0.18813094116E+02 -0.56017189744E+02  0.59755173558E+02  0.00000000000E+00 0. -1.
        -12    1    3    3    0    0  0.78565656777E+02 -0.33244055373E+02 -0.51699777988E+02  0.99752677590E+02  0.00000000000E+00 0.  1.
        -13    1    4    4    0    0  0.42131431675E+01 -0.13179834789E+03 -0.76822354002E+02  0.15261136640E+03  0.00000000000E+00 0. -1.
         13    1    4    4    0    0 -0.81412300324E+02 -0.12882917196E+03 -0.47340511361E+02  0.15958083284E+03  0.00000000000E+00 0.  1.
          4    1    1    2  501    0  0.75117158474E+01  0.31268466934E+03  0.62073038114E+02  0.31887488201E+03  0.00000000000E+00 0. -1.
<scales pt_clust_5="13000.00000" pt_clust_6="13000.00000" pt_clust_7="13000.00000" pt_clust_8="13000.00000" pt_clust_9="295.28549"></scales>
<clustering>
<clus scale="   79.206">  5  6 -1 -1</clus>
<clus scale="   90.339">  7  8 -1 -1</clus>
<clus scale="  117.643">  2  5  1 -1</clus>
<clus scale="  295.285">  1  9  2 -1</clus>
<clus scale="  295.285">  1  5  2 -1</clus>
</clustering>
</event>
<event>
 9    1  0.1487426E-004  0.2410974E+03  0.7546771E-02  0.1160342E+00
          1   -1    0    0  502    0 -0.00000000000E+00  0.00000000000E+00  0.15344258910E+03  0.15344258910E+03  0.00000000000E+00 0. -1.
         21   -1    0    0  501  502  0.00000000000E+00 -0.00000000000E+00 -0.65830293012E+03  0.65830293012E+03  0.00000000000E+00 0. -1.
        -24    2    1    2    0    0  0.27748469785E+02  0.32284549530E+02 -0.10798064330E+01  0.89009551540E+02  0.78161784586E+02 0.  0.
         23    2    1    2    0    0 -0.22694907153E+03 -0.11177497526E+03 -0.14409070686E+03  0.30395633626E+03  0.87337256592E+02 0.  0.
         13    1    3    3    0    0  0.52831209611E+02  0.10715322164E+02 -0.98178002893E+01  0.54793649638E+02  0.00000000000E+00 0. -1.
        -14    1    3    3    0    0 -0.25082739826E+02  0.21569227366E+02  0.87379938562E+01  0.34215901902E+02  0.00000000000E+00 0.  1.
        -11    1    4    4    0    0 -0.24918495904E+02  0.14485233244E+02 -0.21968275109E+02  0.36240288789E+02  0.00000000000E+00 0.  1.
         11    1    4    4    0    0 -0.20203057562E+03 -0.12626020850E+03 -0.12212243175E+03  0.26771604747E+03  0.00000000000E+00 0. -1.
          2    1    1    2  501    0  0.19920060174E+03  0.79490425725E+02 -0.35968982772E+03  0.41877963141E+03  0.00000000000E+00 0. -1.
<scales pt_clust_5="13000.00000" pt_clust_6="13000.00000" pt_clust_7="13000.00000" pt_clust_8="13000.00000" pt_clust_9="224.72245"></scales>
<clustering>
<clus scale="   78.162">  5  6 -1 -1</clus>
<clus scale="   87.337">  7  8 -1 -1</clus>
<clus scale="   89.003">  1  5  2 -1</clus>
<clus scale="  224.722">  2  9  1 -1</clus>
<clus scale="  224.722">  2  5  1 -1</clus>
</clustering>
</event>
<event>
 9    1  0.1487426E-004  0.1353479E+03  0.7546771E-02  0.1221549E+00
          1   -1    0    0  502    0 -0.00000000000E+00  0.00000000000E+00  0.48841206254E+03  0.48841206254E+03  0.00000000000E+00 0. -1.
         21   -1    0    0  501  502  0.00000000000E+00 -0.00000000000E+00 -0.11675226742E+03  0.11675226742E+03  0.00000000000E+00 0.  1.
        -24    2    1    2    0    0  0.43319027202E+02  0.93241298503E+02 -0.19521732141E+02  0.13173451041E+03  0.80015031984E+02 0.  0.
         23    2    1    2    0    0  0.80306714650E+02 -0.46823699089E+02  0.15712738693E+03  0.20469340932E+03  0.92567536848E+02 0.  0.
         11    1    3    3    0    0 -0.21767193989E+02  0.23210579638E+02 -0.17041116345E+02  0.36096279415E+02  0.00000000000E+00 0. -1.
        -12    1    3    3    0    0  0.65086221191E+02  0.70030718864E+02 -0.24806157954E+01  0.95638230997E+02  0.00000000000E+00 0.  1.
        -11    1    4    4    0    0  0.21758128764E+02 -0.65132487421E+02  0.96547298251E+02  0.11847800591E+03  0.00000000000E+00 0.  1.
         11    1    4    4    0    0  0.58548585886E+02  0.18308788332E+02  0.60580088683E+02  0.86215403405E+02  0.00000000000E+00 0. -1.
          2    1    1    2  501    0 -0.12362574185E+03 -0.46417599414E+02  0.23405414032E+03  0.26873641023E+03  0.00000000000E+00 0. -1.
<scales pt_clust_5="13000.00000" pt_clust_6="13000.00000" pt_clust_7="13000.00000" pt_clust_8="13000.00000" pt_clust_9="98.74371"></scales>
<clustering>
<clus scale="   80.015">  5  6 -1 -1</clus>
<clus scale="   92.568">  7  8 -1 -1</clus>
<clus scale="  130.280">  1  5  2 -1</clus>
<clus scale="   98.744">  2  9  1 -1</clus>
<clus scale="   98.744">  2  5  1 -1</clus>
</clustering>
</event>
<event>
 9    1  0.1487426E-004  0.1505889E+03  0.7546771E-02  0.1220016E+00
         -2   -1    0    0    0  501 -0.00000000000E+00  0.00000000000E+00  0.15511566194E+03  0.15511566194E+03  0.00000000000E+00 0.  1.
         21   -1    0    0  501  502  0.00000000000E+00 -0.00000000000E+00 -0.33809564716E+03  0.33809564716E+03  0.00000000000E+00 0.  1.
        -24    2    1    2    0    0  0.12194422200E+02  0.55713600495E+02  0.65162264159E+02  0.11742187891E+03  0.79303642817E+02 0.  0.
         23    2    1    2    0    0 -0.12091892420E+03 -0.62815683432E+02 -0.19619988267E+03  0.25508538561E+03  0.89481638762E+02 0.  0.
         11    1    3    3    0    0 -0.22664265890E+02  0.58095225558E+02  0.46672419945E+02  0.77891199532E+02  0.00000000000E+00 0. -1.
        -12    1    3    3    0    0  0.34858688089E+02 -0.23816250631E+01  0.18489844214E+02  0.39530679381E+02  0.00000000000E+00 0.  1.
        -13    1    4    4    0    0 -0.10150591410E+03 -0.75018320024E+02 -0.19479507627E+03  0.23211273269E+03  0.00000000000E+00 0. -1.
         13    1    4    4    0    0 -0.19413010106E+02  0.12202636592E+02 -0.14048063980E+01  0.22972652920E+02  0.00000000000E+00 0.  1.
         -1    1    1    2    0  502  0.10872450200E+03  0.71020829372E+01 -0.51942366712E+02  0.12070404458E+03  0.00000000000E+00 0.  1.
<scales pt_clust_5="13000.00000" pt_clust_6="13000.00000" pt_clust_7="13000.00000" pt_clust_8="13000.00000" pt_clust_9="121.12002"></scales>
<clustering>
<clus scale="   79.304">  5  6 -1 -1</clus>
<clus scale="   89.482">  7  8 -1 -1</clus>
<clus scale="   97.682">  1  5  2 -1</clus>
<clus scale="  121.120">  2  9  1 -1</clus>
<clus scale="  121.120">  2  5  1 -1</clus>
</clustering>
</event>
<event>
 9    1  0.1487426E-004  0.9965181E+02  0.7546771E-02  0.1286799E+00
         -2   -1    0    0    0  501 -0.00000000000E+00  0.00000000000E+00  0.53259228495E+03  0.53259228495E+03  0.00000000000E+00 0.  1.
         21   -1    0    0  501  502  0.00000000000E+00 -0.00000000000E+00 -0.27350857764E+02  0.27350857764E+02  0.00000000000E+00 0. -1.
         23    2    1    2    0    0  0.26133845884E+01 -0.40381919552E+02  0.35290963470E+03  0.36681839234E+03  0.91504062702E+02 0.  0.
        -24    2    1    2    0    0 -0.28269711799E+02  0.32741745849E+02  0.10743862701E+03  0.14085606293E+03  0.80163416622E+02 0.  0.
         13    1    4    4    0    0 -0.32634925605E+02  0.59100659700E+01  0.34173845217E+01  0.33341352192E+02  0.00000000000E+00 0. -1.
        -14    1    4    4    0    0  0.43652138064E+01  0.26831679879E+02  0.10402124249E+03  0.10751471074E+03  0.00000000000E+00 0.  1.
        -13    1    3    3    0    0 -0.29422104007E+02 -0.55400476914E+02  0.18914994740E+03  0.19928014364E+03  0.00000000000E+00 0.  1.
         13    1    3    3    0    0  0.32035488595E+02  0.15018557362E+02  0.16375968730E+03  0.16753824871E+03  0.00000000000E+00 0. -1.
         -1    1    1    2    0  502  0.25656327210E+02  0.76401737029E+01  0.44893165472E+02  0.52268687435E+02  0.00000000000E+00 0.  1.
<scales pt_clust_5="13000.00000" pt_clust_6="13000.00000" pt_clust_7="13000.00000" pt_clust_8="13000.00000" pt_clust_9="26.76975"></scales>
<clustering>
<clus scale="   26.770">  2  9  1 -1</clus>
<clus scale="   80.163">  5  6 -1 -1</clus>
<clus scale="   89.351">  2  5  1 -1</clus>
<clus scale="   91.504">  7  8 -1 -1</clus>
<clus scale="   26.770">  2  5  1 -1</clus>
</clustering>
</event>
<event>
 9    1  0.1487426E-004  0.1620088E+03  0.7546771E-02  0.1209709E+00
         -4   -1    0    0    0  501 -0.00000000000E+00  0.00000000000E+00  0.77373886816E+02  0.77373886816E+02  0.00000000000E+00 0.  1.
         21   -1    0    0  501  502  0.00000000000E+00 -0.00000000000E+00 -0.63299481576E+03  0.63299481576E+03  0.00000000000E+00 0.  1.
        -24    2    1    2    0    0 -0.47266807129E+02 -0.18018939565E+02 -0.29535638008E+03  0.31105949776E+03  0.83449305860E+02 0.  0.
         23    2    1    2    0    0 -0.10677136632E+03 -0.25076339151E+02 -0.12043300400E+03  0.18685256721E+03  0.91546851218E+02 0.  0.
         13    1    3    3    0    0  0.13658554200E+02 -0.30420997748E+02 -0.74585226107E+02  0.81700362057E+02  0.00000000000E+00 0. -1.
        -14    1    3    3    0    0 -0.60925361328E+02  0.12402058183E+02 -0.22077115398E+03  0.22935913570E+03  0.00000000000E+00 0.  1.
        -13    1    4    4    0    0 -0.96355402387E+02  0.30362570967E+01 -0.12355032341E+03  0.15671076811E+03  0.00000000000E+00 0.  1.
         13    1    4    4    0    0 -0.10415963936E+02 -0.28112596248E+02  0.31173194120E+01  0.30141799098E+02  0.00000000000E+00 0. -1.
         -3    1    1    2    0  502  0.15403817345E+03  0.43095278716E+02 -0.13983154486E+03  0.21245663761E+03  0.00000000000E+00 0.  1.
<scales pt_clust_5="13000.00000" pt_clust_6="13000.00000" pt_clust_7="13000.00000" pt_clust_8="13000.00000" pt_clust_9="133.66390"></scales>
<clustering>
<clus scale="   83.449">  5  6 -1 -1</clus>
<clus scale="   91.547">  7  8 -1 -1</clus>
<clus scale="   97.584">  1  5  2 -1</clus>
<clus scale="  133.664">  2  9  1 -1</clus>
<clus scale="  133.664">  2  5  1 -1</clus>
</clustering>
</event>
<event>
 9    1  0.1487426E-004  0.2786609E+03  0.7546771E-02  0.1096423E+00
         21   -1    0    0  501  502  0.00000000000E+00  0.00000000000E+00  0.36679541570E+03  0.36679541570E+03  0.00000000000E+00 0. -1.
          1   -1    0    0  502    0 -0.00000000000E+00 -0.00000000000E+00 -0.15938207789E+03  0.15938207789E+03  0.00000000000E+00 0. -1.
        -24    2    1    2    0    0 -0.16007328292E+03  0.28175646660E+02  0.64592811117E+02  0.19132383899E+03  0.77558088869E+02 0.  0.
         23    2    1    2    0    0 -0.43218202375E+02 -0.54985963911E+01  0.44974797445E+02  0.10810387326E+03  0.88123024399E+02 0.  0.
         11    1    3    3    0    0 -0.15967721177E+03  0.10260134202E+02  0.66555848033E+02  0.17329674902E+03  0.00000000000E+00 0. -1.
        -12    1    3    3    0    0 -0.39607114923E+00  0.17915512458E+02 -0.19630369157E+01  0.18027089974E+02  0.00000000000E+00 0.  1.
        -11    1    4    4    0    0 -0.31763607363E+02  0.39793593670E+02  0.17147799306E+02  0.53726193527E+02  0.00000000000E+00 0.  1.
         11    1    4    4    0    0 -0.11454595012E+02 -0.45292190061E+02  0.27826998140E+02  0.54377679731E+02  0.00000000000E+00 0. -1.
          2    1    1    2  501    0  0.20329148530E+03 -0.22677050269E+02  0.97845729256E+02  0.22674978134E+03  0.00000000000E+00 0. -1.
<scales pt_clust_5="13000.00000" pt_clust_6="13000.00000" pt_clust_7="13000.00000" pt_clust_8="13000.00000" pt_clust_9="204.55238"></scales>
<clustering>
<clus scale="   77.558">  5  6 -1 -1</clus>
<clus scale="   88.123">  7  8 -1 -1</clus>
<clus scale="   89.269">  5  7 -1 -1</clus>
<clus scale="  204.552">  1  9  2 -1</clus>
<clus scale="  204.552">  1  5  2 -1</clus>
</clustering>
</event>
<event>
 9    1  0.1487426E-004  0.1494382E+03  0.7546771E-02  0.1220069E+00
         21   -1    0    0  501  502  0.00000000000E+00  0.00000000000E+00  0.33840127618E+03  0.33840127618E+03  0.00000000000E+00 0. -1.
          3   -1    0    0  502    0 -0.00000000000E+00 -0.00000000000E+00 -0.19545894000E+03  0.19545894000E+03  0.00000000000E+00 0. -1.
        -24    2    1    2    0    0  0.12619032440E+02 -0.56868055726E+02 -0.10311556670E+03  0.14353346164E+03  0.81091422316E+02 0.  0.
         23    2    1    2    0    0 -0.33940337608E+01 -0.76923769288E+02  0.91057696512E+01  0.11805544410E+03  0.89024643186E+02 0.  0.
         13    1    3    3    0    0 -0.27069983245E+02 -0.28493024484E+02 -0.80865799400E+02  0.89910588641E+02  0.00000000000E+00 0. -1.
        -14    1    3    3    0    0  0.39689015685E+02 -0.28375031242E+02 -0.22249767300E+02  0.53622873001E+02  0.00000000000E+00 0.  1.
        -11    1    4    4    0    0  0.21608208263E+02 -0.58359354514E+02  0.40169886065E+02  0.74069890442E+02  0.00000000000E+00 0.  1.
         11    1    4    4    0    0 -0.25002242024E+02 -0.18564414773E+02 -0.31064116413E+02  0.43985553659E+02  0.00000000000E+00 0. -1.
          4    1    1    2  501    0 -0.92249986796E+01  0.13379182501E+03  0.23695213323E+03  0.27227131043E+03  0.00000000000E+00 0. -1.
<scales pt_clust_5="13000.00000" pt_clust_6="13000.00000" pt_clust_7="13000.00000" pt_clust_8="13000.00000" pt_clust_9="120.02660"></scales>
<clustering>
<clus scale="   81.091">  5  6 -1 -1</clus>
<clus scale="   89.025">  7  8 -1 -1</clus>
<clus scale="   99.845">  2  5  1 -1</clus>
<clus scale="  120.027">  1  9  2 -1</clus>
<clus scale="  120.027">  1  5  2 -1</clus>
</clustering>
</event>
<event>
 9    1  0.1487426E-004  0.1241518E+03  0.7546771E-02  0.1239951E+00
         21   -1    0    0  501  502  0.00000000000E+00  0.00000000000E+00  0.80913324027E+03  0.80913324027E+03  0.00000000000E+00 0. -1.
         -2   -1    0    0    0  501 -0.00000000000E+00 -0.00000000000E+00 -0.13881292923E+03  0.13881292923E+03  0.00000000000E+00 0.  1.
        -24    2    1    2    0    0 -0.17289206958E+02  0.83030615263E+02 -0.10636921069E+03  0.15798749586E+03  0.80328326997E+02 0.  0.
         23    2    1    2    0    0  0.59986543198E+01 -0.47162780023E+02  0.49577029484E+03  0.50653392132E+03  0.92347801959E+02 0.  0.
         11    1    3    3    0    0  0.20374784499E+02 -0.47980747135E+01 -0.14813198070E+02  0.25643404638E+02  0.00000000000E+00 0. -1.
        -12    1    3    3    0    0 -0.37663991457E+02  0.87828689977E+02 -0.91556012622E+02  0.13234409123E+03  0.00000000000E+00 0.  1.
        -11    1    4    4    0    0 -0.41337234350E+02 -0.35566151807E+02  0.23450039449E+03  0.24075745703E+03  0.00000000000E+00 0.  1.
         11    1    4    4    0    0  0.47335888670E+02 -0.11596628217E+02  0.26126990035E+03  0.26577646429E+03  0.00000000000E+00 0. -1.
         -1    1    1    2    0  502  0.11290552638E+02 -0.35867835240E+02  0.28091922689E+03  0.28342475231E+03  0.00000000000E+00 0.  1.
<scales pt_clust_5="13000.00000" pt_clust_6="13000.00000" pt_clust_7="13000.00000" pt_clust_8="13000.00000" pt_clust_9="37.60290"></scales>
<clustering>
<clus scale="   37.603">  1  9  2 -1</clus>
<clus scale="   80.328">  5  6 -1 -1</clus>
<clus scale="   92.348">  7  8 -1 -1</clus>
<clus scale="  115.491">  2  5  1 -1</clus>
<clus scale="   37.603">  1  5  2 -1</clus>
</clustering>
</event>
<event>
 9    1  0.1487426E-004  0.1122937E+03  0.7546771E-02  0.1260194E+00
          1   -1    0    0  502    0 -0.00000000000E+00  0.00000000000E+00  0.10217711031E+04  0.10217711031E+04  0.00000000000E+00 0. -1.
         21   -1    0    0  501  502  0.00000000000E+00 -0.00000000000E+00 -0.44721807456E+02  0.44721807456E+02  0.00000000000E+00 0. -1.
        -24    2    1    2    0    0 -0.54381330848E+02 -0.31850747274E+02  0.69757552959E+03  0.70498278071E+03  0.80108066811E+02 0.  0.
         23    2    1    2    0    0  0.10571145170E+03 -0.24328893696E+02  0.23265606957E+03  0.27216344511E+03  0.90428358697E+02 0.  0.
         13    1    3    3    0    0 -0.43521401346E+02  0.37341288277E+01  0.15232515173E+03  0.15846453213E+03  0.00000000000E+00 0. -1.
        -14    1    3    3    0    0 -0.10859929502E+02 -0.35584876102E+02  0.54525037785E+03  0.54651824858E+03  0.00000000000E+00 0.  1.
        -11    1    4    4    0    0  0.28493511318E+02  0.27383020204E+02  0.31358421745E+02  0.50448593608E+02  0.00000000000E+00 0.  1.
         11    1    4    4    0    0  0.77217940386E+02 -0.51711913900E+02  0.20129764782E+03  0.22171485150E+03  0.00000000000E+00 0. -1.
          2    1    1    2  501    0 -0.51330120856E+02  0.56179640971E+02  0.46817696455E+02  0.89346684706E+02  0.00000000000E+00 0. -1.
<scales pt_clust_5="13000.00000" pt_clust_6="13000.00000" pt_clust_7="13000.00000" pt_clust_8="13000.00000" pt_clust_9="76.09818"></scales>
<clustering>
<clus scale="   76.098">  2  9  1 -1</clus>
<clus scale="   80.108">  5  6 -1 -1</clus>
<clus scale="   90.428">  7  8 -1 -1</clus>
<clus scale="  104.163">  1  5  2 -1</clus>
<clus scale="   76.098">  2  5  1 -1</clus>
</clustering>
</event>
<event>
 9    1  0.1487426E-004  0.2483097E+03  0.7546771E-02  0.1114920E+00
         21   -1    0    0  501  502  0.00000000000E+00  0.00000000000E+00  0.26088279742E+03  0.26088279742E+03  0.00000000000E+00 0.  1.
          1   -1    0    0  502    0 -0.00000000000E+00 -0.00000000000E+00 -0.40583620750E+03  0.40583620750E+03  0.00000000000E+00 0. -1.
        -24    2    1    2    0    0 -0.11898677679E+03  0.15911162090E+03 -0.10326880427E+03  0.23760375253E+03  0.79477898336E+02 0.  0.
         23    2    1    2    0    0  0.13332809096E+03 -0.25367444377E+03 -0.10082330987E+03  0.31666443168E+03  0.89352779573E+02 0.  0.
         11    1    3    3    0    0 -0.11520843012E+03  0.16237082917E+03 -0.11134399828E+03  0.22811127655E+03  0.00000000000E+00 0. -1.
        -12    1    3    3    0    0 -0.37783466711E+01 -0.32592082642E+01  0.80751940068E+01  0.94924759849E+01  0.00000000000E+00 0.  1.
        -11    1    4    4    0    0  0.11457625783E+03 -0.12845333575E+03 -0.73327726301E+02  0.18709605492E+03  0.00000000000E+00 0. -1.
         11    1    4    4    0    0  0.18751833134E+02 -0.12522110803E+03 -0.27495583564E+02  0.12956837676E+03  0.00000000000E+00 0.  1.
          2    1    1    2  501    0 -0.14341314169E+02  0.94562822869E+02  0.59138704054E+02  0.11245082071E+03  0.00000000000E+00 0. -1.
<scales pt_clust_5="13000.00000" pt_clust_6="13000.00000" pt_clust_7="13000.00000" pt_clust_8="13000.00000" pt_clust_9="95.64414"></scales>
<clustering>
<clus scale="   79.478">  5  6 -1 -1</clus>
<clus scale="   89.353">  7  8 -1 -1</clus>
<clus scale="   95.644">  1  9  2 -1</clus>
<clus scale="  244.930">  2  5  1 -1</clus>
<clus scale="   95.644">  1  5  2 -1</clus>
</clustering>
</event>
<event>
 9    1  0.1487426E-004  0.1077278E+03  0.7546771E-02  0.1273141E+00
          1   -1    0    0  502    0 -0.00000000000E+00  0.00000000000E+00  0.79002205256E+02  0.79002205256E+02  0.00000000000E+00 0. -1.
         21   -1    0    0  501  502  0.00000000000E+00 -0.00000000000E+00 -0.39526603742E+03  0.39526603742E+03  0.00000000000E+00 0. -1.
         23    2    1    2    0    0  0.31642830198E+02  0.49606249270E+02  0.25431340636E+02  0.11155546001E+03  0.91300705917E+02 0.  0.
        -24    2    1    2    0    0 -0.38531931154E+02 -0.27992556919E+02 -0.31979991153E+03  0.33118479709E+03  0.71715364078E+02 0.  0.
         13    1    4    4    0    0 -0.53812095496E+02 -0.12609178292E+02 -0.28402081220E+03  0.28934850053E+03  0.00000000000E+00 0. -1.
        -14    1    4    4    0    0  0.15280164341E+02 -0.15383378628E+02 -0.35779099333E+02  0.41836296555E+02  0.00000000000E+00 0.  1.
        -11    1    3    3    0    0  0.24696260032E+02 -0.20832548590E+02  0.24869972798E+02  0.40772734607E+02  0.00000000000E+00 0. -1.
         11    1    3    3    0    0  0.69465701660E+01  0.70438797860E+02  0.56136783808E+00  0.70782725399E+02  0.00000000000E+00 0.  1.
          2    1    1    2  501    0  0.68891009559E+01 -0.21613692351E+02 -0.21895261274E+02  0.31527985588E+02  0.00000000000E+00 0. -1.
<scales pt_clust_5="13000.00000" pt_clust_6="13000.00000" pt_clust_7="13000.00000" pt_clust_8="13000.00000" pt_clust_9="22.68505"></scales>
<clustering>
<clus scale="   22.685">  2  9  1 -1</clus>
<clus scale="   71.715">  5  6 -1 -1</clus>
<clus scale="   91.301">  7  8 -1 -1</clus>
<clus scale="   91.720">  2  5  1 -1</clus>
<clus scale="   22.685">  2  5  1 -1</clus>
</clustering>
</event>
<event>
 9    1  0.1670108E-004  0.9514744E+02  0.7546771E-02  0.1296554E+00
          3   -1    0    0  502    0 -0.00000000000E+00  0.00000000000E+00  0.37415152534E+03  0.37415152534E+03  0.00000000000E+00 0. -1.
         21   -1    0    0  501  502  0.00000000000E+00 -0.00000000000E+00 -0.91439336404E+02  0.91439336404E+02  0.00000000000E+00 0.  1.
         23    2    1    2    0    0 -0.33474152109E+02 -0.11791341424E+02  0.28844761253E+03  0.30445886016E+03  0.90739284574E+02 0.  0.
        -24    2    1    2    0    0 -0.30770503071E+02  0.12262634691E+02 -0.30407605057E+02  0.92311115399E+02  0.80619622377E+02 0.  0.
         11    1    4    4    0    0 -0.40488900293E+01 -0.23421722336E+02  0.15454942179E+02  0.28351822259E+02  0.00000000000E+00 0. -1.
        -12    1    4    4    0    0 -0.26721613041E+02  0.35684357028E+02 -0.45862547236E+02  0.63959293140E+02  0.00000000000E+00 0.  1.
        -13    1    3    3    0    0 -0.64977133041E+02 -0.63956203228E+01  0.20216057108E+03  0.21244252935E+03  0.00000000000E+00 0. -1.
         13    1    3    3    0    0  0.31502980932E+02 -0.53957211017E+01  0.86287041445E+02  0.92016330807E+02  0.00000000000E+00 0.  1.
          4    1    1    2  501    0  0.64244655180E+02 -0.47129326665E+00  0.24672181461E+02  0.68820886180E+02  0.00000000000E+00 0. -1.
<scales pt_clust_5="13000.00000" pt_clust_6="13000.00000" pt_clust_7="13000.00000" pt_clust_8="13000.00000" pt_clust_9="64.24638"></scales>
<clustering>
<clus scale="   64.246">  2  9  1 -1</clus>
<clus scale="   80.620">  5  6 -1 -1</clus>
<clus scale="   85.551">  2  5  1 -1</clus>
<clus scale="   90.739">  7  8 -1 -1</clus>
<clus scale="   64.246">  2  5  1 -1</clus>
</clustering>
</event>
<event>
 9    1  0.1487426E-004  0.9004717E+02  0.7546771E-02  0.1311886E+00
         21   -1    0    0  501  502  0.00000000000E+00  0.00000000000E+00  0.21555497350E+03  0.21555497350E+03  0.00000000000E+00 0. -1.
          1   -1    0    0  502    0 -0.00000000000E+00 -0.00000000000E+00 -0.13048893016E+03  0.13048893016E+03  0.00000000000E+00 0. -1.
         23    2    1    2    0    0  0.87798444719E+00 -0.18209266530E+01 -0.78220479961E+02  0.11874484847E+03  0.89318581058E+02 0.  0.
        -24    2    1    2    0    0  0.16250085842E+02  0.41928725747E+02  0.39837152372E+02  0.96372535635E+02  0.75356377188E+02 0.  0.
         13    1    4    4    0    0  0.55269612022E+01  0.58680246320E+02  0.89213199329E+01  0.59611312329E+02  0.00000000000E+00 0. -1.
        -14    1    4    4    0    0  0.10723124640E+02 -0.16751520572E+02  0.30915832439E+02  0.36761223306E+02  0.00000000000E+00 0.  1.
        -11    1    3    3    0    0  0.45060836779E+02 -0.20467568018E-01 -0.41673470636E+02  0.61377174788E+02  0.00000000000E+00 0. -1.
         11    1    3    3    0    0 -0.44182852332E+02 -0.18004590850E+01 -0.36547009325E+02  0.57367673682E+02  0.00000000000E+00 0.  1.
          2    1    1    2  501    0 -0.17128070289E+02 -0.40107799094E+02  0.12344937093E+03  0.13092651956E+03  0.00000000000E+00 0. -1.
<scales pt_clust_5="13000.00000" pt_clust_6="13000.00000" pt_clust_7="13000.00000" pt_clust_8="13000.00000" pt_clust_9="43.61200"></scales>
<clustering>
<clus scale="   43.612">  1  9  2 -1</clus>
<clus scale="   75.356">  5  6 -1 -1</clus>
<clus scale="   76.219">  1  5  2 -1</clus>
<clus scale="   89.319">  7  8 -1 -1</clus>
<clus scale="   43.612">  1  5  2 -1</clus>
</clustering>
</event>
<event>
 9    1  0.1487426E-004  0.1365243E+03  0.7546771E-02  0.1219921E+00
         21   -1    0    0  501  502  0.00000000000E+00  0.00000000000E+00  0.39431806258E+02  0.39431806258E+02  0.00000000000E+00 0. -1.
          3   -1    0    0  502    0 -0.00000000000E+00 -0.00000000000E+00 -0.89562285591E+03  0.89562285591E+03  0.00000000000E+00 0. -1.
         23    2    1    2    0    0  0.11849158359E+03 -0.52988318214E+01 -0.50963766329E+03  0.53017607798E+03  0.85368570445E+02 0.  0.
        -24    2    1    2    0    0 -0.73263732415E+02  0.25926378181E+02 -0.84459319283E+02  0.13811210543E+03  0.76823339417E+02 0.  0.
         13    1    4    4    0    0 -0.24327111405E+02 -0.90674484235E+01  0.85569225248E+01  0.27335835333E+02  0.00000000000E+00 0. -1.
        -14    1    4    4    0    0 -0.48936621010E+02  0.34993826604E+02 -0.93016241807E+02  0.11077627010E+03  0.00000000000E+00 0.  1.
        -11    1    3    3    0    0  0.80599629624E+02  0.35948740268E+02 -0.35159182406E+03  0.36249885927E+03  0.00000000000E+00 0. -1.
         11    1    3    3    0    0  0.37891953969E+02 -0.41247572090E+02 -0.15804583923E+03  0.16767721871E+03  0.00000000000E+00 0.  1.
          4    1    1    2  501    0 -0.45227851178E+02 -0.20627546359E+02 -0.26209406708E+03  0.26676647875E+03  0.00000000000E+00 0. -1.
<scales pt_clust_5="13000.00000" pt_clust_6="13000.00000" pt_clust_7="13000.00000" pt_clust_8="13000.00000" pt_clust_9="49.70972"></scales>
<clustering>
<clus scale="   49.710">  1  9  2 -1</clus>
<clus scale="   76.823">  5  6 -1 -1</clus>
<clus scale="   85.369">  7  8 -1 -1</clus>
<clus scale="  131.350">  1  5  2 -1</clus>
<clus scale="   49.710">  1  5  2 -1</clus>
</clustering>
</event>
<event>
 9    1  0.1487426E-004  0.1083816E+03  0.7546771E-02  0.1267528E+00
          1   -1    0    0  502    0 -0.00000000000E+00  0.00000000000E+00  0.11712130572E+04  0.11712130572E+04  0.00000000000E+00 0. -1.
         21   -1    0    0  501  502  0.00000000000E+00 -0.00000000000E+00 -0.21822407215E+02  0.21822407215E+02  0.00000000000E+00 0. -1.
        -24    2    1    2    0    0  0.66133471817E+02 -0.49582491246E+01  0.34807927433E+03  0.36338375076E+03  0.80562700886E+02 0.  0.
         23    2    1    2    0    0 -0.40677849245E+02 -0.60879781834E+02  0.27419009253E+03  0.29782516094E+03  0.90324882468E+02 0.  0.
         11    1    3    3    0    0  0.76148585362E+02  0.13390160369E+02  0.21099639231E+03  0.22471622330E+03  0.00000000000E+00 0. -1.
        -12    1    3    3    0    0 -0.10015113545E+02 -0.18348409493E+02  0.13708288201E+03  0.13866752746E+03  0.00000000000E+00 0.  1.
        -11    1    4    4    0    0 -0.60877020128E+02 -0.46202967603E+02  0.12463812739E+03  0.14620324413E+03  0.00000000000E+00 0. -1.
         11    1    4    4    0    0  0.20199170883E+02 -0.14676814231E+02  0.14955196514E+03  0.15162191681E+03  0.00000000000E+00 0.  1.
          2    1    1    2  501    0 -0.25455622572E+02  0.65838030958E+02  0.52712128315E+03  0.53182655273E+03  0.00000000000E+00 0. -1.
<scales pt_clust_5="13000.00000" pt_clust_6="13000.00000" pt_clust_7="13000.00000" pt_clust_8="13000.00000" pt_clust_9="70.58782"></scales>
<clustering>
<clus scale="   70.588">  2  9  1 -1</clus>
<clus scale="   80.563">  5  6 -1 -1</clus>
<clus scale="   90.325">  7  8 -1 -1</clus>
<clus scale="  100.391">  1  5  2 -1</clus>
<clus scale="   70.588">  2  5  1 -1</clus>
</clustering>
</event>
<event>
 9    1  0.1487426E-004  0.1631576E+03  0.7546771E-02  0.1187066E+00
         21   -1    0    0  501  502  0.00000000000E+00  0.00000000000E+00  0.68189200230E+02  0.68189200230E+02  0.00000000000E+00 0.  1.
          1   -1    0    0  502    0 -0.00000000000E+00 -0.00000000000E+00 -0.62711086376E+03  0.62711086376E+03  0.00000000000E+00 0. -1.
        -24    2    1    2    0    0  0.11153181714E+03  0.68232094749E+02 -0.42381402064E+03  0.45108564405E+03  0.82249432760E+02 0.  0.
         23    2    1    2    0    0 -0.10476410299E+03 -0.98147649601E+02 -0.10568957109E+03  0.20171541612E+03  0.94394625207E+02 0.  0.
         13    1    3    3    0    0  0.94210460613E+02  0.86799613628E+02 -0.37080271695E+03  0.39230656216E+03  0.00000000000E+00 0. -1.
        -14    1    3    3    0    0  0.17321356526E+02 -0.18567518879E+02 -0.53011303696E+02  0.58779081898E+02  0.00000000000E+00 0.  1.
        -13    1    4    4    0    0 -0.60548170141E+02 -0.10482497245E+03 -0.99242622913E+02  0.15653579131E+03  0.00000000000E+00 0. -1.
         13    1    4    4    0    0 -0.44215932845E+02  0.66773228508E+01 -0.64469481747E+01  0.45179624817E+02  0.00000000000E+00 0.  1.
          2    1    1    2  501    0 -0.67677141538E+01  0.29915554852E+02 -0.29418071800E+02  0.42499003816E+02  0.00000000000E+00 0. -1.
<scales pt_clust_5="13000.00000" pt_clust_6="13000.00000" pt_clust_7="13000.00000" pt_clust_8="13000.00000" pt_clust_9="30.67152"></scales>
<clustering>
<clus scale="   30.672">  1  9  2 -1</clus>
<clus scale="   82.249">  5  6 -1 -1</clus>
<clus scale="   94.395">  7  8 -1 -1</clus>
<clus scale="  156.445">  2  5  1 -1</clus>
<clus scale="   30.672">  1  5  2 -1</clus>
</clustering>
</event>
<event>
 9    1  0.1487426E-004  0.1073438E+03  0.7546771E-02  0.1269807E+00
         -2   -1    0    0    0  501 -0.00000000000E+00  0.00000000000E+00  0.64390208323E+02  0.64390208323E+02  0.00000000000E+00 0.  1.
         21   -1    0    0  501  502  0.00000000000E+00 -0.00000000000E+00 -0.34154105458E+03  0.34154105458E+03  0.00000000000E+00 0.  1.
        -24    2    1    2    0    0  0.56933494660E+02 -0.23466960599E+01 -0.59302635385E-01  0.99946138606E+02  0.82111493160E+02 0.  0.
         23    2    1    2    0    0 -0.45591762999E+02 -0.18681379264E+02 -0.24130592359E+03  0.26295693086E+03  0.92142259281E+02 0.  0.
         11    1    3    3    0    0  0.52970442772E+02 -0.37232104177E+02  0.19855867522E+01  0.64776847281E+02  0.00000000000E+00 0. -1.
        -12    1    3    3    0    0  0.39630518879E+01  0.34885408117E+02 -0.20448893876E+01  0.35169291326E+02  0.00000000000E+00 0.  1.
        -11    1    4    4    0    0 -0.19713020577E+02 -0.46601701482E+02 -0.20198626473E+03  0.20822769485E+03  0.00000000000E+00 0.  1.
         11    1    4    4    0    0 -0.25878742422E+02  0.27920322218E+02 -0.39319658851E+02  0.54729236010E+02  0.00000000000E+00 0. -1.
         -1    1    1    2    0  502 -0.11341731661E+02  0.21028075324E+02 -0.35785620032E+02  0.43028193431E+02  0.00000000000E+00 0.  1.
<scales pt_clust_5="13000.00000" pt_clust_6="13000.00000" pt_clust_7="13000.00000" pt_clust_8="13000.00000" pt_clust_9="23.89173"></scales>
<clustering>
<clus scale="   23.892">  2  9  1 -1</clus>
<clus scale="   82.111">  5  6 -1 -1</clus>
<clus scale="   92.142">  7  8 -1 -1</clus>
<clus scale="   98.868">  1  5  2 -1</clus>
<clus scale="   23.892">  2  5  1 -1</clus>
</clustering>
</event>
<event>
 9    1  0.1487426E-004  0.1930607E+03  0.7546771E-02  0.1183573E+00
         21   -1    0    0  501  502  0.00000000000E+00  0.00000000000E+00  0.72448904454E+03  0.72448904454E+03  0.00000000000E+00 0. -1.
         -2   -1    0    0    0  501 -0.00000000000E+00 -0.00000000000E+00 -0.12009014438E+03  0.12009014438E+03  0.00000000000E+00 0.  1.
         23    2    1    2    0    0  0.49137428122E+02 -0.31616235751E+02  0.37873029045E+03  0.39224278038E+03  0.83688067537E+02 0.  0.
        -24    2    1    2    0    0  0.15049302637E+03  0.59573738694E+02  0.15619244741E+03  0.23912084283E+03  0.81151189289E+02 0.  0.
         11    1    4    4    0    0  0.13489287991E+03  0.73328018945E+02  0.15518109465E+03  0.21829855599E+03  0.00000000000E+00 0. -1.
        -12    1    4    4    0    0  0.15600146462E+02 -0.13754280250E+02  0.10113527555E+01  0.20822286840E+02  0.00000000000E+00 0.  1.
        -11    1    3    3    0    0  0.56269251244E+02 -0.54348075090E+02  0.29294472316E+03  0.30321041000E+03  0.00000000000E+00 0. -1.
         11    1    3    3    0    0 -0.71318231210E+01  0.22731839339E+02  0.85785567292E+02  0.89032370385E+02  0.00000000000E+00 0.  1.
         -1    1    1    2    0  502 -0.19963045449E+03 -0.27957502943E+02  0.69476162303E+02  0.21321556571E+03  0.00000000000E+00 0.  1.
<scales pt_clust_5="13000.00000" pt_clust_6="13000.00000" pt_clust_7="13000.00000" pt_clust_8="13000.00000" pt_clust_9="175.17688"></scales>
<clustering>
<clus scale="   81.151">  5  6 -1 -1</clus>
<clus scale="   83.688">  7  8 -1 -1</clus>
<clus scale="  102.068">  2  7  1 -1</clus>
<clus scale="  175.177">  1  9  2 -1</clus>
<clus scale="  175.177">  1  5  2 -1</clus>
</clustering>
</event>
<event>
 9    1  0.1487426E-004  0.9825323E+02  0.7546771E-02  0.1290148E+00
         21   -1    0    0  501  502  0.00000000000E+00  0.00000000000E+00  0.67698205952E+02  0.67698205952E+02  0.00000000000E+00 0. -1.
          3   -1    0    0  502    0 -0.00000000000E+00 -0.00000000000E+00 -0.53282078470E+03  0.53282078470E+03  0.00000000000E+00 0. -1.
        -24    2    1    2    0    0 -0.33112614103E+02 -0.32116615722E+02 -0.23527466556E+03  0.25260111423E+03  0.79531329915E+02 0.  0.
         23    2    1    2    0    0  0.14106161816E+02 -0.49544360353E+02 -0.15882748180E+01  0.10474669649E+03  0.91190571684E+02 0.  0.
         11    1    3    3    0    0 -0.53283008198E+02 -0.92681390660E+01 -0.97497828603E+02  0.11149351527E+03  0.00000000000E+00 0. -1.
        -12    1    3    3    0    0  0.20170394094E+02 -0.22848476656E+02 -0.13777683695E+03  0.14110759896E+03  0.00000000000E+00 0.  1.
        -11    1    4    4    0    0 -0.27460532083E+02 -0.36025025595E+01 -0.26159486188E+02  0.38096949545E+02  0.00000000000E+00 0.  1.
         11    1    4    4    0    0  0.41566693900E+02 -0.45941857794E+02  0.24571211370E+02  0.66649746943E+02  0.00000000000E+00 0. -1.
          4    1    1    2  501    0  0.19006452287E+02  0.81660976075E+02 -0.22825963837E+03  0.24317117994E+03  0.00000000000E+00 0. -1.
<scales pt_clust_5="13000.00000" pt_clust_6="13000.00000" pt_clust_7="13000.00000" pt_clust_8="13000.00000" pt_clust_9="83.84371"></scales>
<clustering>
<clus scale="   79.531">  5  6 -1 -1</clus>
<clus scale="   83.844">  1  9  2 -1</clus>
<clus scale="   87.540">  2  5  1 -1</clus>
<clus scale="   91.191">  7  8 -1 -1</clus>
<clus scale="   83.844">  1  5  2 -1</clus>
</clustering>
</event>
<event>
 9    1  0.1487426E-004  0.1268980E+03  0.7546771E-02  0.1235121E+00
          1   -1    0    0  502    0 -0.00000000000E+00  0.00000000000E+00  0.59370567381E+03  0.59370567381E+03  0.00000000000E+00 0. -1.
         21   -1    0    0  501  502  0.00000000000E+00 -0.00000000000E+00 -0.68884594120E+02  0.68884594120E+02  0.00000000000E+00 0.  1.
        -24    2    1    2    0    0 -0.76353235879E+02  0.57414006213E+02  0.42749319268E+03  0.44551066374E+03  0.81259688526E+02 0.  0.
         23    2    1    2    0    0  0.11551166607E+02 -0.54335829157E+02  0.94895420512E+01  0.10788089448E+03  0.91991435505E+02 0.  0.
         11    1    3    3    0    0 -0.86746969523E+02  0.27462290578E+02  0.35327296703E+03  0.36480269099E+03  0.00000000000E+00 0. -1.
        -12    1    3    3    0    0  0.10393733644E+02  0.29951715636E+02  0.74220225657E+02  0.80707972748E+02  0.00000000000E+00 0.  1.
        -11    1    4    4    0    0 -0.33585207938E+02 -0.28275854298E+02  0.28567932953E+02  0.52379546788E+02  0.00000000000E+00 0. -1.
         11    1    4    4    0    0  0.45136374545E+02 -0.26059974859E+02 -0.19078390902E+02  0.55501347696E+02  0.00000000000E+00 0.  1.
          2    1    1    2  501    0  0.64802069272E+02 -0.30781770564E+01  0.87838344953E+02  0.10919870970E+03  0.00000000000E+00 0. -1.
<scales pt_clust_5="13000.00000" pt_clust_6="13000.00000" pt_clust_7="13000.00000" pt_clust_8="13000.00000" pt_clust_9="64.87517"></scales>
<clustering>
<clus scale="   64.875">  2  9  1 -1</clus>
<clus scale="   81.260">  5  6 -1 -1</clus>
<clus scale="   91.991">  7  8 -1 -1</clus>
<clus scale="  119.347">  1  5  2 -1</clus>
<clus scale="   64.875">  2  5  1 -1</clus>
</clustering>
</event>
<event>
 9    1  0.1487426E-004  0.1148369E+03  0.7546771E-02  0.1257599E+00
         21   -1    0    0  501  502  0.00000000000E+00  0.00000000000E+00  0.55064861487E+02  0.55064861487E+02  0.00000000000E+00 0.  1.
         -2   -1    0    0    0  501 -0.00000000000E+00 -0.00000000000E+00 -0.31555787196E+03  0.31555787196E+03  0.00000000000E+00 0.  1.
         23    2    1    2    0    0 -0.77812366649E+01 -0.63851569883E+02 -0.15710936866E+03  0.19258521581E+03  0.90929318742E+02 0.  0.
        -24    2    1    2    0    0  0.38018857702E+02  0.74029532936E+02 -0.70518160457E+02  0.13223310167E+03  0.74746083069E+02 0.  0.
         11    1    4    4    0    0  0.56355123210E+02  0.65588652657E+02 -0.71231987297E+02  0.11203467001E+03  0.00000000000E+00 0. -1.
        -12    1    4    4    0    0 -0.18336265508E+02  0.84408802796E+01  0.71382684039E+00  0.20198431658E+02  0.00000000000E+00 0.  1.
        -11    1    3    3    0    0  0.17471177328E+02 -0.47356553924E+02 -0.15423673459E+03  0.16228633810E+03  0.00000000000E+00 0.  1.
         11    1    3    3    0    0 -0.25252413993E+02 -0.16495015959E+02 -0.28726340707E+01  0.30298877710E+02  0.00000000000E+00 0. -1.
         -1    1    1    2    0  502 -0.30237621037E+02 -0.10177963053E+02 -0.32865481358E+02  0.45804415974E+02  0.00000000000E+00 0.  1.
<scales pt_clust_5="13000.00000" pt_clust_6="13000.00000" pt_clust_7="13000.00000" pt_clust_8="13000.00000" pt_clust_9="31.90463"></scales>
<clustering>
<clus scale="   31.905">  1  9  2 -1</clus>
<clus scale="   74.746">  5  6 -1 -1</clus>
<clus scale="   90.929">  7  8 -1 -1</clus>
<clus scale="  102.501">  1  5  2 -1</clus>
<clus scale="   31.905">  1  5  2 -1</clus>
</clustering>
</event>
<event>
 9    1  0.1487426E-004  0.1228283E+03  0.7546771E-02  0.1240360E+00
          1   -1    0    0  502    0 -0.00000000000E+00  0.00000000000E+00  0.30384672700E+03  0.30384672700E+03  0.00000000000E+00 0. -1.
         21   -1    0    0  501  502  0.00000000000E+00 -0.00000000000E+00 -0.11452652743E+03  0.11452652743E+03  0.00000000000E+00 0. -1.
         23    2    1    2    0    0  0.31955948713E+02  0.52444262631E+02  0.12263899552E+03  0.16413030135E+03  0.90149039146E+02 0.  0.
        -24    2    1    2    0    0 -0.73971360566E+02 -0.11451185150E+03  0.78676086612E+02  0.17833802814E+03  0.83843898750E+02 0.  0.
         11    1    4    4    0    0  0.13138587524E+02 -0.29032678700E+02 -0.21764230893E+01  0.31941442235E+02  0.00000000000E+00 0. -1.
        -12    1    4    4    0    0 -0.87109948091E+02 -0.85479172805E+02  0.80852509701E+02  0.14639658591E+03  0.00000000000E+00 0.  1.
        -13    1    3    3    0    0 -0.31113837351E+02  0.86424774472E+01  0.36411554984E+02  0.48667901409E+02  0.00000000000E+00 0.  1.
         13    1    3    3    0    0  0.63069786064E+02  0.43801785184E+02  0.86227440536E+02  0.11546239994E+03  0.00000000000E+00 0. -1.
          2    1    1    2  501    0  0.42015411854E+02  0.62067588874E+02 -0.11994882563E+02  0.75904924936E+02  0.00000000000E+00 0. -1.
<scales pt_clust_5="13000.00000" pt_clust_6="13000.00000" pt_clust_7="13000.00000" pt_clust_8="13000.00000" pt_clust_9="74.95119"></scales>
<clustering>
<clus scale="   74.951">  2  9  1 -1</clus>
<clus scale="   83.844">  5  6 -1 -1</clus>
<clus scale="   90.149">  7  8 -1 -1</clus>
<clus scale="  118.278">  2  5  1 -1</clus>
<clus scale="   74.951">  2  5  1 -1</clus>
</clustering>
</event>
<event>
 9    1  0.1487426E-004  0.3241787E+03  0.7546771E-02  0.1123302E+00
          1   -1    0    0  502    0 -0.00000000000E+00  0.00000000000E+00  0.59915478047E+03  0.59915478047E+03  0.00000000000E+00 0. -1.
         21   -1    0    0  501  502  0.00000000000E+00 -0.00000000000E+00 -0.31371859103E+03  0.31371859103E+03  0.00000000000E+00 0.  1.
        -24    2    1    2    0    0  0.55966842470E+02  0.60624821087E+01  0.25902686827E+03  0.27396362899E+03  0.69225070427E+02 0.  0.
         23    2    1    2    0    0 -0.35333014327E+02  0.30792627730E+03  0.28479119101E+02  0.32423692836E+03  0.90837829836E+02 0.  0.
         13    1    3    3    0    0  0.36967675116E+02  0.33372062001E+02  0.20098452872E+03  0.20706299599E+03  0.00000000000E+00 0. -1.
        -14    1    3    3    0    0  0.18999167354E+02 -0.27309579892E+02  0.58042339552E+02  0.66900632992E+02  0.00000000000E+00 0.  1.
        -11    1    4    4    0    0 -0.61804961808E+02  0.14541324074E+03  0.21228308038E+02  0.15942241044E+03  0.00000000000E+00 0.  1.
         11    1    4    4    0    0  0.26471947482E+02  0.16251303656E+03  0.72508110625E+01  0.16481451792E+03  0.00000000000E+00 0. -1.
          2    1    1    2  501    0 -0.20633828143E+02 -0.31398875941E+03 -0.20697979301E+01  0.31467281415E+03  0.00000000000E+00 0. -1.
<scales pt_clust_5="13000.00000" pt_clust_6="13000.00000" pt_clust_7="13000.00000" pt_clust_8="13000.00000" pt_clust_9="311.19180"></scales>
<clustering>
<clus scale="   69.225">  5  6 -1 -1</clus>
<clus scale="   89.225">  1  5  2 -1</clus>
<clus scale="   90.838">  7  8 -1 -1</clus>
<clus scale="  311.192">  2  9  1 -1</clus>
<clus scale="  311.192">  2  5  1 -1</clus>
</clustering>
</event>
<event>
 9    1  0.1487426E-004  0.1315272E+03  0.7546771E-02  0.1244700E+00
          3   -1    0    0  502    0 -0.00000000000E+00  0.00000000000E+00  0.17511962418E+03  0.17511962418E+03  0.00000000000E+00 0. -1.
         21   -1    0    0  501  502  0.00000000000E+00 -0.00000000000E+00 -0.21513262629E+03  0.21513262629E+03  0.00000000000E+00 0.  1.
        -24    2    1    2    0    0 -0.34825523185E+02  0.14725017353E+02  0.76057336977E+02  0.11648965367E+03  0.79721250011E+02 0.  0.
         23    2    1    2    0    0  0.83213673312E+02  0.64448850399E+02 -0.11884334531E+03  0.18093154612E+03  0.86800425780E+02 0.  0.
         13    1    3    3    0    0 -0.16655105000E+02  0.16277696025E+02  0.90360323339E+02  0.93313149901E+02  0.00000000000E+00 0. -1.
        -14    1    3    3    0    0 -0.18170418186E+02 -0.15526786718E+01 -0.14302986363E+02  0.23176503770E+02  0.00000000000E+00 0.  1.
        -13    1    4    4    0    0  0.17348939321E+02  0.59961435779E+02 -0.27453956848E+02  0.68191489372E+02  0.00000000000E+00 0.  1.
         13    1    4    4    0    0  0.65864733991E+02  0.44874146206E+01 -0.91389388458E+02  0.11274005675E+03  0.00000000000E+00 0. -1.
          4    1    1    2  501    0 -0.48388150126E+02 -0.79173867752E+02  0.27730062204E+01  0.92831050683E+02  0.00000000000E+00 0. -1.
<scales pt_clust_5="13000.00000" pt_clust_6="13000.00000" pt_clust_7="13000.00000" pt_clust_8="13000.00000" pt_clust_9="98.81846"></scales>
<clustering>
<clus scale="   79.721">  5  6 -1 -1</clus>
<clus scale="   86.800">  7  8 -1 -1</clus>
<clus scale="   88.233">  1  5  2 -1</clus>
<clus scale="   98.818">  2  9  1 -1</clus>
<clus scale="   98.818">  2  5  1 -1</clus>
</clustering>
</event>
<event>
 9    1  0.1487426E-004  0.1155465E+03  0.7546771E-02  0.1257260E+00
         21   -1    0    0  501  502  0.00000000000E+00  0.00000000000E+00  0.28808937780E+03  0.28808937780E+03  0.00000000000E+00 0. -1.
          3   -1    0    0  502    0 -0.00000000000E+00 -0.00000000000E+00 -0.18617008556E+03  0.18617008556E+03  0.00000000000E+00 0. -1.
        -24    2    1    2    0    0  0.51574616618E+02  0.34897235298E+02  0.19822579136E+03  0.22260939170E+03  0.79898177702E+02 0.  0.
         23    2    1    2    0    0  0.31870716175E+02  0.48045126978E+02 -0.75547232095E+01  0.10427491516E+03  0.86556959930E+02 0.  0.
         11    1    3    3    0    0  0.72515734602E+02  0.18892539951E+02  0.14768479111E+03  0.16560874782E+03  0.00000000000E+00 0. -1.
        -12    1    3    3    0    0 -0.20941117983E+02  0.16004695347E+02  0.50541000258E+02  0.57000643879E+02  0.00000000000E+00 0.  1.
        -11    1    4    4    0    0  0.55410788302E+02  0.36257188631E+02  0.16901385109E+02  0.68341758876E+02  0.00000000000E+00 0. -1.
         11    1    4    4    0    0 -0.23540072127E+02  0.11787938348E+02 -0.24456108319E+02  0.35933156281E+02  0.00000000000E+00 0.  1.
          4    1    1    2  501    0 -0.83445332793E+02 -0.82942362276E+02 -0.88751775917E+02  0.14737515650E+03  0.00000000000E+00 0. -1.
<scales pt_clust_5="13000.00000" pt_clust_6="13000.00000" pt_clust_7="13000.00000" pt_clust_8="13000.00000" pt_clust_9="76.54333"></scales>
<clustering>
<clus scale="   79.898">  5  6 -1 -1</clus>
<clus scale="   86.557">  7  8 -1 -1</clus>
<clus scale="  101.299">  2  5  1 -1</clus>
<clus scale="   76.543">  1  9  2 -1</clus>
<clus scale="   76.543">  1  5  2 -1</clus>
</clustering>
</event>
<event>
 9    1  0.1487426E-004  0.9185175E+02  0.7546771E-02  0.1306182E+00
         21   -1    0    0  501  502  0.00000000000E+00  0.00000000000E+00  0.44292574858E+02  0.44292574858E+02  0.00000000000E+00 0.  1.
          1   -1    0    0  502    0 -0.00000000000E+00 -0.00000000000E+00 -0.31604332959E+03  0.31604332959E+03  0.00000000000E+00 0. -1.
         23    2    1    2    0    0 -0.29123149187E+01 -0.56805725566E+01 -0.23207611931E+03  0.24965533016E+03  0.91802550296E+02 0.  0.
        -24    2    1    2    0    0  0.24509703410E+01 -0.14947925779E+02 -0.23226983675E+02  0.84293588283E+02  0.79601937880E+02 0.  0.
         13    1    4    4    0    0 -0.29203240404E+02 -0.18881559524E+02 -0.35889950422E+02  0.49974304212E+02  0.00000000000E+00 0. -1.
        -14    1    4    4    0    0  0.31654210744E+02  0.39336337449E+01  0.12662966747E+02  0.34319284071E+02  0.00000000000E+00 0.  1.
        -11    1    3    3    0    0  0.17233068221E+02  0.38079529272E+02 -0.82024007889E+02  0.92059584292E+02  0.00000000000E+00 0.  1.
         11    1    3    3    0    0 -0.20145383140E+02 -0.43760101828E+02 -0.15005211142E+03  0.15759574587E+03  0.00000000000E+00 0. -1.
          2    1    1    2  501    0  0.46134457770E+00  0.20628498336E+02 -0.16447651748E+02  0.26386986005E+02  0.00000000000E+00 0. -1.
<scales pt_clust_5="13000.00000" pt_clust_6="13000.00000" pt_clust_7="13000.00000" pt_clust_8="13000.00000" pt_clust_9="20.63366"></scales>
<clustering>
<clus scale="   20.634">  1  9  2 -1</clus>
<clus scale="   79.602">  5  6 -1 -1</clus>
<clus scale="   79.659">  1  5  2 -1</clus>
<clus scale="   91.803">  7  8 -1 -1</clus>
<clus scale="   20.634">  1  5  2 -1</clus>
</clustering>
</event>
<event>
 9    1  0.1487426E-004  0.1002901E+03  0.7546771E-02  0.1284676E+00
         21   -1    0    0  501  502  0.00000000000E+00  0.00000000000E+00  0.37577896269E+03  0.37577896269E+03  0.00000000000E+00 0. -1.
          1   -1    0    0  502    0 -0.00000000000E+00 -0.00000000000E+00 -0.52219172431E+02  0.52219172431E+02  0.00000000000E+00 0. -1.
         23    2    1    2    0    0 -0.45853151351E+02 -0.45820157588E+02  0.11182585877E+03  0.15719192217E+03  0.89455460295E+02 0.  0.
        -24    2    1    2    0    0  0.10381971689E+02  0.10223370105E+02  0.20483011431E+03  0.22008147976E+03  0.79171834469E+02 0.  0.
         11    1    4    4    0    0  0.98939245435E+01  0.44784162954E+02  0.12142146719E+03  0.12979477528E+03  0.00000000000E+00 0. -1.
        -12    1    4    4    0    0  0.48804714584E+00 -0.34560792849E+02  0.83408647118E+02  0.90286704483E+02  0.00000000000E+00 0.  1.
        -11    1    3    3    0    0 -0.57759233013E+02 -0.63359391445E+02  0.10354701261E+03  0.13443409278E+03  0.00000000000E+00 0. -1.
         11    1    3    3    0    0  0.11906081662E+02  0.17539233857E+02  0.82788461665E+01  0.22757829393E+02  0.00000000000E+00 0.  1.
          2    1    1    2  501    0  0.35471179661E+02  0.35596787483E+02  0.69038171828E+01  0.50724733191E+02  0.00000000000E+00 0. -1.
<scales pt_clust_5="13000.00000" pt_clust_6="13000.00000" pt_clust_7="13000.00000" pt_clust_8="13000.00000" pt_clust_9="50.25275"></scales>
<clustering>
<clus scale="   50.253">  1  9  2 -1</clus>
<clus scale="   79.172">  5  6 -1 -1</clus>
<clus scale="   89.455">  7  8 -1 -1</clus>
<clus scale="   91.236">  1  5  2 -1</clus>
<clus scale="   50.253">  1  5  2 -1</clus>
</clustering>
</event>
<event>
 9    1  0.1656887E-004  0.1630650E+03  0.7546771E-02  0.1215898E+00
          1   -1    0    0  502    0 -0.00000000000E+00  0.00000000000E+00  0.25554218908E+03  0.25554218908E+03  0.00000000000E+00 0. -1.
         21   -1    0    0  501  502  0.00000000000E+00 -0.00000000000E+00 -0.28554237101E+03  0.28554237101E+03  0.00000000000E+00 0. -1.
        -24    2    1    2    0    0  0.14367144838E+02 -0.17671602525E+02  0.47475400911E+01  0.84038923852E+02  0.80754573856E+02 0.  0.
         23    2    1    2    0    0 -0.56472066915E+02  0.12595010715E+03 -0.19705330338E+03  0.25744563431E+03  0.91628196615E+02 0.  0.
         13    1    3    3    0    0 -0.25698137395E+02 -0.31875673795E+02  0.66827159290E+01  0.41486281319E+02  0.00000000000E+00 0. -1.
        -14    1    3    3    0    0  0.40065282233E+02  0.14204071271E+02 -0.19351758379E+01  0.42552642533E+02  0.00000000000E+00 0.  1.
        -13    1    4    4    0    0 -0.15010401389E+02  0.33873629929E+02 -0.13252809561E+03  0.13760970562E+03  0.00000000000E+00 0. -1.
         13    1    4    4    0    0 -0.41461665526E+02  0.92076477225E+02 -0.64525207776E+02  0.11983592869E+03  0.00000000000E+00 0.  1.
          2    1    1    2  501    0  0.42104922077E+02 -0.10827850463E+03  0.16230558136E+03  0.19960000193E+03  0.00000000000E+00 0. -1.
<scales pt_clust_5="13000.00000" pt_clust_6="13000.00000" pt_clust_7="13000.00000" pt_clust_8="13000.00000" pt_clust_9="134.88696"></scales>
<clustering>
<clus scale="   80.755">  5  6 -1 -1</clus>
<clus scale="   83.905">  1  5  2 -1</clus>
<clus scale="   91.628">  7  8 -1 -1</clus>
<clus scale="  134.887">  2  9  1 -1</clus>
<clus scale="  134.887">  2  5  1 -1</clus>
</clustering>
</event>
<event>
 9    1  0.1487426E-004  0.1140104E+03  0.7546771E-02  0.1256331E+00
         -4   -1    0    0    0  501 -0.00000000000E+00  0.00000000000E+00  0.29736721347E+03  0.29736721347E+03  0.00000000000E+00 0.  1.
         21   -1    0    0  501  502  0.00000000000E+00 -0.00000000000E+00 -0.25248149267E+03  0.25248149267E+03  0.00000000000E+00 0.  1.
        -24    2    1    2    0    0  0.43192050643E+02 -0.46667314482E+02  0.16426327234E+03  0.19270368773E+03  0.78159434149E+02 0.  0.
         23    2    1    2    0    0 -0.10569231819E+03  0.39996355584E+02  0.69084333220E+02  0.15847779126E+03  0.87017185907E+02 0.  0.
         13    1    3    3    0    0 -0.14188930991E+02 -0.30750339485E+02  0.97643848402E+02  0.10335003760E+03  0.00000000000E+00 0. -1.
        -14    1    3    3    0    0  0.57380981634E+02 -0.15916974997E+02  0.66619423938E+02  0.89353650133E+02  0.00000000000E+00 0.  1.
        -11    1    4    4    0    0 -0.63010064691E+02  0.46794180733E+01 -0.78538685181E+01  0.63669839457E+02  0.00000000000E+00 0. -1.
         11    1    4    4    0    0 -0.42682253495E+02  0.35316937511E+02  0.76938201738E+02  0.94807951803E+02  0.00000000000E+00 0.  1.
         -3    1    1    2    0  502  0.62500267542E+02  0.66709588981E+01 -0.18846188476E+03  0.19866722715E+03  0.00000000000E+00 0.  1.
<scales pt_clust_5="13000.00000" pt_clust_6="13000.00000" pt_clust_7="13000.00000" pt_clust_8="13000.00000" pt_clust_9="62.85527"></scales>
<clustering>
<clus scale="   62.855">  2  9  1 -1</clus>
<clus scale="   78.159">  5  6 -1 -1</clus>
<clus scale="   87.017">  7  8 -1 -1</clus>
<clus scale="  107.402">  1  5  2 -1</clus>
<clus scale="   62.855">  2  5  1 -1</clus>
</clustering>
</event>
<event>
 9    1  0.1487426E-004  0.1419000E+03  0.7546771E-02  0.1223285E+00
         -2   -1    0    0    0  501 -0.00000000000E+00  0.00000000000E+00  0.21733783344E+03  0.21733783344E+03  0.00000000000E+00 0.  1.
         21   -1    0    0  501  502  0.00000000000E+00 -0.00000000000E+00 -0.17541390129E+03  0.17541390129E+03  0.00000000000E+00 0.  1.
        -24    2    1    2    0    0 -0.31543353650E+02 -0.66514270285E+02  0.74293738388E+02  0.13192968200E+03  0.80416106084E+02 0.  0.
         23    2    1    2    0    0 -0.86269211804E+02  0.37489527129E+02  0.55504714572E+01  0.13369934132E+03  0.94851803286E+02 0.  0.
         13    1    3    3    0    0 -0.38313389183E+02 -0.31294314891E+02  0.41672854661E-01  0.49469704586E+02  0.00000000000E+00 0. -1.
        -14    1    3    3    0    0  0.67700355330E+01 -0.35219955394E+02  0.74252065533E+02  0.82459977413E+02  0.00000000000E+00 0.  1.
        -13    1    4    4    0    0  0.78550210948E+01  0.38560068749E+02  0.40173801966E+01  0.39556536779E+02  0.00000000000E+00 0. -1.
         13    1    4    4    0    0 -0.94124232899E+02 -0.10705416196E+01  0.15330912606E+01  0.94142804542E+02  0.00000000000E+00 0.  1.
         -1    1    1    2    0  502  0.11781256545E+03  0.29024743156E+02 -0.37920277697E+02  0.12712271140E+03  0.00000000000E+00 0.  1.
<scales pt_clust_5="13000.00000" pt_clust_6="13000.00000" pt_clust_7="13000.00000" pt_clust_8="13000.00000" pt_clust_9="105.54019"></scales>
<clustering>
<clus scale="   80.416">  5  6 -1 -1</clus>
<clus scale="   94.852">  7  8 -1 -1</clus>
<clus scale="  109.022">  1  5  2 -1</clus>
<clus scale="  105.540">  2  9  1 -1</clus>
<clus scale="  105.540">  2  5  1 -1</clus>
</clustering>
</event>
<event>
 9    1  0.1487426E-004  0.2074494E+03  0.7546771E-02  0.1157651E+00
         -4   -1    0    0    0  501 -0.00000000000E+00  0.00000000000E+00  0.14715261907E+03  0.14715261907E+03  0.00000000000E+00 0.  1.
         21   -1    0    0  501  502  0.00000000000E+00 -0.00000000000E+00 -0.85113126838E+03  0.85113126838E+03  0.00000000000E+00 0.  1.
        -24    2    1    2    0    0 -0.75172226745E+02  0.10079739861E+03 -0.70000102428E+02  0.16441146567E+03  0.79499285925E+02 0.  0.
         23    2    1    2    0    0 -0.13470782419E+03  0.91941163080E+02 -0.46722609657E+03  0.50371462824E+03  0.93961832793E+02 0.  0.
         13    1    3    3    0    0  0.16535191401E+02  0.14237562980E+02 -0.16818839800E+02  0.27549848031E+02  0.00000000000E+00 0. -1.
        -14    1    3    3    0    0 -0.91707418146E+02  0.86559835634E+02 -0.53181262627E+02  0.13686161764E+03  0.00000000000E+00 0.  1.
        -13    1    4    4    0    0 -0.14135330769E+03  0.59167004016E+02 -0.40592245640E+03  0.43388308629E+03  0.00000000000E+00 0.  1.
         13    1    4    4    0    0  0.66454834961E+01  0.32774159064E+02 -0.61303640164E+02  0.69831541946E+02  0.00000000000E+00 0. -1.
         -3    1    1    2    0  502  0.20988005094E+03 -0.19273856169E+03 -0.16675245031E+03  0.33015779353E+03  0.00000000000E+00 0.  1.
<scales pt_clust_5="13000.00000" pt_clust_6="13000.00000" pt_clust_7="13000.00000" pt_clust_8="13000.00000" pt_clust_9="184.94994"></scales>
<clustering>
<clus scale="   79.499">  5  6 -1 -1</clus>
<clus scale="   93.962">  7  8 -1 -1</clus>
<clus scale="  148.765">  1  5  2 -1</clus>
<clus scale="  184.950">  2  9  1 -1</clus>
<clus scale="  184.950">  2  5  1 -1</clus>
</clustering>
</event>
<event>
 9    1  0.1692948E-004  0.1000476E+03  0.7546771E-02  0.1292146E+00
          3   -1    0    0  502    0 -0.00000000000E+00  0.00000000000E+00  0.16216848977E+03  0.16216848977E+03  0.00000000000E+00 0. -1.
         21   -1    0    0  501  502  0.00000000000E+00 -0.00000000000E+00 -0.32094932885E+03  0.32094932885E+03  0.00000000000E+00 0. -1.
         23    2    1    2    0    0 -0.46448605379E+02 -0.17095062818E+02  0.11261520859E+03  0.15197086777E+03  0.89237017714E+02 0.  0.
        -24    2    1    2    0    0 -0.78457236824E+01 -0.13047354858E+02 -0.25919804140E+03  0.26786005752E+03  0.65830060756E+02 0.  0.
         11    1    4    4    0    0 -0.51686018415E+01 -0.34868672524E+02 -0.81354786944E+02  0.88663070820E+02  0.00000000000E+00 0. -1.
        -12    1    4    4    0    0 -0.26771218408E+01  0.21821317666E+02 -0.17784325446E+03  0.17919698670E+03  0.00000000000E+00 0.  1.
        -11    1    3    3    0    0  0.17291658252E+02  0.12956244097E+02  0.32236120756E+01  0.21846221207E+02  0.00000000000E+00 0.  1.
         11    1    3    3    0    0 -0.63740263631E+02 -0.30051306915E+02  0.10939159651E+03  0.13012464656E+03  0.00000000000E+00 0. -1.
          4    1    1    2  501    0  0.54294329061E+02  0.30142417676E+02 -0.12198006268E+02  0.63286893339E+02  0.00000000000E+00 0. -1.
<scales pt_clust_5="13000.00000" pt_clust_6="13000.00000" pt_clust_7="13000.00000" pt_clust_8="13000.00000" pt_clust_9="62.10027"></scales>
<clustering>
<clus scale="   62.100">  2  9  1 -1</clus>
<clus scale="   65.830">  5  6 -1 -1</clus>
<clus scale="   79.874">  2  5  1 -1</clus>
<clus scale="   89.237">  7  8 -1 -1</clus>
<clus scale="   62.100">  2  5  1 -1</clus>
</clustering>
</event>
<event>
 9    1  0.1487426E-004  0.1902474E+03  0.7546771E-02  0.1160256E+00
         21   -1    0    0  501  502  0.00000000000E+00  0.00000000000E+00  0.28517341468E+03  0.28517341468E+03  0.00000000000E+00 0.  1.
          1   -1    0    0  502    0 -0.00000000000E+00 -0.00000000000E+00 -0.20090708949E+03  0.20090708949E+03  0.00000000000E+00 0. -1.
        -24    2    1    2    0    0 -0.12887224824E+03 -0.82167180164E+02 -0.29654376791E+02  0.17211576918E+03  0.73382246316E+02 0.  0.
         23    2    1    2    0    0  0.14968647355E+03  0.13703184884E+03  0.12258892611E+03  0.25464777322E+03  0.92917574436E+02 0.  0.
         13    1    3    3    0    0 -0.66925449316E+02 -0.68964539263E+02  0.11191958170E+02  0.96749074257E+02  0.00000000000E+00 0. -1.
        -14    1    3    3    0    0 -0.61946798924E+02 -0.13202640902E+02 -0.40846334960E+02  0.75366694922E+02  0.00000000000E+00 0.  1.
        -13    1    4    4    0    0  0.10599574960E+03  0.14259182266E+03  0.86012757130E+02  0.19739736880E+03  0.00000000000E+00 0.  1.
         13    1    4    4    0    0  0.43690723954E+02 -0.55599738142E+01  0.36576168981E+02  0.57250404416E+02  0.00000000000E+00 0. -1.
          2    1    1    2  501    0 -0.20814225309E+02 -0.54864668679E+02 -0.86682241346E+01  0.59316961774E+02  0.00000000000E+00 0. -1.
<scales pt_clust_5="13000.00000" pt_clust_6="13000.00000" pt_clust_7="13000.00000" pt_clust_8="13000.00000" pt_clust_9="58.68021"></scales>
<clustering>
<clus scale="   58.680">  1  9  2 -1</clus>
<clus scale="   73.382">  5  6 -1 -1</clus>
<clus scale="   92.918">  7  8 -1 -1</clus>
<clus scale="  181.509">  2  5  1 -1</clus>
<clus scale="   58.680">  1  5  2 -1</clus>
</clustering>
</event>
<event>
 9    1  0.1487426E-004  0.1277040E+03  0.7546771E-02  0.1249395E+00
         21   -1    0    0  501  502  0.00000000000E+00  0.00000000000E+00  0.18037478882E+03  0.18037478882E+03  0.00000000000E+00 0.  1.
          1   -1    0    0  502    0 -0.00000000000E+00 -0.00000000000E+00 -0.20540718309E+03  0.20540718309E+03  0.00000000000E+00 0. -1.
        -24    2    1    2    0    0  0.21465317061E+02  0.30768834904E+02 -0.67652627060E+01  0.87987215553E+02  0.79300064839E+02 0.  0.
         23    2    1    2    0    0  0.36085557626E+02  0.71617308095E+02  0.78662676921E+02  0.14551076760E+03  0.92489785709E+02 0.  0.
         11    1    3    3    0    0 -0.18460551694E+02 -0.11742392913E+02  0.14120538062E+02  0.26039688080E+02  0.00000000000E+00 0. -1.
        -12    1    3    3    0    0  0.39925868754E+02  0.42511227817E+02 -0.20885800768E+02  0.61947527473E+02  0.00000000000E+00 0.  1.
        -13    1    4    4    0    0  0.57618732983E+01  0.41250809050E+02  0.91653050882E+02  0.10067328428E+03  0.00000000000E+00 0.  1.
         13    1    4    4    0    0  0.30323684327E+02  0.30366499046E+02 -0.12990373961E+02  0.44837483327E+02  0.00000000000E+00 0. -1.
          2    1    1    2  501    0 -0.57550874686E+02 -0.10238614300E+03 -0.96929808490E+02  0.15228398875E+03  0.00000000000E+00 0. -1.
<scales pt_clust_5="13000.00000" pt_clust_6="13000.00000" pt_clust_7="13000.00000" pt_clust_8="13000.00000" pt_clust_9="88.05657"></scales>
<clustering>
<clus scale="   79.300">  5  6 -1 -1</clus>
<clus scale="   87.727">  2  5  1 -1</clus>
<clus scale="   88.057">  1  9  2 -1</clus>
<clus scale="   92.490">  7  8 -1 -1</clus>
<clus scale="   88.057">  1  5  2 -1</clus>
</clustering>
</event>
<event>
 9    1  0.1487426E-004  0.1605616E+03  0.7546771E-02  0.1200730E+00
         21   -1    0    0  501  502  0.00000000000E+00  0.00000000000E+00  0.21889464089E+03  0.21889464089E+03  0.00000000000E+00 0. -1.
         -2   -1    0    0    0  501 -0.00000000000E+00 -0.00000000000E+00 -0.60528824777E+03  0.60528824777E+03  0.00000000000E+00 0.  1.
         23    2    1    2    0    0 -0.75955435730E+02 -0.23327053179E+02  0.10986201909E+03  0.16389625531E+03  0.92081157900E+02 0.  0.
        -24    2    1    2    0    0 -0.10120355944E+03 -0.77782785230E+02 -0.32519451876E+02  0.15367065633E+03  0.79150702758E+02 0.  0.
         11    1    4    4    0    0 -0.10822320213E+03 -0.77947224220E+02 -0.14289345978E+02  0.13413506869E+03  0.00000000000E+00 0. -1.
        -12    1    4    4    0    0  0.70196426936E+01  0.16443898961E+00 -0.18230105898E+02  0.19535587649E+02  0.00000000000E+00 0.  1.
        -13    1    3    3    0    0 -0.76359880748E+02  0.60370088885E+00  0.11628385111E+03  0.13911552707E+03  0.00000000000E+00 0. -1.
         13    1    3    3    0    0  0.40444501772E+00 -0.23930754067E+02 -0.64218320167E+01  0.24780728247E+02  0.00000000000E+00 0.  1.
         -1    1    1    2    0  502  0.17715899517E+03  0.10110983841E+03 -0.46373617410E+03  0.50661597701E+03  0.00000000000E+00 0.  1.
<scales pt_clust_5="13000.00000" pt_clust_6="13000.00000" pt_clust_7="13000.00000" pt_clust_8="13000.00000" pt_clust_9="139.69682"></scales>
<clustering>
<clus scale="   79.151">  5  6 -1 -1</clus>
<clus scale="   92.081">  7  8 -1 -1</clus>
<clus scale="  121.624">  2  7  1 -1</clus>
<clus scale="  139.697">  1  9  2 -1</clus>
<clus scale="  139.697">  1  5  2 -1</clus>
</clustering>
</event>
<event>
 9    1  0.1487426E-004  0.1072286E+03  0.7546771E-02  0.1270819E+00
          1   -1    0    0  502    0 -0.00000000000E+00  0.00000000000E+00  0.59085622521E+03  0.59085622521E+03  0.00000000000E+00 0. -1.
         21   -1    0    0  501  502  0.00000000000E+00 -0.00000000000E+00 -0.57227824809E+02  0.57227824809E+02  0.00000000000E+00 0.  1.
         23    2    1    2    0    0 -0.49620354136E+02 -0.65880995562E+02  0.12484193320E+03  0.17562131816E+03  0.91950279963E+02 0.  0.
        -24    2    1    2    0    0  0.42749173524E+02 -0.96188428488E+01  0.46762964614E+02  0.10258646181E+03  0.80107386130E+02 0.  0.
         11    1    4    4    0    0  0.27450428265E+02 -0.10950821690E+02  0.69286246755E+02  0.75326160774E+02  0.00000000000E+00 0. -1.
        -12    1    4    4    0    0  0.15298745259E+02  0.13319788410E+01 -0.22523282141E+02  0.27260301036E+02  0.00000000000E+00 0.  1.
        -11    1    3    3    0    0 -0.75120267940E+00 -0.73720001251E+02  0.80661826402E+02  0.10927732211E+03  0.00000000000E+00 0.  1.
         11    1    3    3    0    0 -0.48869151456E+02  0.78390056889E+01  0.44180106801E+02  0.66343996045E+02  0.00000000000E+00 0. -1.
          2    1    1    2  501    0  0.68711806120E+01  0.75499838411E+02  0.36202350258E+03  0.36987627005E+03  0.00000000000E+00 0. -1.
<scales pt_clust_5="13000.00000" pt_clust_6="13000.00000" pt_clust_7="13000.00000" pt_clust_8="13000.00000" pt_clust_9="75.81190"></scales>
<clustering>
<clus scale="   75.812">  2  9  1 -1</clus>
<clus scale="   80.107">  5  6 -1 -1</clus>
<clus scale="   91.950">  7  8 -1 -1</clus>
<clus scale="   97.264">  2  5  1 -1</clus>
<clus scale="   75.812">  2  5  1 -1</clus>
</clustering>
</event>
<event>
 9    1  0.1487426E-004  0.3408842E+03  0.7546771E-02  0.1111472E+00
         21   -1    0    0  501  502  0.00000000000E+00  0.00000000000E+00  0.84860670744E+02  0.84860670744E+02  0.00000000000E+00 0. -1.
         -4   -1    0    0    0  501 -0.00000000000E+00 -0.00000000000E+00 -0.19399579440E+04  0.19399579440E+04  0.00000000000E+00 0.  1.
         23    2    1    2    0    0  0.38341531196E+02 -0.23519653043E+02 -0.50290835077E+03  0.51340920288E+03  0.92999748596E+02 0.  0.
        -24    2    1    2    0    0 -0.69304342582E+02 -0.31524377575E+03 -0.62172215428E+03  0.70561722039E+03  0.84708290807E+02 0.  0.
         11    1    4    4    0    0 -0.47187027194E+02 -0.30583477842E+03 -0.58310648145E+03  0.66013233214E+03  0.00000000000E+00 0. -1.
        -12    1    4    4    0    0 -0.22117315389E+02 -0.94089973363E+01 -0.38615672828E+02  0.45484888247E+02  0.00000000000E+00 0.  1.
        -11    1    3    3    0    0  0.64424412172E+02 -0.32525416421E+02 -0.41636220132E+03  0.42257057432E+03  0.00000000000E+00 0.  1.
         11    1    3    3    0    0 -0.26082880976E+02  0.90057633783E+01 -0.86546149449E+02  0.90838628560E+02  0.00000000000E+00 0. -1.
         -3    1    1    2    0  502  0.30962811386E+02  0.33876342880E+03 -0.73046676817E+03  0.80579219144E+03  0.00000000000E+00 0.  1.
<scales pt_clust_5="13000.00000" pt_clust_6="13000.00000" pt_clust_7="13000.00000" pt_clust_8="13000.00000" pt_clust_9="330.19185"></scales>
<clustering>
<clus scale="   84.708">  5  6 -1 -1</clus>
<clus scale="   93.000">  7  8 -1 -1</clus>
<clus scale="  103.306">  2  7  1 -1</clus>
<clus scale="  330.192">  1  9  2 -1</clus>
<clus scale="  330.192">  1  5  2 -1</clus>
</clustering>
</event>
<event>
 9    1  0.2149439E-004  0.1469851E+03  0.7546771E-02  0.1206359E+00
          1   -1    0    0  502    0 -0.00000000000E+00  0.00000000000E+00  0.26169603050E+03  0.26169603050E+03  0.00000000000E+00 0. -1.
         21   -1    0    0  501  502  0.00000000000E+00 -0.00000000000E+00 -0.39272252401E+03  0.39272252401E+03  0.00000000000E+00 0. -1.
        -24    2    1    2    0    0  0.38012605208E+02  0.92990746533E+02 -0.32669496292E+00  0.12971353122E+03  0.82056421788E+02 0.  0.
         23    2    1    2    0    0 -0.78341888734E+02 -0.16204748195E+03 -0.28574597187E+03  0.35024987238E+03  0.92883662311E+02 0.  0.
         11    1    3    3    0    0 -0.22829792485E+02  0.40569446129E+02  0.12934523803E+02  0.48315435319E+02  0.00000000000E+00 0. -1.
        -12    1    3    3    0    0  0.60842397693E+02  0.52421300404E+02 -0.13261218766E+02  0.81398095901E+02  0.00000000000E+00 0.  1.
        -13    1    4    4    0    0 -0.84372266175E+02 -0.73663550258E+02 -0.13514808674E+03  0.17552778494E+03  0.00000000000E+00 0.  1.
         13    1    4    4    0    0  0.60303774414E+01 -0.88383931692E+02 -0.15059788513E+03  0.17472208744E+03  0.00000000000E+00 0. -1.
          2    1    1    2  501    0  0.40329283525E+02  0.69056735418E+02  0.15504617332E+03  0.17445515091E+03  0.00000000000E+00 0. -1.
<scales pt_clust_5="13000.00000" pt_clust_6="13000.00000" pt_clust_7="13000.00000" pt_clust_8="13000.00000" pt_clust_9="79.97056"></scales>
<clustering>
<clus scale="   79.971">  2  9  1 -1</clus>
<clus scale="   82.056">  5  6 -1 -1</clus>
<clus scale="   92.884">  7  8 -1 -1</clus>
<clus scale="  140.394">  1  5  2 -1</clus>
<clus scale="   79.971">  2  5  1 -1</clus>
</clustering>
</event>
<event>
 9    1  0.1487426E-004  0.1736990E+03  0.7546771E-02  0.1198490E+00
         21   -1    0    0  501  502  0.00000000000E+00  0.00000000000E+00  0.23810528931E+03  0.23810528931E+03  0.00000000000E+00 0.  1.
         -2   -1    0    0    0  501 -0.00000000000E+00 -0.00000000000E+00 -0.42414736248E+03  0.42414736248E+03  0.00000000000E+00 0.  1.
        -24    2    1    2    0    0 -0.30741416535E+01  0.60598172023E+02 -0.16807096697E+03  0.19600828305E+03  0.80559346362E+02 0.  0.
         23    2    1    2    0    0 -0.14053751107E+03 -0.88893498460E+02 -0.17027493100E+03  0.25500661798E+03  0.91553137584E+02 0.  0.
         11    1    3    3    0    0  0.11464503255E+01  0.53416296691E+02 -0.37744999734E+02  0.65416359616E+02  0.00000000000E+00 0. -1.
        -12    1    3    3    0    0 -0.42205919789E+01  0.71818753321E+01 -0.13032596723E+03  0.13059192343E+03  0.00000000000E+00 0.  1.
        -13    1    4    4    0    0 -0.11964519042E+03 -0.43664808788E+02 -0.15936201744E+03  0.20400450907E+03  0.00000000000E+00 0.  1.
         13    1    4    4    0    0 -0.20892320644E+02 -0.45228689672E+02 -0.10912913565E+02  0.51002108915E+02  0.00000000000E+00 0. -1.
         -1    1    1    2    0  502  0.14361165272E+03  0.28295326437E+02  0.15230382480E+03  0.21123775075E+03  0.00000000000E+00 0.  1.
<scales pt_clust_5="13000.00000" pt_clust_6="13000.00000" pt_clust_7="13000.00000" pt_clust_8="13000.00000" pt_clust_9="147.61227"></scales>
<clustering>
<clus scale="   80.559">  5  6 -1 -1</clus>
<clus scale="   91.553">  7  8 -1 -1</clus>
<clus scale="  100.853">  2  5  1 -1</clus>
<clus scale="  147.612">  1  9  2 -1</clus>
<clus scale="  147.612">  1  5  2 -1</clus>
</clustering>
</event>
<event>
 9    1  0.1487426E-004  0.2924287E+03  0.7546771E-02  0.1120777E+00
         21   -1    0    0  501  502  0.00000000000E+00  0.00000000000E+00  0.15502736622E+03  0.15502736622E+03  0.00000000000E+00 0. -1.
          1   -1    0    0  502    0 -0.00000000000E+00 -0.00000000000E+00 -0.13942380654E+04  0.13942380654E+04  0.00000000000E+00 0. -1.
        -24    2    1    2    0    0  0.57063665245E+02 -0.83097555439E+02 -0.28134023710E+03  0.30969312966E+03  0.81216007877E+02 0.  0.
         23    2    1    2    0    0 -0.24492074098E+03 -0.12611381683E+03 -0.90902872658E+03  0.95418625756E+03  0.90814779675E+02 0.  0.
         11    1    3    3    0    0  0.67476619607E+02 -0.86233175303E+02 -0.20341564288E+03  0.23101337296E+03  0.00000000000E+00 0. -1.
        -12    1    3    3    0    0 -0.10412954362E+02  0.31356198643E+01 -0.77924594217E+02  0.78679756700E+02  0.00000000000E+00 0.  1.
        -11    1    4    4    0    0 -0.18371634985E+03 -0.50574199795E+02 -0.65628356389E+03  0.68338683271E+03  0.00000000000E+00 0. -1.
         11    1    4    4    0    0 -0.61204391130E+02 -0.75539617038E+02 -0.25274516268E+03  0.27079942484E+03  0.00000000000E+00 0.  1.
          2    1    1    2  501    0  0.18785707574E+03  0.20921137227E+03 -0.48841735469E+02  0.28538604436E+03  0.00000000000E+00 0. -1.
<scales pt_clust_5="13000.00000" pt_clust_6="13000.00000" pt_clust_7="13000.00000" pt_clust_8="13000.00000" pt_clust_9="277.96985"></scales>
<clustering>
<clus scale="   81.216">  5  6 -1 -1</clus>
<clus scale="   90.815">  7  8 -1 -1</clus>
<clus scale="  129.451">  2  5  1 -1</clus>
<clus scale="  277.970">  1  9  2 -1</clus>
<clus scale="  277.970">  1  5  2 -1</clus>
</clustering>
</event>
<event>
 9    1  0.1487426E-004  0.1817947E+03  0.7546771E-02  0.1167382E+00
         -4   -1    0    0    0  501 -0.00000000000E+00  0.00000000000E+00  0.35730595094E+03  0.35730595094E+03  0.00000000000E+00 0.  1.
         21   -1    0    0  501  502  0.00000000000E+00 -0.00000000000E+00 -0.16425875398E+03  0.16425875398E+03  0.00000000000E+00 0.  1.
        -24    2    1    2    0    0  0.23582162607E+02 -0.16298199066E+03  0.11591143355E+03  0.21683254489E+03  0.80384354337E+02 0.  0.
         23    2    1    2    0    0 -0.10880516322E+03  0.11961468502E+03  0.66741138596E+01  0.18595283906E+03  0.91584267979E+02 0.  0.
         13    1    3    3    0    0 -0.10154451613E+02 -0.12718060932E+03  0.10768844790E+03  0.16695754576E+03  0.00000000000E+00 0. -1.
        -14    1    3    3    0    0  0.33736614220E+02 -0.35801381347E+02  0.82229856425E+01  0.49874999130E+02  0.00000000000E+00 0.  1.
        -13    1    4    4    0    0 -0.65017455649E+02  0.12013811746E+03 -0.14390421026E+02  0.13735909516E+03  0.00000000000E+00 0.  1.
         13    1    4    4    0    0 -0.43787707573E+02 -0.52343243900E+00  0.21064534886E+02  0.48593743898E+02  0.00000000000E+00 0. -1.
         -3    1    1    2    0  502  0.85223000616E+02  0.43367305644E+02  0.70461649554E+02  0.11877932097E+03  0.00000000000E+00 0.  1.
<scales pt_clust_5="13000.00000" pt_clust_6="13000.00000" pt_clust_7="13000.00000" pt_clust_8="13000.00000" pt_clust_9="95.62266"></scales>
<clustering>
<clus scale="   80.384">  5  6 -1 -1</clus>
<clus scale="   91.584">  7  8 -1 -1</clus>
<clus scale="   95.623">  2  9  1 -1</clus>
<clus scale="  176.418">  1  5  2 -1</clus>
<clus scale="   95.623">  2  5  1 -1</clus>
</clustering>
</event>
<event>
 9    1  0.1487426E-004  0.1153658E+03  0.7546771E-02  0.1254266E+00
          1   -1    0    0  502    0 -0.00000000000E+00  0.00000000000E+00  0.99295536288E+02  0.99295536288E+02  0.00000000000E+00 0. -1.
         21   -1    0    0  501  502  0.00000000000E+00 -0.00000000000E+00 -0.25646223154E+03  0.25646223154E+03  0.00000000000E+00 0. -1.
        -24    2    1    2    0    0 -0.24430513826E+02 -0.65728409286E+02  0.11583115884E+02  0.10705281652E+03  0.80056624695E+02 0.  0.
         23    2    1    2    0    0  0.56047940904E+02  0.65540511107E+02 -0.17666481648E+03  0.21611132754E+03  0.89759223675E+02 0.  0.
         11    1    3    3    0    0 -0.47048173075E+02 -0.41417166233E+02  0.29551109857E+02  0.69297765780E+02  0.00000000000E+00 0. -1.
        -12    1    3    3    0    0  0.22617659249E+02 -0.24311243054E+02 -0.17967993973E+02  0.37755050736E+02  0.00000000000E+00 0.  1.
        -11    1    4    4    0    0  0.41432702271E+02 -0.39338768523E+00 -0.21052369512E+02  0.46476078077E+02  0.00000000000E+00 0.  1.
         11    1    4    4    0    0  0.14615238633E+02  0.65933898792E+02 -0.15561244696E+03  0.16963524946E+03  0.00000000000E+00 0. -1.
          2    1    1    2  501    0 -0.31617427078E+02  0.18789817941E+00  0.79150053424E+01  0.32593623768E+02  0.00000000000E+00 0. -1.
<scales pt_clust_5="13000.00000" pt_clust_6="13000.00000" pt_clust_7="13000.00000" pt_clust_8="13000.00000" pt_clust_9="31.61800"></scales>
<clustering>
<clus scale="   31.618">  2  9  1 -1</clus>
<clus scale="   80.057">  5  6 -1 -1</clus>
<clus scale="   89.759">  7  8 -1 -1</clus>
<clus scale="  107.989">  1  5  2 -1</clus>
<clus scale="   31.618">  2  5  1 -1</clus>
</clustering>
</event>
<event>
 9    1  0.1487426E-004  0.1893147E+03  0.7546771E-02  0.1160735E+00
         21   -1    0    0  501  502  0.00000000000E+00  0.00000000000E+00  0.58796126830E+03  0.58796126830E+03  0.00000000000E+00 0.  1.
         -4   -1    0    0    0  501 -0.00000000000E+00 -0.00000000000E+00 -0.16876174025E+03  0.16876174025E+03  0.00000000000E+00 0.  1.
         23    2    1    2    0    0 -0.15192650950E+02  0.16843024266E+03  0.93260582363E+02  0.21461484217E+03  0.93607857435E+02 0.  0.
        -24    2    1    2    0    0 -0.16988379174E+03 -0.11370954261E+03  0.88001267235E+02  0.23573913485E+03  0.77706845831E+02 0.  0.
         11    1    4    4    0    0 -0.50743993800E+02  0.35042131882E+01  0.28665311535E+02  0.58386064282E+02  0.00000000000E+00 0. -1.
        -12    1    4    4    0    0 -0.11913979794E+03 -0.11721375580E+03  0.59335955699E+02  0.17735307057E+03  0.00000000000E+00 0.  1.
        -13    1    3    3    0    0 -0.51076962250E+02  0.13431327535E+03  0.72055327121E+02  0.16075099432E+03  0.00000000000E+00 0.  1.
         13    1    3    3    0    0  0.35884311300E+02  0.34116967306E+02  0.21205255243E+02  0.53863847853E+02  0.00000000000E+00 0. -1.
         -3    1    1    2    0  502  0.18507644269E+03 -0.54720700044E+02  0.23793767845E+03  0.30636903152E+03  0.00000000000E+00 0.  1.
<scales pt_clust_5="13000.00000" pt_clust_6="13000.00000" pt_clust_7="13000.00000" pt_clust_8="13000.00000" pt_clust_9="192.99649"></scales>
<clustering>
<clus scale="   77.707">  5  6 -1 -1</clus>
<clus scale="   93.608">  7  8 -1 -1</clus>
<clus scale="  192.996">  1  9  2 -1</clus>
<clus scale="  192.996">  1  5  2 -1</clus>
<clus scale="  189.315">  1  5  2 -1</clus>
</clustering>
</event>
<event>
 9    1  0.1487426E-004  0.9350221E+02  0.7546771E-02  0.1300920E+00
         21   -1    0    0  501  502  0.00000000000E+00  0.00000000000E+00  0.93395542311E+02  0.93395542311E+02  0.00000000000E+00 0. -1.
          3   -1    0    0  502    0 -0.00000000000E+00 -0.00000000000E+00 -0.26058461465E+03  0.26058461465E+03  0.00000000000E+00 0. -1.
        -24    2    1    2    0    0 -0.26723757461E+02 -0.50682239322E+01 -0.18981894240E+03  0.20789317833E+03  0.80302531684E+02 0.  0.
         23    2    1    2    0    0  0.28097924644E+00 -0.68939233698E+01 -0.21066158693E+02  0.93630745280E+02  0.90968831425E+02 0.  0.
         11    1    3    3    0    0  0.53839399235E+01 -0.36407833504E+02 -0.58432433812E+02  0.69056979884E+02  0.00000000000E+00 0. -1.
        -12    1    3    3    0    0 -0.32107697385E+02  0.31339609571E+02 -0.13138650859E+03  0.13883619845E+03  0.00000000000E+00 0.  1.
        -11    1    4    4    0    0  0.36612047024E+02  0.23016549476E+02 -0.34536992002E+01  0.43383540372E+02  0.00000000000E+00 0.  1.
         11    1    4    4    0    0 -0.36331067777E+02 -0.29910472845E+02 -0.17612459493E+02  0.50247204908E+02  0.00000000000E+00 0. -1.
          4    1    1    2  501    0  0.26442778215E+02  0.11962147302E+02  0.43696028759E+02  0.52456233348E+02  0.00000000000E+00 0. -1.
<scales pt_clust_5="13000.00000" pt_clust_6="13000.00000" pt_clust_7="13000.00000" pt_clust_8="13000.00000" pt_clust_9="29.02264"></scales>
<clustering>
<clus scale="   29.023">  1  9  2 -1</clus>
<clus scale="   80.303">  5  6 -1 -1</clus>
<clus scale="   83.161">  2  5  1 -1</clus>
<clus scale="   90.969">  7  8 -1 -1</clus>
<clus scale="   29.023">  1  5  2 -1</clus>
</clustering>
</event>
<event>
 9    1  0.1487426E-004  0.9634525E+02  0.7546771E-02  0.1293599E+00
         21   -1    0    0  501  502  0.00000000000E+00  0.00000000000E+00  0.11093185722E+03  0.11093185722E+03  0.00000000000E+00 0. -1.
         -4   -1    0    0    0  501 -0.00000000000E+00 -0.00000000000E+00 -0.31672523028E+03  0.31672523028E+03  0.00000000000E+00 0.  1.
        -24    2    1    2    0    0 -0.30158572315E+02  0.17576436886E+02 -0.20008218252E+03  0.21878266435E+03  0.81329600036E+02 0.  0.
         23    2    1    2    0    0 -0.38133835315E+02 -0.47740891666E+02  0.44972740092E+02  0.11863802198E+03  0.91208830572E+02 0.  0.
         11    1    3    3    0    0 -0.51429643144E+02 -0.11282798964E+02 -0.11887979257E+03  0.13001813269E+03  0.00000000000E+00 0. -1.
        -12    1    3    3    0    0  0.21271070829E+02  0.28859235850E+02 -0.81202389948E+02  0.88764531663E+02  0.00000000000E+00 0.  1.
        -13    1    4    4    0    0  0.23225598029E+02  0.55963267357E+01  0.25690016983E+02  0.35081679682E+02  0.00000000000E+00 0.  1.
         13    1    4    4    0    0 -0.61359433344E+02 -0.53337218402E+02  0.19282723108E+02  0.83556342294E+02  0.00000000000E+00 0. -1.
         -3    1    1    2    0  502  0.68292407631E+02  0.30164454780E+02 -0.50683930626E+02  0.90236401168E+02  0.00000000000E+00 0.  1.
<scales pt_clust_5="13000.00000" pt_clust_6="13000.00000" pt_clust_7="13000.00000" pt_clust_8="13000.00000" pt_clust_9="74.65757"></scales>
<clustering>
<clus scale="   74.658">  1  9  2 -1</clus>
<clus scale="   81.330">  5  6 -1 -1</clus>
<clus scale="   87.051">  2  5  1 -1</clus>
<clus scale="   91.209">  7  8 -1 -1</clus>
<clus scale="   74.658">  1  5  2 -1</clus>
</clustering>
</event>
<event>
 9    1  0.1487426E-004  0.1392580E+03  0.7546771E-02  0.1217073E+00
          1   -1    0    0  502    0 -0.00000000000E+00  0.00000000000E+00  0.40113769803E+03  0.40113769803E+03  0.00000000000E+00 0. -1.
         21   -1    0    0  501  502  0.00000000000E+00 -0.00000000000E+00 -0.21010988087E+03  0.21010988087E+03  0.00000000000E+00 0.  1.
        -24    2    1    2    0    0 -0.55003624521E+02  0.94857127475E+02  0.27969701022E+03  0.31057356113E+03  0.78754339597E+02 0.  0.
         23    2    1    2    0    0 -0.65442625326E+02 -0.10775198932E+03 -0.89520568926E+02  0.17953648681E+03  0.91247955717E+02 0.  0.
         11    1    3    3    0    0 -0.16676672070E+02  0.80691521908E+02  0.23940774923E+03  0.25319025157E+03  0.00000000000E+00 0. -1.
        -12    1    3    3    0    0 -0.38326952452E+02  0.14165605567E+02  0.40289260996E+02  0.57383309567E+02  0.00000000000E+00 0.  1.
        -11    1    4    4    0    0 -0.83300168278E+02 -0.73566954274E+02 -0.86536390464E+02  0.14085297892E+03  0.00000000000E+00 0.  1.
         11    1    4    4    0    0  0.17857542952E+02 -0.34185035045E+02 -0.29841784626E+01  0.38683507887E+02  0.00000000000E+00 0. -1.
          2    1    1    2  501    0  0.12044624985E+03  0.12894861844E+02  0.85137586466E+00  0.12113753095E+03  0.00000000000E+00 0. -1.
<scales pt_clust_5="13000.00000" pt_clust_6="13000.00000" pt_clust_7="13000.00000" pt_clust_8="13000.00000" pt_clust_9="121.13454"></scales>
<clustering>
<clus scale="   78.754">  5  6 -1 -1</clus>
<clus scale="   91.248">  7  8 -1 -1</clus>
<clus scale="  121.135">  2  9  1 -1</clus>
<clus scale="  131.411">  1  5  2 -1</clus>
<clus scale="  121.135">  2  5  1 -1</clus>
</clustering>
</event>
<event>
 9    1  0.1487426E-004  0.9781661E+02  0.7546771E-02  0.1290073E+00
          1   -1    0    0  502    0 -0.00000000000E+00  0.00000000000E+00  0.42465550446E+03  0.42465550446E+03  0.00000000000E+00 0. -1.
         21   -1    0    0  501  502  0.00000000000E+00 -0.00000000000E+00 -0.50967944152E+02  0.50967944152E+02  0.00000000000E+00 0. -1.
        -24    2    1    2    0    0  0.53343714008E+02 -0.35031449187E+01  0.23405669294E+03  0.25311320763E+03  0.80161939317E+02 0.  0.
         23    2    1    2    0    0 -0.10631788311E+02 -0.32116371407E+02  0.13628986703E+03  0.16679470613E+03  0.90005832607E+02 0.  0.
         11    1    3    3    0    0  0.64747722327E+02 -0.45188704202E+01  0.23270202760E+03  0.24158419110E+03  0.00000000000E+00 0. -1.
        -12    1    3    3    0    0 -0.11404008319E+02  0.10157255015E+01  0.13546653408E+01  0.11529016533E+02  0.00000000000E+00 0.  1.
        -11    1    4    4    0    0  0.15511298470E+02  0.12950402557E+02  0.10300769153E+03  0.10497093799E+03  0.00000000000E+00 0.  1.
         11    1    4    4    0    0 -0.26143086781E+02 -0.45066773964E+02  0.33282175499E+02  0.61823768147E+02  0.00000000000E+00 0. -1.
          2    1    1    2  501    0 -0.42711925697E+02  0.35619516325E+02  0.33410003260E+01  0.55715534846E+02  0.00000000000E+00 0. -1.
<scales pt_clust_5="13000.00000" pt_clust_6="13000.00000" pt_clust_7="13000.00000" pt_clust_8="13000.00000" pt_clust_9="55.61527"></scales>
<clustering>
<clus scale="   55.615">  2  9  1 -1</clus>
<clus scale="   80.162">  5  6 -1 -1</clus>
<clus scale="   88.842">  1  5  2 -1</clus>
<clus scale="   90.006">  7  8 -1 -1</clus>
<clus scale="   55.615">  2  5  1 -1</clus>
</clustering>
</event>
<event>
 9    1  0.1487426E-004  0.1710258E+03  0.7546771E-02  0.1178038E+00
          1   -1    0    0  502    0 -0.00000000000E+00  0.00000000000E+00  0.59377122465E+03  0.59377122465E+03  0.00000000000E+00 0. -1.
         21   -1    0    0  501  502  0.00000000000E+00 -0.00000000000E+00 -0.18162303867E+03  0.18162303867E+03  0.00000000000E+00 0.  1.
         23    2    1    2    0    0 -0.68955862449E+02 -0.12376926463E+03  0.49945025316E+03  0.52718873100E+03  0.91671483473E+02 0.  0.
        -24    2    1    2    0    0  0.65873445292E+02  0.16129571615E+03 -0.84509922152E+02  0.21044931518E+03  0.82409759588E+02 0.  0.
         11    1    4    4    0    0  0.39124167607E+02  0.90233976793E+02 -0.20726918926E+01  0.98372593290E+02  0.00000000000E+00 0. -1.
        -12    1    4    4    0    0  0.26749277685E+02  0.71061739354E+02 -0.82437230260E+02  0.11207672189E+03  0.00000000000E+00 0.  1.
        -13    1    3    3    0    0 -0.40907213845E+02 -0.98596846189E+01  0.67072813572E+02  0.79179390285E+02  0.00000000000E+00 0.  1.
         13    1    3    3    0    0 -0.28048648604E+02 -0.11390958001E+03  0.43237743959E+03  0.44800934072E+03  0.00000000000E+00 0. -1.
          2    1    1    2  501    0  0.30824171571E+01 -0.37526451513E+02 -0.27921450302E+01  0.37756217138E+02  0.00000000000E+00 0. -1.
<scales pt_clust_5="13000.00000" pt_clust_6="13000.00000" pt_clust_7="13000.00000" pt_clust_8="13000.00000" pt_clust_9="37.65283"></scales>
<clustering>
<clus scale="   37.653">  2  9  1 -1</clus>
<clus scale="   82.410">  5  6 -1 -1</clus>
<clus scale="   91.671">  7  8 -1 -1</clus>
<clus scale="  166.245">  2  5  1 -1</clus>
<clus scale="   37.653">  2  5  1 -1</clus>
</clustering>
</event>
<event>
 9    1  0.1487426E-004  0.1345012E+03  0.7546771E-02  0.1224193E+00
          1   -1    0    0  502    0 -0.00000000000E+00  0.00000000000E+00  0.35111043221E+03  0.35111043221E+03  0.00000000000E+00 0. -1.
         21   -1    0    0  501  502  0.00000000000E+00 -0.00000000000E+00 -0.24869497022E+03  0.24869497022E+03  0.00000000000E+00 0.  1.
         23    2    1    2    0    0  0.42394592254E+02 -0.89984378658E+02  0.31457937251E+03  0.34268314531E+03  0.92612453891E+02 0.  0.
        -24    2    1    2    0    0 -0.11291170597E+02  0.73384856574E+02 -0.17477476481E+03  0.20573242167E+03  0.79163016637E+02 0.  0.
         11    1    4    4    0    0  0.10287598043E+02  0.66914833062E+02 -0.65642914510E+02  0.94299638295E+02  0.00000000000E+00 0. -1.
        -12    1    4    4    0    0 -0.21578768641E+02  0.64700235113E+01 -0.10913185030E+03  0.11143278337E+03  0.00000000000E+00 0.  1.
        -13    1    3    3    0    0  0.21139178201E+02 -0.98760959573E+02  0.18219326045E+03  0.20831460857E+03  0.00000000000E+00 0. -1.
         13    1    3    3    0    0  0.21255414053E+02  0.87765809145E+01  0.13238611205E+03  0.13436853673E+03  0.00000000000E+00 0.  1.
          2    1    1    2  501    0 -0.31103421657E+02  0.16599522085E+02 -0.37389145709E+02  0.51389835465E+02  0.00000000000E+00 0. -1.
<scales pt_clust_5="13000.00000" pt_clust_6="13000.00000" pt_clust_7="13000.00000" pt_clust_8="13000.00000" pt_clust_9="35.25574"></scales>
<clustering>
<clus scale="   35.256">  2  9  1 -1</clus>
<clus scale="   79.163">  5  6 -1 -1</clus>
<clus scale="   92.612">  7  8 -1 -1</clus>
<clus scale="  125.620">  2  5  1 -1</clus>
<clus scale="   35.256">  2  5  1 -1</clus>
</clustering>
</event>
<event>
 9    1  0.1487426E-004  0.2274849E+03  0.7546771E-02  0.1129329E+00
         21   -1    0    0  501  502  0.00000000000E+00  0.00000000000E+00  0.80693301902E+03  0.80693301902E+03  0.00000000000E+00 0. -1.
         -2   -1    0    0    0  501 -0.00000000000E+00 -0.00000000000E+00 -0.11324353932E+03  0.11324353932E+03  0.00000000000E+00 0.  1.
        -24    2    1    2    0    0  0.46918158645E+02 -0.21178602268E+03  0.56708551784E+02  0.23807850739E+03  0.80067988751E+02 0.  0.
         23    2    1    2    0    0 -0.21917105105E+02  0.17235058600E+03  0.52414465421E+03  0.55998240491E+03  0.93099899488E+02 0.  0.
         11    1    3    3    0    0  0.34324078570E+02 -0.20353192064E+03  0.70041565123E+02  0.21796606601E+03  0.00000000000E+00 0. -1.
        -12    1    3    3    0    0  0.12594080075E+02 -0.82541020412E+01 -0.13333013339E+02  0.20112441377E+02  0.00000000000E+00 0.  1.
        -13    1    4    4    0    0 -0.57067458489E+02  0.94820617907E+02  0.32783111544E+03  0.34600705867E+03  0.00000000000E+00 0.  1.
         13    1    4    4    0    0  0.35150353384E+02  0.77529968093E+02  0.19631353877E+03  0.21397534624E+03  0.00000000000E+00 0. -1.
         -1    1    1    2    0  502 -0.25001053540E+02  0.39435436677E+02  0.11283627371E+03  0.12211564604E+03  0.00000000000E+00 0.  1.
<scales pt_clust_5="13000.00000" pt_clust_6="13000.00000" pt_clust_7="13000.00000" pt_clust_8="13000.00000" pt_clust_9="46.69268"></scales>
<clustering>
<clus scale="   46.693">  1  9  2 -1</clus>
<clus scale="   80.068">  5  6 -1 -1</clus>
<clus scale="   93.100">  7  8 -1 -1</clus>
<clus scale="  222.469">  2  5  1 -1</clus>
<clus scale="   46.693">  1  5  2 -1</clus>
</clustering>
</event>
<event>
 9    1  0.1487426E-004  0.1265771E+03  0.7546771E-02  0.1234075E+00
         21   -1    0    0  501  502  0.00000000000E+00  0.00000000000E+00  0.41285057830E+02  0.41285057830E+02  0.00000000000E+00 0.  1.
          1   -1    0    0  502    0 -0.00000000000E+00 -0.00000000000E+00 -0.16361864353E+04  0.16361864353E+04  0.00000000000E+00 0. -1.
         23    2    1    2    0    0 -0.39458890171E+02  0.80046032172E+02 -0.40120774101E+03  0.42091641032E+03  0.90766743634E+02 0.  0.
        -24    2    1    2    0    0  0.13561006947E+03 -0.35564267038E+01 -0.20310551155E+03  0.25837647042E+03  0.84284117911E+02 0.  0.
         11    1    4    4    0    0  0.81734286109E+02 -0.35307502288E+02 -0.15769099528E+03  0.18108993135E+03  0.00000000000E+00 0. -1.
        -12    1    4    4    0    0  0.53875783359E+02  0.31751075584E+02 -0.45414516270E+02  0.77286539070E+02  0.00000000000E+00 0.  1.
        -11    1    3    3    0    0 -0.65880006572E+02  0.73962705302E+02 -0.28988445579E+03  0.30633911724E+03  0.00000000000E+00 0. -1.
         11    1    3    3    0    0  0.26421116401E+02  0.60833268696E+01 -0.11132328522E+03  0.11457729308E+03  0.00000000000E+00 0.  1.
          2    1    1    2  501    0 -0.96151179298E+02 -0.76489605468E+02 -0.99058812486E+03  0.99817861235E+03  0.00000000000E+00 0. -1.
<scales pt_clust_5="13000.00000" pt_clust_6="13000.00000" pt_clust_7="13000.00000" pt_clust_8="13000.00000" pt_clust_9="122.86466"></scales>
<clustering>
<clus scale="   84.284">  5  6 -1 -1</clus>
<clus scale="   90.767">  7  8 -1 -1</clus>
<clus scale="  122.865">  1  9  2 -1</clus>
<clus scale="  122.865">  1  5  2 -1</clus>
<clus scale="  122.865">  1  5  2 -1</clus>
</clustering>
</event>
<event>
 9    1  0.1487426E-004  0.1159092E+03  0.7546771E-02  0.1251994E+00
          3   -1    0    0  502    0 -0.00000000000E+00  0.00000000000E+00  0.64048281558E+03  0.64048281558E+03  0.00000000000E+00 0. -1.
         21   -1    0    0  501  502  0.00000000000E+00 -0.00000000000E+00 -0.43223185928E+02  0.43223185928E+02  0.00000000000E+00 0.  1.
        -24    2    1    2    0    0 -0.14755356681E+02 -0.34160944493E+02  0.12203035413E+03  0.15102119257E+03  0.80816474790E+02 0.  0.
         23    2    1    2    0    0  0.15400345917E+02  0.12262215496E+03  0.32355445844E+03  0.35709707615E+03  0.86933714246E+02 0.  0.
         13    1    3    3    0    0  0.20353327051E+02 -0.30877095115E+02  0.17907086510E+02  0.41089130826E+02  0.00000000000E+00 0. -1.
        -14    1    3    3    0    0 -0.35108683732E+02 -0.32838493782E+01  0.10412326762E+03  0.10993206174E+03  0.00000000000E+00 0.  1.
        -13    1    4    4    0    0 -0.17585275706E+02  0.10457367194E+03  0.18205232700E+03  0.21068446680E+03  0.00000000000E+00 0.  1.
         13    1    4    4    0    0  0.32985621623E+02  0.18048483025E+02  0.14150213144E+03  0.14641260935E+03  0.00000000000E+00 0. -1.
          4    1    1    2  501    0 -0.64498923553E+00 -0.88461210472E+02  0.15167481708E+03  0.17558773278E+03  0.00000000000E+00 0. -1.
<scales pt_clust_5="13000.00000" pt_clust_6="13000.00000" pt_clust_7="13000.00000" pt_clust_8="13000.00000" pt_clust_9="88.46356"></scales>
<clustering>
<clus scale="   80.816">  5  6 -1 -1</clus>
<clus scale="   86.934">  7  8 -1 -1</clus>
<clus scale="   88.464">  2  9  1 -1</clus>
<clus scale="  111.395">  1  5  2 -1</clus>
<clus scale="   88.464">  2  5  1 -1</clus>
</clustering>
</event>
<event>
 9    1  0.1487426E-004  0.1456874E+03  0.7546771E-02  0.1208348E+00
          1   -1    0    0  502    0 -0.00000000000E+00  0.00000000000E+00  0.50735019171E+03  0.50735019171E+03  0.00000000000E+00 0. -1.
         21   -1    0    0  501  502  0.00000000000E+00 -0.00000000000E+00 -0.56895304914E+02  0.56895304914E+02  0.00000000000E+00 0. -1.
         23    2    1    2    0    0 -0.71513964641E+02 -0.92266838978E+02  0.27582957366E+03  0.31454173497E+03  0.96057964901E+02 0.  0.
        -24    2    1    2    0    0  0.53430637003E+02  0.79969470512E+02  0.76063205361E+02  0.14874475463E+03  0.84198822053E+02 0.  0.
         11    1    4    4    0    0  0.75593419891E+02  0.54985698423E+02  0.47775845748E+02  0.10497772906E+03  0.00000000000E+00 0. -1.
        -12    1    4    4    0    0 -0.22162782888E+02  0.24983772089E+02  0.28287359613E+02  0.43767025567E+02  0.00000000000E+00 0.  1.
        -13    1    3    3    0    0 -0.26369549375E+02  0.43406171535E+01  0.10727927397E+02  0.28797265803E+02  0.00000000000E+00 0.  1.
         13    1    3    3    0    0 -0.45144415266E+02 -0.96607456132E+02  0.26510164626E+03  0.28574446917E+03  0.00000000000E+00 0. -1.
          2    1    1    2  501    0  0.18083327639E+02  0.12297368467E+02  0.98562107779E+02  0.10095900702E+03  0.00000000000E+00 0. -1.
<scales pt_clust_5="13000.00000" pt_clust_6="13000.00000" pt_clust_7="13000.00000" pt_clust_8="13000.00000" pt_clust_9="21.86853"></scales>
<clustering>
<clus scale="   21.869">  2  9  1 -1</clus>
<clus scale="   84.199">  5  6 -1 -1</clus>
<clus scale="   96.058">  7  8 -1 -1</clus>
<clus scale="  138.156">  2  5  1 -1</clus>
<clus scale="   21.869">  2  5  1 -1</clus>
</clustering>
</event>
<event>
 9    1  0.1487426E-004  0.4832349E+03  0.7546771E-02  0.1018371E+00
          1   -1    0    0  502    0 -0.00000000000E+00  0.00000000000E+00  0.29080345805E+04  0.29080345805E+04  0.00000000000E+00 0. -1.
         21   -1    0    0  501  502  0.00000000000E+00 -0.00000000000E+00 -0.19210079615E+03  0.19210079615E+03  0.00000000000E+00 0. -1.
        -24    2    1    2    0    0  0.20621245192E+03  0.33017843411E+03  0.77749464786E+03  0.87316037899E+03  0.79810690498E+02 0.  0.
         23    2    1    2    0    0 -0.38524738574E+03 -0.57775350817E+03  0.87590135603E+03  0.11213830930E+04  0.89901008121E+02 0.  0.
         11    1    3    3    0    0  0.81587758845E+02  0.20476870426E+03  0.41931317035E+03  0.47371966337E+03  0.00000000000E+00 0. -1.
        -12    1    3    3    0    0  0.12462469308E+03  0.12540972985E+03  0.35818147751E+03  0.39944071562E+03  0.00000000000E+00 0.  1.
        -13    1    4    4    0    0 -0.12384173042E+02 -0.65278806455E+02  0.84295909104E+02  0.10733354837E+03  0.00000000000E+00 0.  1.
         13    1    4    4    0    0 -0.37286321270E+03 -0.51247470171E+03  0.79160544692E+03  0.10140495446E+04  0.00000000000E+00 0. -1.
          2    1    1    2  501    0  0.17903493382E+03  0.24757507406E+03  0.10625377805E+04  0.11055919047E+04  0.00000000000E+00 0. -1.
<scales pt_clust_5="13000.00000" pt_clust_6="13000.00000" pt_clust_7="13000.00000" pt_clust_8="13000.00000" pt_clust_9="305.52744"></scales>
<clustering>
<clus scale="   79.811">  5  6 -1 -1</clus>
<clus scale="   89.901">  7  8 -1 -1</clus>
<clus scale="  305.527">  2  9  1 -1</clus>
<clus scale="  481.460">  1  5  2 -1</clus>
<clus scale="  305.527">  2  5  1 -1</clus>
</clustering>
</event>
<event>
 9    1  0.1487426E-004  0.1461613E+03  0.7546771E-02  0.1232645E+00
          1   -1    0    0  502    0 -0.00000000000E+00  0.00000000000E+00  0.59087964766E+03  0.59087964766E+03  0.00000000000E+00 0. -1.
         21   -1    0    0  501  502  0.00000000000E+00 -0.00000000000E+00 -0.10323050909E+03  0.10323050909E+03  0.00000000000E+00 0.  1.
        -24    2    1    2    0    0 -0.71350115277E+01  0.19364458768E+01  0.34435207980E+03  0.35402142100E+03  0.81842247345E+02 0.  0.
         23    2    1    2    0    0  0.20731345746E+02 -0.11570437843E+03  0.16688267333E+03  0.22310889135E+03  0.90058086024E+02 0.  0.
         13    1    3    3    0    0 -0.41591932470E+02  0.56346001196E+00  0.11931971619E+03  0.12636218186E+03  0.00000000000E+00 0. -1.
        -14    1    3    3    0    0  0.34456920942E+02  0.13729858648E+01  0.22503236361E+03  0.22765923914E+03  0.00000000000E+00 0.  1.
        -13    1    4    4    0    0 -0.63983212549E+01 -0.10106743205E+03  0.74506496442E+02  0.12572502674E+03  0.00000000000E+00 0.  1.
         13    1    4    4    0    0  0.27129667001E+02 -0.14636946378E+02  0.92376176885E+02  0.97383864612E+02  0.00000000000E+00 0. -1.
          2    1    1    2  501    0 -0.13596334218E+02  0.11376793255E+03 -0.23585614557E+02  0.11697984440E+03  0.00000000000E+00 0. -1.
<scales pt_clust_5="13000.00000" pt_clust_6="13000.00000" pt_clust_7="13000.00000" pt_clust_8="13000.00000" pt_clust_9="115.12019"></scales>
<clustering>
<clus scale="   81.842">  5  6 -1 -1</clus>
<clus scale="   82.175">  1  5  2 -1</clus>
<clus scale="   90.058">  7  8 -1 -1</clus>
<clus scale="  115.120">  2  9  1 -1</clus>
<clus scale="  115.120">  2  5  1 -1</clus>
</clustering>
</event>
<event>
 9    1  0.1487426E-004  0.9189799E+02  0.7546771E-02  0.1308633E+00
          1   -1    0    0  502    0 -0.00000000000E+00  0.00000000000E+00  0.71266268970E+02  0.71266268970E+02  0.00000000000E+00 0. -1.
         21   -1    0    0  501  502  0.00000000000E+00 -0.00000000000E+00 -0.14369805400E+03  0.14369805400E+03  0.00000000000E+00 0. -1.
        -24    2    1    2    0    0 -0.20071299414E+02  0.60589001824E+01 -0.92933948276E+01  0.74364309975E+02  0.70739777206E+02 0.  0.
         23    2    1    2    0    0  0.32678753817E+02 -0.22170097611E+02 -0.28162458016E+02  0.10008045696E+03  0.87541759431E+02 0.  0.
         11    1    3    3    0    0 -0.11770849769E+02 -0.20003851245E+02  0.22567538587E+02  0.32372839956E+02  0.00000000000E+00 0. -1.
        -12    1    3    3    0    0 -0.83004496450E+01  0.26062751428E+02 -0.31860933415E+02  0.41991470019E+02  0.00000000000E+00 0.  1.
        -11    1    4    4    0    0  0.52536987879E+02 -0.30486264080E+02  0.45579826121E+01  0.60912417440E+02  0.00000000000E+00 0.  1.
         11    1    4    4    0    0 -0.19858234061E+02  0.83161664694E+01 -0.32720440628E+02  0.39168039518E+02  0.00000000000E+00 0. -1.
          2    1    1    2  501    0 -0.12607454403E+02  0.16111197428E+02 -0.34975932184E+02  0.40519556034E+02  0.00000000000E+00 0. -1.
<scales pt_clust_5="13000.00000" pt_clust_6="13000.00000" pt_clust_7="13000.00000" pt_clust_8="13000.00000" pt_clust_9="20.45773"></scales>
<clustering>
<clus scale="   20.458">  2  9  1 -1</clus>
<clus scale="   70.740">  5  6 -1 -1</clus>
<clus scale="   76.064">  1  5  2 -1</clus>
<clus scale="   87.542">  7  8 -1 -1</clus>
<clus scale="   20.458">  2  5  1 -1</clus>
</clustering>
</event>
<event>
 9    1  0.1487426E-004  0.1856296E+03  0.7546771E-02  0.1163351E+00
         21   -1    0    0  501  502  0.00000000000E+00  0.00000000000E+00  0.67798144089E+03  0.67798144089E+03  0.00000000000E+00 0. -1.
         -4   -1    0    0    0  501 -0.00000000000E+00 -0.00000000000E+00 -0.13302764580E+03  0.13302764580E+03  0.00000000000E+00 0.  1.
        -24    2    1    2    0    0 -0.75347459799E+02  0.14451094925E+03 -0.39946131407E+02  0.18852892924E+03  0.85946550799E+02 0.  0.
         23    2    1    2    0    0  0.86327641126E+02 -0.11785575521E+03  0.40993684793E+03  0.44515801384E+03  0.93674955791E+02 0.  0.
         11    1    3    3    0    0 -0.77254757840E+02  0.72079919215E+02 -0.47176900961E+02  0.11571288756E+03  0.00000000000E+00 0. -1.
        -12    1    3    3    0    0  0.19072980404E+01  0.72431030032E+02  0.72307695541E+01  0.72816041678E+02  0.00000000000E+00 0.  1.
        -11    1    4    4    0    0  0.36848116833E+02 -0.14874752115E+02  0.21958026322E+03  0.22314688875E+03  0.00000000000E+00 0.  1.
         11    1    4    4    0    0  0.49479524293E+02 -0.10298100309E+03  0.19035658471E+03  0.22201112509E+03  0.00000000000E+00 0. -1.
         -3    1    1    2    0  502 -0.10980181327E+02 -0.26655194039E+02  0.17496307857E+03  0.17732214361E+03  0.00000000000E+00 0.  1.
<scales pt_clust_5="13000.00000" pt_clust_6="13000.00000" pt_clust_7="13000.00000" pt_clust_8="13000.00000" pt_clust_9="28.82818"></scales>
<clustering>
<clus scale="   28.828">  1  9  2 -1</clus>
<clus scale="   85.947">  5  6 -1 -1</clus>
<clus scale="   93.675">  7  8 -1 -1</clus>
<clus scale="  181.852">  2  5  1 -1</clus>
<clus scale="   28.828">  1  5  2 -1</clus>
</clustering>
</event>
<event>
 9    1  0.1487426E-004  0.2109100E+03  0.7546771E-02  0.1159109E+00
          1   -1    0    0  502    0 -0.00000000000E+00  0.00000000000E+00  0.10411925709E+04  0.10411925709E+04  0.00000000000E+00 0. -1.
         21   -1    0    0  501  502  0.00000000000E+00 -0.00000000000E+00 -0.92825962941E+02  0.92825962941E+02  0.00000000000E+00 0. -1.
         23    2    1    2    0    0 -0.10137064882E+03 -0.22569144322E+01  0.58150356356E+02  0.14866746564E+03  0.91866475332E+02 0.  0.
        -24    2    1    2    0    0 -0.12345548632E+03  0.69141391820E+02  0.53944284696E+03  0.56337677306E+03  0.79831160048E+02 0.  0.
         13    1    4    4    0    0 -0.12687544527E+03  0.59612370525E+02  0.40540534617E+03  0.42895746646E+03  0.00000000000E+00 0. -1.
        -14    1    4    4    0    0  0.34199589485E+01  0.95290212953E+01  0.13403750079E+03  0.13441930659E+03  0.00000000000E+00 0.  1.
        -13    1    3    3    0    0 -0.56939551089E+01  0.27838361350E+02  0.36156946003E+02  0.45986087371E+02  0.00000000000E+00 0.  1.
         13    1    3    3    0    0 -0.95676693709E+02 -0.30095275782E+02  0.21993410353E+02  0.10268137827E+03  0.00000000000E+00 0. -1.
          2    1    1    2  501    0  0.22482613514E+03 -0.66884477388E+02  0.35077340459E+03  0.42197429510E+03  0.00000000000E+00 0. -1.
<scales pt_clust_5="13000.00000" pt_clust_6="13000.00000" pt_clust_7="13000.00000" pt_clust_8="13000.00000" pt_clust_9="195.21781"></scales>
<clustering>
<clus scale="   79.831">  5  6 -1 -1</clus>
<clus scale="   91.866">  7  8 -1 -1</clus>
<clus scale="  136.823">  1  7  2 -1</clus>
<clus scale="  195.218">  2  9  1 -1</clus>
<clus scale="  195.218">  2  5  1 -1</clus>
</clustering>
</event>
<event>
 9    1  0.1487426E-004  0.1014634E+03  0.7546771E-02  0.1286255E+00
          3   -1    0    0  502    0 -0.00000000000E+00  0.00000000000E+00  0.22718978278E+03  0.22718978278E+03  0.00000000000E+00 0. -1.
         21   -1    0    0  501  502  0.00000000000E+00 -0.00000000000E+00 -0.81273333382E+02  0.81273333382E+02  0.00000000000E+00 0. -1.
         23    2    1    2    0    0 -0.42884131492E+02  0.33975157491E+01  0.13725860431E+03  0.17209865671E+03  0.94485085256E+02 0.  0.
        -24    2    1    2    0    0  0.14046273928E+02 -0.22549100425E+02 -0.27723142992E+02  0.86145125348E+02  0.77114526664E+02 0.  0.
         11    1    4    4    0    0  0.30301629229E+02  0.34154972807E+01 -0.42360446855E+02  0.52194461520E+02  0.00000000000E+00 0. -1.
        -12    1    4    4    0    0 -0.16255355301E+02 -0.25964597706E+02  0.14637303863E+02  0.33950663828E+02  0.00000000000E+00 0.  1.
        -13    1    3    3    0    0  0.23802647812E+02 -0.16861212706E+02  0.18942196243E+02  0.34780358470E+02  0.00000000000E+00 0.  1.
         13    1    3    3    0    0 -0.66686779304E+02  0.20258728455E+02  0.11831640807E+03  0.13731829824E+03  0.00000000000E+00 0. -1.
          4    1    1    2  501    0  0.28837857564E+02  0.19151584676E+02  0.36380988077E+02  0.50219334105E+02  0.00000000000E+00 0. -1.
<scales pt_clust_5="13000.00000" pt_clust_6="13000.00000" pt_clust_7="13000.00000" pt_clust_8="13000.00000" pt_clust_9="34.61801"></scales>
<clustering>
<clus scale="   34.618">  2  9  1 -1</clus>
<clus scale="   77.115">  5  6 -1 -1</clus>
<clus scale="   85.522">  2  5  1 -1</clus>
<clus scale="   94.485">  7  8 -1 -1</clus>
<clus scale="   34.618">  2  5  1 -1</clus>
</clustering>
</event>
<event>
 9    1  0.1487426E-004  0.9927240E+02  0.7546771E-02  0.1283970E+00
          3   -1    0    0  502    0 -0.00000000000E+00  0.00000000000E+00  0.57450895951E+02  0.57450895951E+02  0.00000000000E+00 0. -1.
         21   -1    0    0  501  502  0.00000000000E+00 -0.00000000000E+00 -0.74439046620E+03  0.74439046620E+03  0.00000000000E+00 0. -1.
         23    2    1    2    0    0  0.78478622576E+01 -0.31106316930E+02 -0.13946086131E+02  0.97150093962E+02  0.90633633622E+02 0.  0.
        -24    2    1    2    0    0  0.17237158277E+02  0.89828276944E+02 -0.28546753392E+03  0.31193957956E+03  0.86303820370E+02 0.  0.
         13    1    4    4    0    0  0.38297616709E+02  0.96371070690E+02 -0.23499056786E+03  0.25685532445E+03  0.00000000000E+00 0. -1.
        -14    1    4    4    0    0 -0.21060458432E+02 -0.65427937457E+01 -0.50476966056E+02  0.55084255115E+02  0.00000000000E+00 0.  1.
        -11    1    3    3    0    0  0.24946575939E+02  0.11561967791E+01 -0.43510664980E+02  0.50168181241E+02  0.00000000000E+00 0. -1.
         11    1    3    3    0    0 -0.17098713681E+02 -0.32262513709E+02  0.29564578849E+02  0.46981912721E+02  0.00000000000E+00 0.  1.
          4    1    1    2  501    0 -0.25085020535E+02 -0.58721960015E+02 -0.38752595020E+03  0.39275168863E+03  0.00000000000E+00 0. -1.
<scales pt_clust_5="13000.00000" pt_clust_6="13000.00000" pt_clust_7="13000.00000" pt_clust_8="13000.00000" pt_clust_9="63.85552"></scales>
<clustering>
<clus scale="   63.856">  2  9  1 -1</clus>
<clus scale="   86.304">  5  6 -1 -1</clus>
<clus scale="   90.634">  7  8 -1 -1</clus>
<clus scale="   95.336">  2  5  1 -1</clus>
<clus scale="   63.856">  2  5  1 -1</clus>
</clustering>
</event>
<event>
 9    1  0.1487426E-004  0.1390720E+03  0.7546771E-02  0.1230534E+00
         21   -1    0    0  501  502  0.00000000000E+00  0.00000000000E+00  0.11407551653E+03  0.11407551653E+03  0.00000000000E+00 0. -1.
          1   -1    0    0  502    0 -0.00000000000E+00 -0.00000000000E+00 -0.49473305186E+03  0.49473305186E+03  0.00000000000E+00 0. -1.
         23    2    1    2    0    0 -0.34074485211E+02 -0.15144791327E+02 -0.10000187941E+03  0.14116397701E+03  0.92392950341E+02 0.  0.
        -24    2    1    2    0    0  0.94658346401E+02 -0.70620836400E+02 -0.32210004437E+03  0.35475621965E+03  0.90310750855E+02 0.  0.
         11    1    4    4    0    0  0.45583939337E+02 -0.81205150799E+02 -0.25100146323E+03  0.26771982852E+03  0.00000000000E+00 0. -1.
        -12    1    4    4    0    0  0.49074407064E+02  0.10584314399E+02 -0.71098581142E+02  0.87036391126E+02  0.00000000000E+00 0.  1.
        -13    1    3    3    0    0 -0.62397689505E+02 -0.20227406690E+02 -0.46466364183E+02  0.80384965244E+02  0.00000000000E+00 0.  1.
         13    1    3    3    0    0  0.28323204293E+02  0.50826153632E+01 -0.53535515231E+02  0.60779011768E+02  0.00000000000E+00 0. -1.
          2    1    1    2  501    0 -0.60583861190E+02  0.85765627727E+02  0.41444388454E+02  0.11288837172E+03  0.00000000000E+00 0. -1.
<scales pt_clust_5="13000.00000" pt_clust_6="13000.00000" pt_clust_7="13000.00000" pt_clust_8="13000.00000" pt_clust_9="105.75910"></scales>
<clustering>
<clus scale="   90.311">  5  6 -1 -1</clus>
<clus scale="   92.393">  7  8 -1 -1</clus>
<clus scale="   99.634">  2  7  1 -1</clus>
<clus scale="  105.759">  1  9  2 -1</clus>
<clus scale="  105.759">  1  5  2 -1</clus>
</clustering>
</event>
<event>
 9    1  0.1487426E-004  0.1625982E+03  0.7546771E-02  0.1197762E+00
          3   -1    0    0  502    0 -0.00000000000E+00  0.00000000000E+00  0.75083528721E+02  0.75083528721E+02  0.00000000000E+00 0. -1.
         21   -1    0    0  501  502  0.00000000000E+00 -0.00000000000E+00 -0.82826596230E+03  0.82826596230E+03  0.00000000000E+00 0. -1.
         23    2    1    2    0    0  0.37133366628E+02 -0.77063025429E+02 -0.56708650644E+02  0.13718847290E+03  0.91034110276E+02 0.  0.
        -24    2    1    2    0    0  0.94166026975E+02 -0.40408917161E+02 -0.18221060691E+03  0.22255656424E+03  0.76358351185E+02 0.  0.
         11    1    4    4    0    0  0.93587424866E+02 -0.91795193594E+01 -0.11584213182E+03  0.14920545959E+03  0.00000000000E+00 0. -1.
        -12    1    4    4    0    0  0.57860210895E+00 -0.31229397802E+02 -0.66368475089E+02  0.73351104648E+02  0.00000000000E+00 0.  1.
        -13    1    3    3    0    0  0.35969308063E+02 -0.97552266100E+02 -0.43026431580E+02  0.11252337339E+03  0.00000000000E+00 0. -1.
         13    1    3    3    0    0  0.11640585654E+01  0.20489240670E+02 -0.13682219063E+02  0.24665099515E+02  0.00000000000E+00 0.  1.
          4    1    1    2  501    0 -0.13129939360E+03  0.11747194259E+03 -0.51426317603E+03  0.54360445388E+03  0.00000000000E+00 0. -1.
<scales pt_clust_5="13000.00000" pt_clust_6="13000.00000" pt_clust_7="13000.00000" pt_clust_8="13000.00000" pt_clust_9="143.55345"></scales>
<clustering>
<clus scale="   76.358">  5  6 -1 -1</clus>
<clus scale="   91.034">  7  8 -1 -1</clus>
<clus scale="  124.919">  1  7  2 -1</clus>
<clus scale="  143.553">  2  9  1 -1</clus>
<clus scale="  143.553">  2  5  1 -1</clus>
</clustering>
</event>
<event>
 9    1  0.1487426E-004  0.1277143E+03  0.7546771E-02  0.1234432E+00
          3   -1    0    0  502    0 -0.00000000000E+00  0.00000000000E+00  0.34056622329E+03  0.34056622329E+03  0.00000000000E+00 0. -1.
         21   -1    0    0  501  502  0.00000000000E+00 -0.00000000000E+00 -0.97425210165E+02  0.97425210165E+02  0.00000000000E+00 0. -1.
        -24    2    1    2    0    0  0.19109061057E+02 -0.88083975009E+02  0.23890082123E+03  0.26738306344E+03  0.79348329280E+02 0.  0.
         23    2    1    2    0    0  0.15392492481E+02  0.83104546394E+02 -0.21937394232E+02  0.12701458696E+03  0.92239696334E+02 0.  0.
         11    1    3    3    0    0  0.39095218554E+02 -0.43613121874E+02  0.18794200972E+03  0.19685715514E+03  0.00000000000E+00 0. -1.
        -12    1    3    3    0    0 -0.19986157497E+02 -0.44470853135E+02  0.50958811516E+02  0.70525908297E+02  0.00000000000E+00 0.  1.
        -11    1    4    4    0    0  0.32607539790E+02  0.53931230533E+01  0.18351352873E+02  0.37803565701E+02  0.00000000000E+00 0.  1.
         11    1    4    4    0    0 -0.17215047309E+02  0.77711423341E+02 -0.40288747105E+02  0.89211021263E+02  0.00000000000E+00 0. -1.
          4    1    1    2  501    0 -0.34501553538E+02  0.49794286151E+01  0.26177586129E+02  0.43593783060E+02  0.00000000000E+00 0. -1.
<scales pt_clust_5="13000.00000" pt_clust_6="13000.00000" pt_clust_7="13000.00000" pt_clust_8="13000.00000" pt_clust_9="34.85905"></scales>
<clustering>
<clus scale="   34.859">  2  9  1 -1</clus>
<clus scale="   79.348">  5  6 -1 -1</clus>
<clus scale="   92.240">  7  8 -1 -1</clus>
<clus scale="  118.739">  1  5  2 -1</clus>
<clus scale="   34.859">  2  5  1 -1</clus>
</clustering>
</event>
<event>
 9    1  0.1487426E-004  0.1173978E+03  0.7546771E-02  0.1253359E+00
         21   -1    0    0  501  502  0.00000000000E+00  0.00000000000E+00  0.18933975526E+03  0.18933975526E+03  0.00000000000E+00 0.  1.
         -2   -1    0    0    0  501 -0.00000000000E+00 -0.00000000000E+00 -0.86835842958E+02  0.86835842958E+02  0.00000000000E+00 0.  1.
        -24    2    1    2    0    0  0.72482435327E+02  0.18297655925E+02  0.14314612447E+02  0.10840017490E+03  0.77182783994E+02 0.  0.
         23    2    1    2    0    0 -0.64886684338E+02  0.84907740495E+01  0.74979945107E+02  0.13695655789E+03  0.94088955424E+02 0.  0.
         13    1    3    3    0    0  0.31338618154E+02  0.64971434158E+01  0.45366871778E+02  0.55520040664E+02  0.00000000000E+00 0. -1.
        -14    1    3    3    0    0  0.41143817173E+02  0.11800512509E+02 -0.31052259331E+02  0.52880134234E+02  0.00000000000E+00 0.  1.
        -11    1    4    4    0    0 -0.56492471000E+02  0.29424668532E+02  0.55296832401E+01  0.63935809955E+02  0.00000000000E+00 0. -1.
         11    1    4    4    0    0 -0.83942133381E+01 -0.20933894482E+02  0.69450261867E+02  0.73020747936E+02  0.00000000000E+00 0.  1.
         -1    1    1    2    0  502 -0.75957509896E+01 -0.26788429975E+02  0.13209354753E+02  0.30818865433E+02  0.00000000000E+00 0.  1.
<scales pt_clust_5="13000.00000" pt_clust_6="13000.00000" pt_clust_7="13000.00000" pt_clust_8="13000.00000" pt_clust_9="27.84449"></scales>
<clustering>
<clus scale="   27.844">  1  9  2 -1</clus>
<clus scale="   77.183">  5  6 -1 -1</clus>
<clus scale="   94.089">  7  8 -1 -1</clus>
<clus scale="  104.339">  2  5  1 -1</clus>
<clus scale="   27.844">  1  5  2 -1</clus>
</clustering>
</event>
<event>
 9    1  0.1487426E-004  0.1223532E+03  0.7546771E-02  0.1243113E+00
         21   -1    0    0  501  502  0.00000000000E+00  0.00000000000E+00  0.17535218808E+03  0.17535218808E+03  0.00000000000E+00 0.  1.
          3   -1    0    0  502    0 -0.00000000000E+00 -0.00000000000E+00 -0.18016428550E+03  0.18016428550E+03  0.00000000000E+00 0. -1.
        -24    2    1    2    0    0 -0.42443136968E+02  0.64147074308E+02 -0.91713448439E+02  0.14241934090E+03  0.77172825651E+02 0.  0.
         23    2    1    2    0    0  0.41616211996E+02 -0.10684905961E+03  0.88088291586E+02  0.17037065165E+03  0.90099840106E+02 0.  0.
         11    1    3    3    0    0 -0.42430505026E+02 -0.38184695553E+00 -0.50017036864E+02  0.65591139191E+02  0.00000000000E+00 0. -1.
        -12    1    3    3    0    0 -0.12631942917E-01  0.64528921264E+02 -0.41696411575E+02  0.76828201705E+02  0.00000000000E+00 0.  1.
        -13    1    4    4    0    0  0.32521946693E+02 -0.34486675986E+01 -0.22269131757E+01  0.32780016278E+02  0.00000000000E+00 0. -1.
         13    1    4    4    0    0  0.90942653030E+01 -0.10340039201E+03  0.90315204762E+02  0.13759063537E+03  0.00000000000E+00 0.  1.
          4    1    1    2  501    0  0.82692497246E+00  0.42701985304E+02 -0.11869405609E+01  0.42726481036E+02  0.00000000000E+00 0. -1.
<scales pt_clust_5="13000.00000" pt_clust_6="13000.00000" pt_clust_7="13000.00000" pt_clust_8="13000.00000" pt_clust_9="42.71001"></scales>
<clustering>
<clus scale="   42.710">  1  9  2 -1</clus>
<clus scale="   77.173">  5  6 -1 -1</clus>
<clus scale="   90.100">  7  8 -1 -1</clus>
<clus scale="  113.172">  2  5  1 -1</clus>
<clus scale="   42.710">  1  5  2 -1</clus>
</clustering>
</event>
<event>
 9    1  0.1487426E-004  0.1517142E+03  0.7546771E-02  0.1218974E+00
         21   -1    0    0  501  502  0.00000000000E+00  0.00000000000E+00  0.13014732625E+03  0.13014732625E+03  0.00000000000E+00 0.  1.
         -2   -1    0    0    0  501 -0.00000000000E+00 -0.00000000000E+00 -0.44373791022E+03  0.44373791022E+03  0.00000000000E+00 0.  1.
        -24    2    1    2    0    0 -0.47134301845E+02 -0.30962658247E+02  0.32927661803E+02  0.10304081196E+03  0.79704763988E+02 0.  0.
         23    2    1    2    0    0 -0.86465915927E+02  0.16777988552E+02 -0.30613675170E+03  0.33055583585E+03  0.88258678652E+02 0.  0.
         13    1    3    3    0    0 -0.23048177410E+02  0.77021776965E+01 -0.21232777154E+02  0.32270309092E+02  0.00000000000E+00 0. -1.
        -14    1    3    3    0    0 -0.24086124435E+02 -0.38664835944E+02  0.54160438957E+02  0.70770502873E+02  0.00000000000E+00 0.  1.
        -13    1    4    4    0    0 -0.12553195779E+02 -0.30856810813E+02 -0.12254828676E+03  0.12699530733E+03  0.00000000000E+00 0.  1.
         13    1    4    4    0    0 -0.73912720149E+02  0.47634799366E+02 -0.18358846495E+03  0.20356052852E+03  0.00000000000E+00 0. -1.
         -1    1    1    2    0  502  0.13360021777E+03  0.14184669695E+02 -0.40381494062E+02  0.14028858865E+03  0.00000000000E+00 0.  1.
<scales pt_clust_5="13000.00000" pt_clust_6="13000.00000" pt_clust_7="13000.00000" pt_clust_8="13000.00000" pt_clust_9="123.40017"></scales>
<clustering>
<clus scale="   79.705">  5  6 -1 -1</clus>
<clus scale="   88.259">  7  8 -1 -1</clus>
<clus scale="   97.638">  2  5  1 -1</clus>
<clus scale="  123.400">  1  9  2 -1</clus>
<clus scale="  123.400">  1  5  2 -1</clus>
</clustering>
</event>
<event>
 9    1  0.1487426E-004  0.3218540E+03  0.7546771E-02  0.1075222E+00
         21   -1    0    0  501  502  0.00000000000E+00  0.00000000000E+00  0.20035254083E+03  0.20035254083E+03  0.00000000000E+00 0.  1.
          1   -1    0    0  502    0 -0.00000000000E+00 -0.00000000000E+00 -0.11766131754E+04  0.11766131754E+04  0.00000000000E+00 0. -1.
         23    2    1    2    0    0  0.83799142794E+02  0.37032661417E+03 -0.50338516692E+03  0.63736695497E+03  0.93144573222E+02 0.  0.
        -24    2    1    2    0    0 -0.25052941324E+02 -0.18407909249E+03  0.26107523116E+02  0.20375990434E+03  0.79521906989E+02 0.  0.
         11    1    4    4    0    0  0.99539584590E+01 -0.10050784680E+03 -0.18640604353E+02  0.10270530993E+03  0.00000000000E+00 0. -1.
        -12    1    4    4    0    0 -0.35006899783E+02 -0.83571245691E+02  0.44748127469E+02  0.10105459441E+03  0.00000000000E+00 0.  1.
        -11    1    3    3    0    0  0.34349739160E+02  0.25703216973E+03 -0.39747204189E+03  0.47458346467E+03  0.00000000000E+00 0. -1.
         11    1    3    3    0    0  0.49449403634E+02  0.11329444444E+03 -0.10591312503E+03  0.16278349030E+03  0.00000000000E+00 0.  1.
          2    1    1    2  501    0 -0.58746201470E+02 -0.18624752168E+03 -0.49898299081E+03  0.53583885697E+03  0.00000000000E+00 0. -1.
<scales pt_clust_5="13000.00000" pt_clust_6="13000.00000" pt_clust_7="13000.00000" pt_clust_8="13000.00000" pt_clust_9="195.29284"></scales>
<clustering>
<clus scale="   79.522">  5  6 -1 -1</clus>
<clus scale="   93.145">  7  8 -1 -1</clus>
<clus scale="  195.293">  1  9  2 -1</clus>
<clus scale="  318.179">  1  5  2 -1</clus>
<clus scale="  195.293">  1  5  2 -1</clus>
</clustering>
</event>
<event>
 9    1  0.1487426E-004  0.1441646E+03  0.7546771E-02  0.1209902E+00
          1   -1    0    0  502    0 -0.00000000000E+00  0.00000000000E+00  0.11235145067E+03  0.11235145067E+03  0.00000000000E+00 0. -1.
         21   -1    0    0  501  502  0.00000000000E+00 -0.00000000000E+00 -0.31772497451E+03  0.31772497451E+03  0.00000000000E+00 0. -1.
         23    2    1    2    0    0 -0.38302956314E+02 -0.11835143922E+03 -0.97387445336E+01  0.15348195657E+03  0.89373867649E+02 0.  0.
        -24    2    1    2    0    0 -0.44396061633E+01  0.88903930533E+02 -0.19029470463E+03  0.22441594034E+03  0.78910206587E+02 0.  0.
         13    1    4    4    0    0 -0.16115945751E+02  0.80545707002E+02 -0.19304584449E+03  0.20979521610E+03  0.00000000000E+00 0. -1.
        -14    1    4    4    0    0  0.11676339587E+02  0.83582235305E+01  0.27511398648E+01  0.14620724240E+02  0.00000000000E+00 0.  1.
        -13    1    3    3    0    0 -0.41260374768E+02 -0.48533062409E+02  0.32822362989E+02  0.71660199449E+02  0.00000000000E+00 0.  1.
         13    1    3    3    0    0  0.29574184549E+01 -0.69818376809E+02 -0.42561107522E+02  0.81821757117E+02  0.00000000000E+00 0. -1.
          2    1    1    2  501    0  0.42742562477E+02  0.29447508686E+02 -0.53400746864E+01  0.52178528271E+02  0.00000000000E+00 0. -1.
<scales pt_clust_5="13000.00000" pt_clust_6="13000.00000" pt_clust_7="13000.00000" pt_clust_8="13000.00000" pt_clust_9="51.90458"></scales>
<clustering>
<clus scale="   51.905">  2  9  1 -1</clus>
<clus scale="   78.910">  5  6 -1 -1</clus>
<clus scale="   89.374">  7  8 -1 -1</clus>
<clus scale="  137.922">  2  5  1 -1</clus>
<clus scale="   51.905">  2  5  1 -1</clus>
</clustering>
</event>
<event>
 9    1  0.1487426E-004  0.1706356E+03  0.7546771E-02  0.1178849E+00
          1   -1    0    0  502    0 -0.00000000000E+00  0.00000000000E+00  0.61780849461E+03  0.61780849461E+03  0.00000000000E+00 0. -1.
         21   -1    0    0  501  502  0.00000000000E+00 -0.00000000000E+00 -0.97341069752E+02  0.97341069752E+02  0.00000000000E+00 0.  1.
        -24    2    1    2    0    0 -0.12435228972E+03  0.81096602998E+02  0.48127732506E+03  0.50993123180E+03  0.79761184608E+02 0.  0.
         23    2    1    2    0    0  0.11619386949E+03 -0.40060954496E+02  0.93237725508E+01  0.15381325721E+03  0.92009184194E+02 0.  0.
         13    1    3    3    0    0 -0.50525298878E+02  0.79498216915E+02  0.28888459021E+03  0.30385371280E+03  0.00000000000E+00 0. -1.
        -14    1    3    3    0    0 -0.73826990844E+02  0.15983860831E+01  0.19239273485E+03  0.20607751901E+03  0.00000000000E+00 0.  1.
        -13    1    4    4    0    0  0.62986792793E+02 -0.65300747559E+02  0.22480572074E+02  0.93471385027E+02  0.00000000000E+00 0. -1.
         13    1    4    4    0    0  0.53207076701E+02  0.25239793063E+02 -0.13156799523E+02  0.60341872183E+02  0.00000000000E+00 0.  1.
          2    1    1    2  501    0  0.81584202280E+01 -0.41035648503E+02  0.29866327243E+02  0.51405075349E+02  0.00000000000E+00 0. -1.
<scales pt_clust_5="13000.00000" pt_clust_6="13000.00000" pt_clust_7="13000.00000" pt_clust_8="13000.00000" pt_clust_9="41.83879"></scales>
<clustering>
<clus scale="   41.839">  2  9  1 -1</clus>
<clus scale="   79.761">  5  6 -1 -1</clus>
<clus scale="   92.009">  7  8 -1 -1</clus>
<clus scale="  164.355">  1  5  2 -1</clus>
<clus scale="   41.839">  2  5  1 -1</clus>
</clustering>
</event>
<event>
 9    1  0.1487426E-004  0.2183186E+03  0.7546771E-02  0.1135759E+00
         21   -1    0    0  501  502  0.00000000000E+00  0.00000000000E+00  0.45323412762E+03  0.45323412762E+03  0.00000000000E+00 0.  1.
          1   -1    0    0  502    0 -0.00000000000E+00 -0.00000000000E+00 -0.25516805951E+03  0.25516805951E+03  0.00000000000E+00 0. -1.
        -24    2    1    2    0    0  0.17913335086E+02 -0.19006810376E+03 -0.11775216967E+03  0.23904427957E+03  0.82642740107E+02 0.  0.
         23    2    1    2    0    0 -0.20073178297E+02  0.22179457391E+03  0.11595717823E+03  0.26698281780E+03  0.90763386430E+02 0.  0.
         13    1    3    3    0    0  0.46308824709E+01 -0.64238184718E+02 -0.88024118607E+02  0.10906986250E+03  0.00000000000E+00 0. -1.
        -14    1    3    3    0    0  0.13282452615E+02 -0.12582991904E+03 -0.29728051060E+02  0.12997441707E+03  0.00000000000E+00 0.  1.
        -11    1    4    4    0    0 -0.28993303346E+02  0.10211041251E+03  0.10014047611E+03  0.14592896538E+03  0.00000000000E+00 0.  1.
         11    1    4    4    0    0  0.89201250489E+01  0.11968416139E+03  0.15816702122E+02  0.12105385242E+03  0.00000000000E+00 0. -1.
          2    1    1    2  501    0  0.21598432113E+01 -0.31726470146E+02  0.19986105955E+03  0.20237508976E+03  0.00000000000E+00 0. -1.
<scales pt_clust_5="13000.00000" pt_clust_6="13000.00000" pt_clust_7="13000.00000" pt_clust_8="13000.00000" pt_clust_9="31.79990"></scales>
<clustering>
<clus scale="   31.800">  1  9  2 -1</clus>
<clus scale="   82.643">  5  6 -1 -1</clus>
<clus scale="   90.763">  7  8 -1 -1</clus>
<clus scale="  215.069">  2  5  1 -1</clus>
<clus scale="   31.800">  1  5  2 -1</clus>
</clustering>
</event>
<event>
 9    1  0.1983418E-004  0.2811224E+03  0.7546771E-02  0.1119997E+00
          1   -1    0    0  502    0 -0.00000000000E+00  0.00000000000E+00  0.22992336441E+03  0.22992336441E+03  0.00000000000E+00 0. -1.
         21   -1    0    0  501  502  0.00000000000E+00 -0.00000000000E+00 -0.58764619627E+03  0.58764619627E+03  0.00000000000E+00 0. -1.
         23    2    1    2    0    0  0.11334687828E+03  0.19723147264E+02 -0.63560038739E+02  0.16159822306E+03  0.94008456104E+02 0.  0.
        -24    2    1    2    0    0 -0.30842094057E+03 -0.14579189996E+03 -0.14129400760E+03  0.37791363538E+03  0.80473377884E+02 0.  0.
         13    1    4    4    0    0 -0.30200492390E+03 -0.12593768604E+03 -0.12117274727E+03  0.34892708337E+03  0.00000000000E+00 0. -1.
        -14    1    4    4    0    0 -0.64160166649E+01 -0.19854213917E+02 -0.20121260337E+02  0.28986552014E+02  0.00000000000E+00 0.  1.
        -11    1    3    3    0    0  0.49599469301E+02  0.86223653221E+01  0.21484455845E+02  0.54736042802E+02  0.00000000000E+00 0. -1.
         11    1    3    3    0    0  0.63747408980E+02  0.11100781942E+02 -0.85044494584E+02  0.10686218026E+03  0.00000000000E+00 0.  1.
          2    1    1    2  501    0  0.19507406229E+03  0.12606875270E+03 -0.15286878552E+03  0.27805770223E+03  0.00000000000E+00 0. -1.
<scales pt_clust_5="13000.00000" pt_clust_6="13000.00000" pt_clust_7="13000.00000" pt_clust_8="13000.00000" pt_clust_9="269.35818"></scales>
<clustering>
<clus scale="   80.473">  5  6 -1 -1</clus>
<clus scale="   94.008">  7  8 -1 -1</clus>
<clus scale="  148.574">  1  7  2 -1</clus>
<clus scale="  269.358">  2  9  1 -1</clus>
<clus scale="  269.358">  2  5  1 -1</clus>
</clustering>
</event>
<event>
 9    1  0.1487426E-004  0.2149227E+03  0.7546771E-02  0.1138772E+00
         21   -1    0    0  501  502  0.00000000000E+00  0.00000000000E+00  0.46516986049E+02  0.46516986049E+02  0.00000000000E+00 0. -1.
         -2   -1    0    0    0  501 -0.00000000000E+00 -0.00000000000E+00 -0.12734081124E+04  0.12734081124E+04  0.00000000000E+00 0.  1.
        -24    2    1    2    0    0  0.14212402406E+03 -0.14390860108E+03 -0.62233202558E+03  0.65921696531E+03  0.79755461261E+02 0.  0.
         23    2    1    2    0    0 -0.96079250116E+02  0.16126889768E+03 -0.54228820700E+03  0.58134085198E+03  0.92961320303E+02 0.  0.
         11    1    3    3    0    0  0.72001405861E+02 -0.64680624314E+02 -0.17961361371E+03  0.20403145796E+03  0.00000000000E+00 0. -1.
        -12    1    3    3    0    0  0.70122618201E+02 -0.79227976769E+02 -0.44271841188E+03  0.45518550735E+03  0.00000000000E+00 0.  1.
        -11    1    4    4    0    0 -0.60646800121E+02  0.70873787421E+02 -0.14539858453E+03  0.17274801444E+03  0.00000000000E+00 0. -1.
         11    1    4    4    0    0 -0.35432449995E+02  0.90395110263E+02 -0.39688962247E+03  0.40859283755E+03  0.00000000000E+00 0.  1.
         -1    1    1    2    0  502 -0.46044773946E+02 -0.17360296601E+02 -0.62270893723E+02  0.79367281111E+02  0.00000000000E+00 0.  1.
<scales pt_clust_5="13000.00000" pt_clust_6="13000.00000" pt_clust_7="13000.00000" pt_clust_8="13000.00000" pt_clust_9="49.20875"></scales>
<clustering>
<clus scale="   49.209">  1  9  2 -1</clus>
<clus scale="   79.755">  5  6 -1 -1</clus>
<clus scale="   92.961">  7  8 -1 -1</clus>
<clus scale="  209.549">  2  5  1 -1</clus>
<clus scale="   49.209">  1  5  2 -1</clus>
</clustering>
</event>
<event>
 9    1  0.1487426E-004  0.1248420E+03  0.7546771E-02  0.1238113E+00
          1   -1    0    0  502    0 -0.00000000000E+00  0.00000000000E+00  0.10581891220E+03  0.10581891220E+03  0.00000000000E+00 0. -1.
         21   -1    0    0  501  502  0.00000000000E+00 -0.00000000000E+00 -0.33543571697E+03  0.33543571697E+03  0.00000000000E+00 0. -1.
        -24    2    1    2    0    0 -0.97482188259E+02 -0.42273235564E+01  0.13673452284E+02  0.12861662778E+03  0.82671799012E+02 0.  0.
         23    2    1    2    0    0  0.43250483342E+02  0.57102802465E+02 -0.11675187831E+03  0.16516307003E+03  0.92284908040E+02 0.  0.
         13    1    3    3    0    0 -0.40732357350E+02  0.23004007666E+02  0.38864900506E+02  0.60817676668E+02  0.00000000000E+00 0. -1.
        -14    1    3    3    0    0 -0.56749830909E+02 -0.27231331223E+02 -0.25191448222E+02  0.67798951112E+02  0.00000000000E+00 0.  1.
        -11    1    4    4    0    0  0.43203345443E+02 -0.91113316567E+01 -0.74547495115E+02  0.86642220943E+02  0.00000000000E+00 0.  1.
         11    1    4    4    0    0  0.47137899252E-01  0.66214134122E+02 -0.42204383197E+02  0.78520849082E+02  0.00000000000E+00 0. -1.
          2    1    1    2  501    0  0.54231704917E+02 -0.52875478909E+02 -0.12653837874E+03  0.14747493137E+03  0.00000000000E+00 0. -1.
<scales pt_clust_5="13000.00000" pt_clust_6="13000.00000" pt_clust_7="13000.00000" pt_clust_8="13000.00000" pt_clust_9="75.74229"></scales>
<clustering>
<clus scale="   75.742">  2  9  1 -1</clus>
<clus scale="   82.672">  5  6 -1 -1</clus>
<clus scale="   92.285">  7  8 -1 -1</clus>
<clus scale="  117.914">  1  5  2 -1</clus>
<clus scale="   75.742">  2  5  1 -1</clus>
</clustering>
</event>
<event>
 9    1  0.1487426E-004  0.1286742E+03  0.7546771E-02  0.1242124E+00
          3   -1    0    0  502    0 -0.00000000000E+00  0.00000000000E+00  0.53246622533E+03  0.53246622533E+03  0.00000000000E+00 0. -1.
         21   -1    0    0  501  502  0.00000000000E+00 -0.00000000000E+00 -0.64140144112E+02  0.64140144112E+02  0.00000000000E+00 0.  1.
        -24    2    1    2    0    0  0.49735239812E+02  0.33434823082E+02  0.19947343955E+03  0.22280793720E+03  0.79134330857E+02 0.  0.
         23    2    1    2    0    0  0.65568780145E+02 -0.50462168470E+02  0.65839192116E+02  0.13970569803E+03  0.91308200445E+02 0.  0.
         13    1    3    3    0    0  0.65517754626E+02  0.11597348557E+02  0.17156657738E+03  0.18401675233E+03  0.00000000000E+00 0. -1.
        -14    1    3    3    0    0 -0.15782514815E+02  0.21837474524E+02  0.27906862176E+02  0.38791184875E+02  0.00000000000E+00 0.  1.
        -13    1    4    4    0    0  0.76471204218E+02 -0.60588472894E+01  0.33522634874E+02  0.83715719873E+02  0.00000000000E+00 0. -1.
         13    1    4    4    0    0 -0.10902424073E+02 -0.44403321180E+02  0.32316557242E+02  0.55989978161E+02  0.00000000000E+00 0.  1.
          4    1    1    2  501    0 -0.11530401996E+03  0.17027345388E+02  0.20301344955E+03  0.23409273421E+03  0.00000000000E+00 0. -1.
<scales pt_clust_5="13000.00000" pt_clust_6="13000.00000" pt_clust_7="13000.00000" pt_clust_8="13000.00000" pt_clust_9="90.66356"></scales>
<clustering>
<clus scale="   79.134">  5  6 -1 -1</clus>
<clus scale="   91.308">  7  8 -1 -1</clus>
<clus scale="   99.266">  1  5  2 -1</clus>
<clus scale="   90.664">  2  9  1 -1</clus>
<clus scale="   90.664">  2  5  1 -1</clus>
</clustering>
</event>
<event>
 9    1  0.1487426E-004  0.1597374E+03  0.7546771E-02  0.1190519E+00
         21   -1    0    0  501  502  0.00000000000E+00  0.00000000000E+00  0.48968138433E+02  0.48968138433E+02  0.00000000000E+00 0.  1.
          1   -1    0    0  502    0 -0.00000000000E+00 -0.00000000000E+00 -0.10929637861E+04  0.10929637861E+04  0.00000000000E+00 0. -1.
         23    2    1    2    0    0 -0.48304915296E+02 -0.11013681392E+03 -0.41837858777E+03  0.44445327231E+03  0.89635851878E+02 0.  0.
        -24    2    1    2    0    0  0.10165700314E+03  0.13188651539E+03 -0.21750058632E+03  0.28531539476E+03  0.79813346068E+02 0.  0.
         11    1    4    4    0    0  0.33259610970E+02  0.27341168057E+01 -0.17716000811E+02  0.37782718290E+02  0.00000000000E+00 0. -1.
        -12    1    4    4    0    0  0.68397392170E+02  0.12915239858E+03 -0.19978458550E+03  0.24753267647E+03  0.00000000000E+00 0.  1.
        -13    1    3    3    0    0 -0.19264867436E+02 -0.11796788574E+03 -0.32084248403E+03  0.34238495403E+03  0.00000000000E+00 0.  1.
         13    1    3    3    0    0 -0.29040047859E+02  0.78310718175E+01 -0.97536103738E+02  0.10206831829E+03  0.00000000000E+00 0. -1.
          2    1    1    2  501    0 -0.53352087844E+02 -0.21749701467E+02 -0.40811647356E+03  0.41216325744E+03  0.00000000000E+00 0. -1.
<scales pt_clust_5="13000.00000" pt_clust_6="13000.00000" pt_clust_7="13000.00000" pt_clust_8="13000.00000" pt_clust_9="57.61509"></scales>
<clustering>
<clus scale="   57.615">  1  9  2 -1</clus>
<clus scale="   79.813">  5  6 -1 -1</clus>
<clus scale="   89.636">  7  8 -1 -1</clus>
<clus scale="  154.440">  1  5  2 -1</clus>
<clus scale="   57.615">  1  5  2 -1</clus>
</clustering>
</event>
<event>
 9    1  0.1487426E-004  0.1316206E+03  0.7546771E-02  0.1226909E+00
          1   -1    0    0  502    0 -0.00000000000E+00  0.00000000000E+00  0.28036010446E+03  0.28036010446E+03  0.00000000000E+00 0. -1.
         21   -1    0    0  501  502  0.00000000000E+00 -0.00000000000E+00 -0.10042831688E+03  0.10042831688E+03  0.00000000000E+00 0. -1.
         23    2    1    2    0    0  0.11135223032E+03  0.15340203709E+02  0.12490049750E+03  0.18842855968E+03  0.85267501308E+02 0.  0.
        -24    2    1    2    0    0 -0.76213977290E+02 -0.11372632284E+01 -0.17946417818E+02  0.11012747027E+03  0.77434631100E+02 0.  0.
         13    1    4    4    0    0 -0.78784830779E+02  0.24160822423E+02 -0.19394857574E+02  0.84657872649E+02  0.00000000000E+00 0. -1.
        -14    1    4    4    0    0  0.25708534891E+01 -0.25298085651E+02  0.14484397557E+01  0.25469597622E+02  0.00000000000E+00 0.  1.
        -11    1    3    3    0    0  0.64876371624E+02 -0.53753238942E+01  0.14251401970E+02  0.66640379352E+02  0.00000000000E+00 0. -1.
         11    1    3    3    0    0  0.46475858697E+02  0.20715527603E+02  0.11064909553E+03  0.12178818033E+03  0.00000000000E+00 0.  1.
          2    1    1    2  501    0 -0.35138253031E+02 -0.14202940480E+02  0.72977707896E+02  0.82232391392E+02  0.00000000000E+00 0. -1.
<scales pt_clust_5="13000.00000" pt_clust_6="13000.00000" pt_clust_7="13000.00000" pt_clust_8="13000.00000" pt_clust_9="37.90016"></scales>
<clustering>
<clus scale="   37.900">  2  9  1 -1</clus>
<clus scale="   77.435">  5  6 -1 -1</clus>
<clus scale="   85.268">  7  8 -1 -1</clus>
<clus scale="  126.687">  2  5  1 -1</clus>
<clus scale="   37.900">  2  5  1 -1</clus>
</clustering>
</event>
<event>
 9    1  0.1487426E-004  0.2666960E+03  0.7546771E-02  0.1125868E+00
         21   -1    0    0  501  502  0.00000000000E+00  0.00000000000E+00  0.17788615225E+03  0.17788615225E+03  0.00000000000E+00 0. -1.
          3   -1    0    0  502    0 -0.00000000000E+00 -0.00000000000E+00 -0.93253213332E+03  0.93253213332E+03  0.00000000000E+00 0. -1.
        -24    2    1    2    0    0 -0.12722502409E+03 -0.75140026450E-01  0.17047947780E+02  0.15132999548E+03  0.80149376839E+02 0.  0.
         23    2    1    2    0    0 -0.11134084948E+03 -0.15178216060E+03 -0.58252032100E+03  0.61885165229E+03  0.90624688288E+02 0.  0.
         13    1    3    3    0    0 -0.90709357064E+02  0.36474372719E+02  0.31070165150E+01  0.97817283114E+02  0.00000000000E+00 0. -1.
        -14    1    3    3    0    0 -0.36515667030E+02 -0.36549512745E+02  0.13940931265E+02  0.53512712369E+02  0.00000000000E+00 0.  1.
        -11    1    4    4    0    0 -0.90407574542E+02 -0.12764054643E+03 -0.55519503576E+03  0.57680773777E+03  0.00000000000E+00 0.  1.
         11    1    4    4    0    0 -0.20933274937E+02 -0.24141614168E+02 -0.27325285241E+02  0.42043914515E+02  0.00000000000E+00 0. -1.
          4    1    1    2  501    0  0.23856587357E+03  0.15185730063E+03 -0.18917360785E+03  0.34023663779E+03  0.00000000000E+00 0. -1.
<scales pt_clust_5="13000.00000" pt_clust_6="13000.00000" pt_clust_7="13000.00000" pt_clust_8="13000.00000" pt_clust_9="250.82651"></scales>
<clustering>
<clus scale="   80.149">  5  6 -1 -1</clus>
<clus scale="   90.625">  7  8 -1 -1</clus>
<clus scale="  150.367">  2  5  1 -1</clus>
<clus scale="  250.827">  1  9  2 -1</clus>
<clus scale="  250.827">  1  5  2 -1</clus>
</clustering>
</event>
<event>
 9    1  0.1487426E-004  0.9699017E+02  0.7546771E-02  0.1294638E+00
          1   -1    0    0  502    0 -0.00000000000E+00  0.00000000000E+00  0.37102193319E+03  0.37102193319E+03  0.00000000000E+00 0. -1.
         21   -1    0    0  501  502  0.00000000000E+00 -0.00000000000E+00 -0.34571012115E+03  0.34571012115E+03  0.00000000000E+00 0.  1.
        -24    2    1    2    0    0  0.24038985411E+02  0.51215686103E+01  0.34497463810E+03  0.35502316195E+03  0.80186291258E+02 0.  0.
         23    2    1    2    0    0  0.56132566768E+01  0.32535817050E+02 -0.28676758997E+03  0.30357602119E+03  0.93982242706E+02 0.  0.
         11    1    3    3    0    0 -0.27143726852E+02  0.16046556681E+02  0.12894786442E+03  0.13274722456E+03  0.00000000000E+00 0. -1.
        -12    1    3    3    0    0  0.51182712263E+02 -0.10924988071E+02  0.21602677368E+03  0.22227593739E+03  0.00000000000E+00 0.  1.
        -13    1    4    4    0    0 -0.42405929172E+02  0.22383580047E+02 -0.17612925952E+03  0.18253986836E+03  0.00000000000E+00 0.  1.
         13    1    4    4    0    0  0.48019185849E+02  0.10152237003E+02 -0.11063833045E+03  0.12103615282E+03  0.00000000000E+00 0. -1.
          2    1    1    2  501    0 -0.29652242088E+02 -0.37657385661E+02 -0.32895236096E+02  0.58132871196E+02  0.00000000000E+00 0. -1.
<scales pt_clust_5="13000.00000" pt_clust_6="13000.00000" pt_clust_7="13000.00000" pt_clust_8="13000.00000" pt_clust_9="47.93051"></scales>
<clustering>
<clus scale="   47.931">  2  9  1 -1</clus>
<clus scale="   80.186">  5  6 -1 -1</clus>
<clus scale="   83.692">  1  5  2 -1</clus>
<clus scale="   93.982">  7  8 -1 -1</clus>
<clus scale="   47.931">  2  5  1 -1</clus>
</clustering>
</event>
<event>
 9    1  0.1487426E-004  0.1304053E+03  0.7546771E-02  0.1229441E+00
         21   -1    0    0  501  502  0.00000000000E+00  0.00000000000E+00  0.93616834813E+02  0.93616834813E+02  0.00000000000E+00 0.  1.
          3   -1    0    0  502    0 -0.00000000000E+00 -0.00000000000E+00 -0.39979350206E+03  0.39979350206E+03  0.00000000000E+00 0. -1.
         23    2    1    2    0    0 -0.27227094208E+02 -0.48493164796E+02 -0.64281222412E+02  0.12384654009E+03  0.90072128020E+02 0.  0.
        -24    2    1    2    0    0  0.83231378377E+02  0.13055664356E+03 -0.11657320024E+03  0.20963706549E+03  0.79911755649E+02 0.  0.
         13    1    4    4    0    0  0.52205841050E+02  0.43972424860E+02 -0.91779562051E+02  0.11437880922E+03  0.00000000000E+00 0. -1.
        -14    1    4    4    0    0  0.31025537327E+02  0.86584218696E+02 -0.24793638185E+02  0.95258256272E+02  0.00000000000E+00 0.  1.
        -13    1    3    3    0    0 -0.38759790749E+02  0.55680482790E+00 -0.62355366612E+02  0.73422225217E+02  0.00000000000E+00 0.  1.
         13    1    3    3    0    0  0.11532696541E+02 -0.49049969623E+02 -0.19258557998E+01  0.50424314870E+02  0.00000000000E+00 0. -1.
          4    1    1    2  501    0 -0.56004284169E+02 -0.82063478761E+02 -0.12532224460E+03  0.15992673130E+03  0.00000000000E+00 0. -1.
<scales pt_clust_5="13000.00000" pt_clust_6="13000.00000" pt_clust_7="13000.00000" pt_clust_8="13000.00000" pt_clust_9="99.35242"></scales>
<clustering>
<clus scale="   79.912">  5  6 -1 -1</clus>
<clus scale="   90.072">  7  8 -1 -1</clus>
<clus scale="   99.352">  1  9  2 -1</clus>
<clus scale="  123.606">  1  5  2 -1</clus>
<clus scale="   99.352">  1  5  2 -1</clus>
</clustering>
</event>
<event>
 9    1  0.1487426E-004  0.1077156E+03  0.7546771E-02  0.1269860E+00
         21   -1    0    0  501  502  0.00000000000E+00  0.00000000000E+00  0.22207717861E+03  0.22207717861E+03  0.00000000000E+00 0. -1.
          1   -1    0    0  502    0 -0.00000000000E+00 -0.00000000000E+00 -0.39780664348E+03  0.39780664348E+03  0.00000000000E+00 0. -1.
         23    2    1    2    0    0 -0.47526223370E+01 -0.59173642454E+02 -0.30179383895E+03  0.32108307662E+03  0.92145067574E+02 0.  0.
        -24    2    1    2    0    0  0.30464744439E+02  0.41796291243E+02 -0.58277780646E+02  0.11186461849E+03  0.80264329176E+02 0.  0.
         11    1    4    4    0    0  0.52335761586E+02  0.37396547604E+02 -0.19651286691E+02  0.67258507135E+02  0.00000000000E+00 0. -1.
        -12    1    4    4    0    0 -0.21871017147E+02  0.43997436390E+01 -0.38626493955E+02  0.44606111357E+02  0.00000000000E+00 0.  1.
        -11    1    3    3    0    0 -0.36149700283E+01  0.21364310187E+02 -0.12421919055E+03  0.12609484152E+03  0.00000000000E+00 0. -1.
         11    1    3    3    0    0 -0.11376523086E+01 -0.80537952641E+02 -0.17757464840E+03  0.19498823509E+03  0.00000000000E+00 0.  1.
          2    1    1    2  501    0 -0.25712122102E+02  0.17377351212E+02  0.18434215474E+03  0.18693612698E+03  0.00000000000E+00 0. -1.
<scales pt_clust_5="13000.00000" pt_clust_6="13000.00000" pt_clust_7="13000.00000" pt_clust_8="13000.00000" pt_clust_9="31.03362"></scales>
<clustering>
<clus scale="   31.034">  1  9  2 -1</clus>
<clus scale="   80.264">  5  6 -1 -1</clus>
<clus scale="   92.145">  7  8 -1 -1</clus>
<clus scale="   97.746">  1  5  2 -1</clus>
<clus scale="   31.034">  1  5  2 -1</clus>
</clustering>
</event>
<event>
 9    1  0.1487426E-004  0.2271022E+03  0.7546771E-02  0.1153961E+00
          1   -1    0    0  502    0 -0.00000000000E+00  0.00000000000E+00  0.18120593476E+03  0.18120593476E+03  0.00000000000E+00 0. -1.
         21   -1    0    0  501  502  0.00000000000E+00 -0.00000000000E+00 -0.45097187605E+03  0.45097187605E+03  0.00000000000E+00 0. -1.
        -24    2    1    2    0    0  0.90179894976E+02  0.30532720341E+02 -0.82909003664E+02  0.14886244365E+03  0.78876256069E+02 0.  0.
         23    2    1    2    0    0 -0.25103197878E+03 -0.49696499399E+02 -0.17019626624E+03  0.32047120465E+03  0.90819753050E+02 0.  0.
         11    1    3    3    0    0  0.10649335031E+02  0.41860816517E+02 -0.32001958707E+02  0.53757433506E+02  0.00000000000E+00 0. -1.
        -12    1    3    3    0    0  0.79530559944E+02 -0.11328096176E+02 -0.50907044957E+02  0.95105010143E+02  0.00000000000E+00 0.  1.
        -11    1    4    4    0    0 -0.45980076786E+02  0.12865587656E+02 -0.16647979505E+01  0.47775122807E+02  0.00000000000E+00 0.  1.
         11    1    4    4    0    0 -0.20505190199E+03 -0.62562087055E+02 -0.16853146829E+03  0.27269608184E+03  0.00000000000E+00 0. -1.
          2    1    1    2  501    0  0.16085208380E+03  0.19163779058E+02 -0.16660671390E+02  0.16284416251E+03  0.00000000000E+00 0. -1.
<scales pt_clust_5="13000.00000" pt_clust_6="13000.00000" pt_clust_7="13000.00000" pt_clust_8="13000.00000" pt_clust_9="208.15189"></scales>
<clustering>
<clus scale="   78.876">  5  6 -1 -1</clus>
<clus scale="   90.820">  7  8 -1 -1</clus>
<clus scale="  123.637">  1  5  2 -1</clus>
<clus scale="  208.152">  2  9  1 -1</clus>
<clus scale="  208.152">  2  5  1 -1</clus>
</clustering>
</event>
<event>
 9    1  0.1487426E-004  0.1745681E+03  0.7546771E-02  0.1196264E+00
         21   -1    0    0  501  502  0.00000000000E+00  0.00000000000E+00  0.97187123605E+02  0.97187123605E+02  0.00000000000E+00 0. -1.
          1   -1    0    0  502    0 -0.00000000000E+00 -0.00000000000E+00 -0.93219907683E+03  0.93219907683E+03  0.00000000000E+00 0. -1.
        -24    2    1    2    0    0  0.63671161816E+02 -0.29721811053E+02  0.17542250673E+02  0.10576387994E+03  0.77077005926E+02 0.  0.
         23    2    1    2    0    0  0.95485792043E+02  0.63102914746E+02 -0.63546885140E+03  0.65238205004E+03  0.93178129314E+02 0.  0.
         13    1    3    3    0    0  0.81318990467E+02 -0.24252380342E+02  0.19836315491E+02  0.87146058861E+02  0.00000000000E+00 0. -1.
        -14    1    3    3    0    0 -0.17647828651E+02 -0.54694307115E+01 -0.22940648182E+01  0.18617821081E+02  0.00000000000E+00 0.  1.
        -13    1    4    4    0    0  0.48979958496E+02  0.80037029517E+02 -0.48463969769E+03  0.49364015133E+03  0.00000000000E+00 0. -1.
         13    1    4    4    0    0  0.46505833547E+02 -0.16934114771E+02 -0.15082915371E+03  0.15874189871E+03  0.00000000000E+00 0.  1.
          2    1    1    2  501    0 -0.15915695386E+03 -0.33381103693E+02 -0.21708535249E+03  0.27124027045E+03  0.00000000000E+00 0. -1.
<scales pt_clust_5="13000.00000" pt_clust_6="13000.00000" pt_clust_7="13000.00000" pt_clust_8="13000.00000" pt_clust_9="147.62061"></scales>
<clustering>
<clus scale="   77.077">  5  6 -1 -1</clus>
<clus scale="   93.178">  7  8 -1 -1</clus>
<clus scale="  104.299">  2  5  1 -1</clus>
<clus scale="  147.621">  1  9  2 -1</clus>
<clus scale="  147.621">  1  5  2 -1</clus>
</clustering>
</event>
<event>
 9    1  0.1487426E-004  0.1226079E+03  0.7546771E-02  0.1240029E+00
         21   -1    0    0  501  502  0.00000000000E+00  0.00000000000E+00  0.55150501673E+03  0.55150501673E+03  0.00000000000E+00 0.  1.
         -4   -1    0    0    0  501 -0.00000000000E+00 -0.00000000000E+00 -0.49077776037E+02  0.49077776037E+02  0.00000000000E+00 0.  1.
        -24    2    1    2    0    0  0.73587643134E+02 -0.31038402286E+02  0.65077956270E+02  0.14033782159E+03  0.95294491651E+02 0.  0.
         23    2    1    2    0    0 -0.70167996107E+02  0.89394254524E+01  0.30869124796E+03  0.32965803037E+03  0.91545996158E+02 0.  0.
         11    1    3    3    0    0 -0.10159107301E+02 -0.27122418700E+02  0.45996679267E+02  0.54355566052E+02  0.00000000000E+00 0. -1.
        -12    1    3    3    0    0  0.83746750436E+02 -0.39159835861E+01  0.19081277003E+02  0.85982255542E+02  0.00000000000E+00 0.  1.
        -13    1    4    4    0    0 -0.49187541051E+02 -0.35804726069E+02  0.21853626530E+03  0.22684684669E+03  0.00000000000E+00 0.  1.
         13    1    4    4    0    0 -0.20980455057E+02  0.44744151521E+02  0.90154982663E+02  0.10281118368E+03  0.00000000000E+00 0. -1.
         -3    1    1    2    0  502 -0.34196470268E+01  0.22098976833E+02  0.12865803646E+03  0.13058694080E+03  0.00000000000E+00 0.  1.
<scales pt_clust_5="13000.00000" pt_clust_6="13000.00000" pt_clust_7="13000.00000" pt_clust_8="13000.00000" pt_clust_9="22.36199"></scales>
<clustering>
<clus scale="   22.362">  1  9  2 -1</clus>
<clus scale="   91.546">  7  8 -1 -1</clus>
<clus scale="   95.294">  5  6 -1 -1</clus>
<clus scale="  119.718">  1  7  2 -1</clus>
<clus scale="   22.362">  1  5  2 -1</clus>
</clustering>
</event>
<event>
 9    1  0.1487426E-004  0.9439238E+02  0.7546771E-02  0.1297754E+00
         21   -1    0    0  501  502  0.00000000000E+00  0.00000000000E+00  0.17677133746E+03  0.17677133746E+03  0.00000000000E+00 0.  1.
          1   -1    0    0  502    0 -0.00000000000E+00 -0.00000000000E+00 -0.15399068199E+03  0.15399068199E+03  0.00000000000E+00 0. -1.
         23    2    1    2    0    0  0.31462980130E+02 -0.61368412323E+01 -0.39114179720E+02  0.10452602157E+03  0.91477812565E+02 0.  0.
        -24    2    1    2    0    0  0.38687569606E+02  0.55355113994E+02  0.87761572508E+02  0.13672272456E+03  0.80187861389E+02 0.  0.
         13    1    4    4    0    0  0.31060622503E+02  0.25123952994E+02 -0.36733427756E+01  0.40118184549E+02  0.00000000000E+00 0. -1.
        -14    1    4    4    0    0  0.76269471024E+01  0.30231161001E+02  0.91434915284E+02  0.96604540010E+02  0.00000000000E+00 0.  1.
        -13    1    3    3    0    0 -0.17864535762E+01  0.39590089927E+02 -0.22621306449E+02  0.45632117442E+02  0.00000000000E+00 0.  1.
         13    1    3    3    0    0  0.33249433706E+02 -0.45726931159E+02 -0.16492873271E+02  0.58893904131E+02  0.00000000000E+00 0. -1.
          2    1    1    2  501    0 -0.70150549736E+02 -0.49218272762E+02 -0.25866737319E+02  0.89513273326E+02  0.00000000000E+00 0. -1.
<scales pt_clust_5="13000.00000" pt_clust_6="13000.00000" pt_clust_7="13000.00000" pt_clust_8="13000.00000" pt_clust_9="85.69449"></scales>
<clustering>
<clus scale="   80.188">  5  6 -1 -1</clus>
<clus scale="   85.694">  1  9  2 -1</clus>
<clus scale="   85.694">  1  5  2 -1</clus>
<clus scale="   91.478">  7  8 -1 -1</clus>
<clus scale="   85.694">  1  5  2 -1</clus>
</clustering>
</event>
<event>
 9    1  0.1487426E-004  0.3163884E+03  0.7546771E-02  0.1077324E+00
         21   -1    0    0  501  502  0.00000000000E+00  0.00000000000E+00  0.50283771581E+02  0.50283771581E+02  0.00000000000E+00 0. -1.
          1   -1    0    0  502    0 -0.00000000000E+00 -0.00000000000E+00 -0.17384865069E+04  0.17384865069E+04  0.00000000000E+00 0. -1.
        -24    2    1    2    0    0 -0.11062959804E+03 -0.10168481628E+03 -0.72882754956E+03  0.74851937589E+03  0.80702845399E+02 0.  0.
         23    2    1    2    0    0 -0.84298072847E+02 -0.66587475485E+02 -0.41131613851E+03  0.43470893021E+03  0.90834086259E+02 0.  0.
         13    1    3    3    0    0 -0.42261235149E+02 -0.18697756351E+02 -0.95085114109E+02  0.10572037180E+03  0.00000000000E+00 0. -1.
        -14    1    3    3    0    0 -0.68368362887E+02 -0.82987059931E+02 -0.63374243545E+03  0.64279900409E+03  0.00000000000E+00 0.  1.
        -11    1    4    4    0    0 -0.44058881399E+02 -0.23169686014E+02 -0.57847009669E+02  0.76317074811E+02  0.00000000000E+00 0.  1.
         11    1    4    4    0    0 -0.40239191448E+02 -0.43417789471E+02 -0.35346912884E+03  0.35839185540E+03  0.00000000000E+00 0. -1.
          2    1    1    2  501    0  0.19492767088E+03  0.16827229177E+03 -0.54805904727E+03  0.60554197241E+03  0.00000000000E+00 0. -1.
<scales pt_clust_5="13000.00000" pt_clust_6="13000.00000" pt_clust_7="13000.00000" pt_clust_8="13000.00000" pt_clust_9="257.51187"></scales>
<clustering>
<clus scale="   80.703">  5  6 -1 -1</clus>
<clus scale="   90.834">  7  8 -1 -1</clus>
<clus scale="  101.272">  5  7 -1 -1</clus>
<clus scale="  257.512">  1  9  2 -1</clus>
<clus scale="  257.512">  1  5  2 -1</clus>
</clustering>
</event>
<event>
 9    1  0.1487426E-004  0.9320168E+02  0.7546771E-02  0.1303000E+00
         21   -1    0    0  501  502  0.00000000000E+00  0.00000000000E+00  0.37735580006E+02  0.37735580006E+02  0.00000000000E+00 0. -1.
         -2   -1    0    0    0  501 -0.00000000000E+00 -0.00000000000E+00 -0.35002474536E+03  0.35002474536E+03  0.00000000000E+00 0.  1.
         23    2    1    2    0    0 -0.57565238489E+01  0.15424832869E+02 -0.22016923031E+03  0.23951986653E+03  0.92866643366E+02 0.  0.
        -24    2    1    2    0    0 -0.13298374529E+02  0.97044200838E+01 -0.51894205916E+02  0.97126098918E+02  0.80432878532E+02 0.  0.
         11    1    4    4    0    0 -0.27655550349E+02  0.36117124137E+02 -0.49100757021E+02  0.66934000785E+02  0.00000000000E+00 0. -1.
        -12    1    4    4    0    0  0.14357175820E+02 -0.26412704053E+02 -0.27934488948E+01  0.30192098132E+02  0.00000000000E+00 0.  1.
        -13    1    3    3    0    0  0.16256262366E+02 -0.34459821129E+02 -0.11346549415E+03  0.11969195337E+03  0.00000000000E+00 0.  1.
         13    1    3    3    0    0 -0.22012786215E+02  0.49884653998E+02 -0.10670373616E+03  0.11982791316E+03  0.00000000000E+00 0. -1.
         -1    1    1    2    0  502  0.19054898378E+02 -0.25129252953E+02 -0.40225729125E+02  0.51114359918E+02  0.00000000000E+00 0.  1.
<scales pt_clust_5="13000.00000" pt_clust_6="13000.00000" pt_clust_7="13000.00000" pt_clust_8="13000.00000" pt_clust_9="31.53678"></scales>
<clustering>
<clus scale="   31.537">  1  9  2 -1</clus>
<clus scale="   80.433">  5  6 -1 -1</clus>
<clus scale="   80.819">  1  5  2 -1</clus>
<clus scale="   92.867">  7  8 -1 -1</clus>
<clus scale="   31.537">  1  5  2 -1</clus>
</clustering>
</event>
<event>
 9    1  0.1487426E-004  0.1032698E+03  0.7546771E-02  0.1278166E+00
         21   -1    0    0  501  502  0.00000000000E+00  0.00000000000E+00  0.44903944246E+03  0.44903944246E+03  0.00000000000E+00 0.  1.
         -2   -1    0    0    0  501 -0.00000000000E+00 -0.00000000000E+00 -0.11977369157E+03  0.11977369157E+03  0.00000000000E+00 0.  1.
        -24    2    1    2    0    0  0.78903954588E+01 -0.65649957671E+02 -0.62324554046E+02  0.12189510876E+03  0.81252029023E+02 0.  0.
         23    2    1    2    0    0  0.48494403794E+01 -0.30348771482E+01  0.63101566818E+02  0.11108360025E+03  0.91241607611E+02 0.  0.
         13    1    3    3    0    0  0.17773394792E+02  0.10326252823E+02  0.35417901554E+01  0.20858315783E+02  0.00000000000E+00 0. -1.
        -14    1    3    3    0    0 -0.98829993331E+01 -0.75976210494E+02 -0.65866344202E+02  0.10103679298E+03  0.00000000000E+00 0.  1.
        -13    1    4    4    0    0 -0.41261036612E+02  0.99638008809E+01  0.21245791238E+02  0.47467189885E+02  0.00000000000E+00 0. -1.
         13    1    4    4    0    0  0.46110476991E+02 -0.12998678029E+02  0.41855775580E+02  0.63616410369E+02  0.00000000000E+00 0.  1.
         -1    1    1    2    0  502 -0.12739835838E+02  0.68684834819E+02  0.32848873812E+03  0.33583442501E+03  0.00000000000E+00 0.  1.
<scales pt_clust_5="13000.00000" pt_clust_6="13000.00000" pt_clust_7="13000.00000" pt_clust_8="13000.00000" pt_clust_9="69.85635"></scales>
<clustering>
<clus scale="   69.856">  1  9  2 -1</clus>
<clus scale="   81.252">  5  6 -1 -1</clus>
<clus scale="   91.242">  7  8 -1 -1</clus>
<clus scale="   94.560">  2  5  1 -1</clus>
<clus scale="   69.856">  1  5  2 -1</clus>
</clustering>
</event>
<event>
 9    1  0.1487426E-004  0.9364259E+02  0.7546771E-02  0.1303507E+00
         21   -1    0    0  501  502  0.00000000000E+00  0.00000000000E+00  0.14362986627E+03  0.14362986627E+03  0.00000000000E+00 0. -1.
          1   -1    0    0  502    0 -0.00000000000E+00 -0.00000000000E+00 -0.12595067428E+03  0.12595067428E+03  0.00000000000E+00 0. -1.
         23    2    1    2    0    0 -0.54066095604E+01  0.20490124759E+01 -0.23891211465E+02  0.96399731672E+02  0.93213134279E+02 0.  0.
        -24    2    1    2    0    0  0.12073713393E+02  0.26575578548E+02  0.85941315094E+02  0.11995867735E+03  0.78435570383E+02 0.  0.
         13    1    4    4    0    0  0.16185109075E+02  0.49859333424E+02  0.79889837993E+02  0.95552588138E+02  0.00000000000E+00 0. -1.
        -14    1    4    4    0    0 -0.41113956814E+01 -0.23283754876E+02  0.60514771009E+01  0.24406089213E+02  0.00000000000E+00 0.  1.
        -13    1    3    3    0    0 -0.28860950889E+02  0.39018202131E+02 -0.52517459831E+01  0.48815524372E+02  0.00000000000E+00 0.  1.
         13    1    3    3    0    0  0.23454341329E+02 -0.36969189656E+02 -0.18639465482E+02  0.47584207301E+02  0.00000000000E+00 0. -1.
          2    1    1    2  501    0 -0.66671038329E+01 -0.28624591024E+02 -0.44370911636E+02  0.53222131526E+02  0.00000000000E+00 0. -1.
<scales pt_clust_5="13000.00000" pt_clust_6="13000.00000" pt_clust_7="13000.00000" pt_clust_8="13000.00000" pt_clust_9="29.39079"></scales>
<clustering>
<clus scale="   29.391">  1  9  2 -1</clus>
<clus scale="   78.436">  5  6 -1 -1</clus>
<clus scale="   78.945">  1  5  2 -1</clus>
<clus scale="   93.213">  7  8 -1 -1</clus>
<clus scale="   29.391">  1  5  2 -1</clus>
</clustering>
</event>
<event>
 9    1  0.1487426E-004  0.1062213E+03  0.7546771E-02  0.1273920E+00
         -2   -1    0    0    0  501 -0.00000000000E+00  0.00000000000E+00  0.14017823208E+03  0.14017823208E+03  0.00000000000E+00 0.  1.
         21   -1    0    0  501  502  0.00000000000E+00 -0.00000000000E+00 -0.21552437476E+03  0.21552437476E+03  0.00000000000E+00 0. -1.
         23    2    1    2    0    0 -0.30592977844E+02 -0.55952932574E+02  0.95301049319E+02  0.14562636048E+03  0.89766841917E+02 0.  0.
        -24    2    1    2    0    0  0.10371189049E+02  0.17133600932E+02 -0.12110994438E+03  0.14397178243E+03  0.75227213585E+02 0.  0.
         11    1    4    4    0    0 -0.21097178486E+02  0.24015094692E+02 -0.10114113481E+03  0.10607235674E+03  0.00000000000E+00 0. -1.
        -12    1    4    4    0    0  0.31468367535E+02 -0.68814937603E+01 -0.19968809567E+02  0.37899425685E+02  0.00000000000E+00 0.  1.
        -11    1    3    3    0    0 -0.40648694291E+02  0.90051295160E+01  0.21713397260E+02  0.46956153225E+02  0.00000000000E+00 0. -1.
         11    1    3    3    0    0  0.10055716447E+02 -0.64958062090E+02  0.73587652059E+02  0.98670207253E+02  0.00000000000E+00 0.  1.
         -1    1    1    2    0  502  0.20221788795E+02  0.38819331642E+02 -0.49537247611E+02  0.66104463935E+02  0.00000000000E+00 0.  1.
<scales pt_clust_5="13000.00000" pt_clust_6="13000.00000" pt_clust_7="13000.00000" pt_clust_8="13000.00000" pt_clust_9="43.77055"></scales>
<clustering>
<clus scale="   43.771">  2  9  1 -1</clus>
<clus scale="   75.227">  5  6 -1 -1</clus>
<clus scale="   89.767">  7  8 -1 -1</clus>
<clus scale="   94.255">  2  5  1 -1</clus>
<clus scale="   43.771">  2  5  1 -1</clus>
</clustering>
</event>
<event>
 9    1  0.1487426E-004  0.1003049E+03  0.7546771E-02  0.1286579E+00
          1   -1    0    0  502    0 -0.00000000000E+00  0.00000000000E+00  0.80582793327E+03  0.80582793327E+03  0.00000000000E+00 0. -1.
         21   -1    0    0  501  502  0.00000000000E+00 -0.00000000000E+00 -0.24888043984E+02  0.24888043984E+02  0.00000000000E+00 0.  1.
        -24    2    1    2    0    0  0.32819998723E+02  0.19543781286E+02  0.49607362364E+03  0.50361376825E+03  0.77965863003E+02 0.  0.
         23    2    1    2    0    0 -0.27207439147E+02 -0.54808438453E+02  0.14145331920E+03  0.17931056487E+03  0.91646208260E+02 0.  0.
         13    1    3    3    0    0 -0.11629288058E+02  0.27573988328E+02  0.85960005565E+02  0.91020259996E+02  0.00000000000E+00 0. -1.
        -14    1    3    3    0    0  0.44449286781E+02 -0.80302070413E+01  0.41011361808E+03  0.41259350825E+03  0.00000000000E+00 0.  1.
        -11    1    4    4    0    0 -0.47766502859E+02 -0.29160309592E+02  0.30803177509E+02  0.63881125502E+02  0.00000000000E+00 0.  1.
         11    1    4    4    0    0  0.20559063712E+02 -0.25648128862E+02  0.11065014169E+03  0.11542943936E+03  0.00000000000E+00 0. -1.
          2    1    1    2  501    0 -0.56125595768E+01  0.35264657167E+02  0.14341294644E+03  0.14779164414E+03  0.00000000000E+00 0. -1.
<scales pt_clust_5="13000.00000" pt_clust_6="13000.00000" pt_clust_7="13000.00000" pt_clust_8="13000.00000" pt_clust_9="35.70852"></scales>
<clustering>
<clus scale="   35.709">  2  9  1 -1</clus>
<clus scale="   77.966">  5  6 -1 -1</clus>
<clus scale="   87.981">  1  5  2 -1</clus>
<clus scale="   91.646">  7  8 -1 -1</clus>
<clus scale="   35.709">  2  5  1 -1</clus>
</clustering>
</event>
<event>
 9    1  0.1487426E-004  0.1181449E+03  0.7546771E-02  0.1249801E+00
          1   -1    0    0  502    0 -0.00000000000E+00  0.00000000000E+00  0.67929924293E+03  0.67929924293E+03  0.00000000000E+00 0. -1.
         21   -1    0    0  501  502  0.00000000000E+00 -0.00000000000E+00 -0.37688019909E+02  0.37688019909E+02  0.00000000000E+00 0.  1.
         23    2    1    2    0    0  0.88796388673E+01 -0.77114054056E+02  0.46652589176E+03  0.48154855448E+03  0.90648647656E+02 0.  0.
        -24    2    1    2    0    0 -0.48603590685E+02  0.61976894555E+02  0.10522271474E+03  0.15365905848E+03  0.79598002934E+02 0.  0.
         11    1    4    4    0    0 -0.24199133674E+02  0.24066676175E+02  0.10301220063E+03  0.10851873779E+03  0.00000000000E+00 0. -1.
        -12    1    4    4    0    0 -0.24404457011E+02  0.37910218379E+02  0.22105141048E+01  0.45140320692E+02  0.00000000000E+00 0.  1.
        -13    1    3    3    0    0 -0.15377417239E+02 -0.89009261972E+02  0.31774765689E+03  0.33033723244E+03  0.00000000000E+00 0. -1.
         13    1    3    3    0    0  0.24257056106E+02  0.11895207916E+02  0.14877823487E+03  0.15121132204E+03  0.00000000000E+00 0.  1.
          2    1    1    2  501    0  0.39723951817E+02  0.15137159501E+02  0.69862616520E+02  0.81779649870E+02  0.00000000000E+00 0. -1.
<scales pt_clust_5="13000.00000" pt_clust_6="13000.00000" pt_clust_7="13000.00000" pt_clust_8="13000.00000" pt_clust_9="42.51030"></scales>
<clustering>
<clus scale="   42.510">  2  9  1 -1</clus>
<clus scale="   79.598">  5  6 -1 -1</clus>
<clus scale="   90.649">  7  8 -1 -1</clus>
<clus scale="  109.895">  2  5  1 -1</clus>
<clus scale="   42.510">  2  5  1 -1</clus>
</clustering>
</event>
<event>
 9    1  0.1487426E-004  0.1014886E+03  0.7546771E-02  0.1280633E+00
         21   -1    0    0  501  502  0.00000000000E+00  0.00000000000E+00  0.20604066058E+03  0.20604066058E+03  0.00000000000E+00 0.  1.
          1   -1    0    0  502    0 -0.00000000000E+00 -0.00000000000E+00 -0.12192997616E+03  0.12192997616E+03  0.00000000000E+00 0. -1.
         23    2    1    2    0    0  0.40193317564E+02  0.53099982185E+01 -0.56657092967E+02  0.11345743532E+03  0.89548113263E+02 0.  0.
        -24    2    1    2    0    0 -0.74769730510E+02 -0.34762783437E+02  0.99429015211E+02  0.15309750189E+03  0.82181216269E+02 0.  0.
         11    1    4    4    0    0 -0.17405036091E+02  0.10717028650E+02 -0.89478908102E+01  0.22312658612E+02  0.00000000000E+00 0. -1.
        -12    1    4    4    0    0 -0.57364694419E+02 -0.45479812088E+02  0.10837690602E+03  0.13078484328E+03  0.00000000000E+00 0.  1.
        -11    1    3    3    0    0  0.57164157964E+02  0.32783825898E+02 -0.35506489631E+02  0.74854732664E+02  0.00000000000E+00 0. -1.
         11    1    3    3    0    0 -0.16970840400E+02 -0.27473827679E+02 -0.21150603336E+02  0.38602702661E+02  0.00000000000E+00 0.  1.
          2    1    1    2  501    0  0.34576412946E+02  0.29452785219E+02  0.41338762176E+02  0.61415699521E+02  0.00000000000E+00 0. -1.
<scales pt_clust_5="13000.00000" pt_clust_6="13000.00000" pt_clust_7="13000.00000" pt_clust_8="13000.00000" pt_clust_9="45.42020"></scales>
<clustering>
<clus scale="   45.420">  1  9  2 -1</clus>
<clus scale="   82.181">  5  6 -1 -1</clus>
<clus scale="   89.548">  7  8 -1 -1</clus>
<clus scale="   95.052">  1  5  2 -1</clus>
<clus scale="   45.420">  1  5  2 -1</clus>
</clustering>
</event>
<event>
 9    1  0.1487426E-004  0.9379934E+02  0.7546771E-02  0.1299392E+00
         21   -1    0    0  501  502  0.00000000000E+00  0.00000000000E+00  0.56422982533E+02  0.56422982533E+02  0.00000000000E+00 0. -1.
          1   -1    0    0  502    0 -0.00000000000E+00 -0.00000000000E+00 -0.37727658281E+03  0.37727658281E+03  0.00000000000E+00 0. -1.
        -24    2    1    2    0    0  0.23084091789E+01  0.79552510559E+01 -0.21474927935E+03  0.23026970272E+03  0.82693822232E+02 0.  0.
         23    2    1    2    0    0 -0.55213805045E+02 -0.36629279732E+02 -0.67201045575E+02  0.13177342073E+03  0.91967306597E+02 0.  0.
         11    1    3    3    0    0  0.32945858524E+02  0.12894372336E+02 -0.42739612067E+02  0.55483050307E+02  0.00000000000E+00 0. -1.
        -12    1    3    3    0    0 -0.30637449345E+02 -0.49391212799E+01 -0.17200966728E+03  0.17478665241E+03  0.00000000000E+00 0.  1.
        -13    1    4    4    0    0  0.79491448297E+01 -0.48047750614E+02 -0.34918899667E+02  0.59925827458E+02  0.00000000000E+00 0.  1.
         13    1    4    4    0    0 -0.63162949875E+02  0.11418470883E+02 -0.32282145908E+02  0.71847593269E+02  0.00000000000E+00 0. -1.
          2    1    1    2  501    0  0.52905395866E+02  0.28674028676E+02 -0.38903275347E+02  0.71656441895E+02  0.00000000000E+00 0. -1.
<scales pt_clust_5="13000.00000" pt_clust_6="13000.00000" pt_clust_7="13000.00000" pt_clust_8="13000.00000" pt_clust_9="60.17625"></scales>
<clustering>
<clus scale="   60.176">  1  9  2 -1</clus>
<clus scale="   82.694">  5  6 -1 -1</clus>
<clus scale="   84.727">  2  5  1 -1</clus>
<clus scale="   91.967">  7  8 -1 -1</clus>
<clus scale="   60.176">  1  5  2 -1</clus>
</clustering>
</event>
<event>
 9    1  0.1487426E-004  0.9692719E+02  0.7546771E-02  0.1292896E+00
         21   -1    0    0  501  502  0.00000000000E+00  0.00000000000E+00  0.51807439859E+03  0.51807439859E+03  0.00000000000E+00 0.  1.
         -4   -1    0    0    0  501 -0.00000000000E+00 -0.00000000000E+00 -0.52368447826E+02  0.52368447826E+02  0.00000000000E+00 0.  1.
        -24    2    1    2    0    0  0.13142039820E+02 -0.26876901376E+02  0.38361009740E+01  0.88017315460E+02  0.82687672067E+02 0.  0.
         23    2    1    2    0    0  0.20249432181E+02  0.16453414373E+01  0.35505479494E+03  0.36770378951E+03  0.93431379923E+02 0.  0.
         13    1    3    3    0    0 -0.15394201759E+02  0.24582636280E+02  0.31041940194E+01  0.29170592637E+02  0.00000000000E+00 0. -1.
        -14    1    3    3    0    0  0.28536241579E+02 -0.51459537656E+02  0.73190695460E+00  0.58846722823E+02  0.00000000000E+00 0.  1.
        -11    1    4    4    0    0  0.21885725504E+01 -0.42576289842E+02  0.10871336417E+03  0.11677382350E+03  0.00000000000E+00 0.  1.
         11    1    4    4    0    0  0.18060859631E+02  0.44221631279E+02  0.24634143077E+03  0.25092996600E+03  0.00000000000E+00 0. -1.
         -3    1    1    2    0  502 -0.33391472001E+02  0.25231559938E+02  0.10681505485E+03  0.11472174146E+03  0.00000000000E+00 0.  1.
<scales pt_clust_5="13000.00000" pt_clust_6="13000.00000" pt_clust_7="13000.00000" pt_clust_8="13000.00000" pt_clust_9="41.85238"></scales>
<clustering>
<clus scale="   41.852">  1  9  2 -1</clus>
<clus scale="   82.688">  5  6 -1 -1</clus>
<clus scale="   86.618">  2  5  1 -1</clus>
<clus scale="   93.431">  7  8 -1 -1</clus>
<clus scale="   41.852">  1  5  2 -1</clus>
</clustering>
</event>
<event>
 9    1  0.1487426E-004  0.3391919E+03  0.7546771E-02  0.1067400E+00
         21   -1    0    0  501  502  0.00000000000E+00  0.00000000000E+00  0.34620209512E+03  0.34620209512E+03  0.00000000000E+00 0.  1.
          1   -1    0    0  502    0 -0.00000000000E+00 -0.00000000000E+00 -0.89622307815E+03  0.89622307815E+03  0.00000000000E+00 0. -1.
        -24    2    1    2    0    0  0.19748142202E+03 -0.25322415388E+03 -0.46746867778E+03  0.57268603139E+03  0.79504350206E+02 0.  0.
         23    2    1    2    0    0 -0.17118583975E+03  0.32288562561E+03  0.16533327334E+03  0.41091209853E+03  0.89184878110E+02 0.  0.
         13    1    3    3    0    0  0.22714533069E+02 -0.84557926920E+02 -0.13627789332E+03  0.16198042235E+03  0.00000000000E+00 0. -1.
        -14    1    3    3    0    0  0.17476688895E+03 -0.16866622696E+03 -0.33119078446E+03  0.41070560904E+03  0.00000000000E+00 0.  1.
        -13    1    4    4    0    0 -0.11200601690E+03  0.23758318357E+03  0.15869385063E+03  0.30687921918E+03  0.00000000000E+00 0.  1.
         13    1    4    4    0    0 -0.59179822854E+02  0.85302442041E+02  0.66394227122E+01  0.10403287935E+03  0.00000000000E+00 0. -1.
          2    1    1    2  501    0 -0.26295582270E+02 -0.69661471738E+02 -0.24788557860E+03  0.25882704335E+03  0.00000000000E+00 0. -1.
<scales pt_clust_5="13000.00000" pt_clust_6="13000.00000" pt_clust_7="13000.00000" pt_clust_8="13000.00000" pt_clust_9="74.45928"></scales>
<clustering>
<clus scale="   74.459">  1  9  2 -1</clus>
<clus scale="   79.504">  5  6 -1 -1</clus>
<clus scale="   89.185">  7  8 -1 -1</clus>
<clus scale="  336.776">  2  5  1 -1</clus>
<clus scale="   74.459">  1  5  2 -1</clus>
</clustering>
</event>
<event>
 9    1  0.1487426E-004  0.1370587E+03  0.7546771E-02  0.1219601E+00
         21   -1    0    0  501  502  0.00000000000E+00  0.00000000000E+00  0.48096293173E+03  0.48096293173E+03  0.00000000000E+00 0. -1.
          1   -1    0    0  502    0 -0.00000000000E+00 -0.00000000000E+00 -0.18168173427E+03  0.18168173427E+03  0.00000000000E+00 0. -1.
         23    2    1    2    0    0 -0.10276221495E+03 -0.28901694954E+02 -0.90882938868E+02  0.16706395288E+03  0.90858543792E+02 0.  0.
        -24    2    1    2    0    0  0.82260103800E+02 -0.77226713874E+02  0.35615306521E+03  0.38226553902E+03  0.80939770533E+02 0.  0.
         11    1    4    4    0    0  0.14644295991E+02 -0.63204411611E+02  0.22334671490E+03  0.23257903626E+03  0.00000000000E+00 0. -1.
        -12    1    4    4    0    0  0.67615807809E+02 -0.14022302263E+02  0.13280635031E+03  0.14968650276E+03  0.00000000000E+00 0.  1.
        -11    1    3    3    0    0 -0.90230992828E+02  0.15528795743E+02 -0.74637500722E+02  0.11812506964E+03  0.00000000000E+00 0. -1.
         11    1    3    3    0    0 -0.12531222124E+02 -0.44430490697E+02 -0.16245438146E+02  0.48938883233E+02  0.00000000000E+00 0.  1.
          2    1    1    2  501    0  0.20502111152E+02  0.10612840883E+03  0.34011071123E+02  0.11331517410E+03  0.00000000000E+00 0. -1.
<scales pt_clust_5="13000.00000" pt_clust_6="13000.00000" pt_clust_7="13000.00000" pt_clust_8="13000.00000" pt_clust_9="108.09064"></scales>
<clustering>
<clus scale="   80.940">  5  6 -1 -1</clus>
<clus scale="   90.859">  7  8 -1 -1</clus>
<clus scale="  108.091">  1  9  2 -1</clus>
<clus scale="  130.694">  1  5  2 -1</clus>
<clus scale="  108.091">  1  5  2 -1</clus>
</clustering>
</event>
<event>
 9    1  0.1487426E-004  0.1174721E+03  0.7546771E-02  0.1251062E+00
         21   -1    0    0  501  502  0.00000000000E+00  0.00000000000E+00  0.21106074629E+03  0.21106074629E+03  0.00000000000E+00 0. -1.
          1   -1    0    0  502    0 -0.00000000000E+00 -0.00000000000E+00 -0.89402872071E+02  0.89402872071E+02  0.00000000000E+00 0. -1.
         23    2    1    2    0    0 -0.52328854119E+02 -0.17302186422E+02  0.40066083624E+02  0.11410447293E+03  0.91525215421E+02 0.  0.
        -24    2    1    2    0    0  0.89974927473E+02  0.30440846662E+02  0.45235218608E+02  0.13239942380E+03  0.80381899081E+02 0.  0.
         13    1    4    4    0    0  0.90571623146E+02  0.41281632463E+02  0.15489107329E+02  0.10073383019E+03  0.00000000000E+00 0. -1.
        -14    1    4    4    0    0 -0.59669567268E+00 -0.10840785801E+02  0.29746111279E+02  0.31665593610E+02  0.00000000000E+00 0.  1.
        -11    1    3    3    0    0 -0.65891798992E+02  0.35574545066E+01 -0.11072810759E+01  0.65997050906E+02  0.00000000000E+00 0.  1.
         11    1    3    3    0    0  0.13562944873E+02 -0.20859640928E+02  0.41173364700E+02  0.48107422026E+02  0.00000000000E+00 0. -1.
          2    1    1    2  501    0 -0.37646073354E+02 -0.13138660240E+02  0.36356571984E+02  0.53959721629E+02  0.00000000000E+00 0. -1.
<scales pt_clust_5="13000.00000" pt_clust_6="13000.00000" pt_clust_7="13000.00000" pt_clust_8="13000.00000" pt_clust_9="39.87294"></scales>
<clustering>
<clus scale="   39.873">  1  9  2 -1</clus>
<clus scale="   80.382">  5  6 -1 -1</clus>
<clus scale="   91.525">  7  8 -1 -1</clus>
<clus scale="  109.014">  1  5  2 -1</clus>
<clus scale="   39.873">  1  5  2 -1</clus>
</clustering>
</event>
<event>
 9    1  0.1487426E-004  0.1245997E+03  0.7546771E-02  0.1238947E+00
         21   -1    0    0  501  502  0.00000000000E+00  0.00000000000E+00  0.15479029796E+03  0.15479029796E+03  0.00000000000E+00 0.  1.
         -4   -1    0    0    0  501 -0.00000000000E+00 -0.00000000000E+00 -0.20878105955E+03  0.20878105955E+03  0.00000000000E+00 0.  1.
         23    2    1    2    0    0 -0.40969654568E+02  0.11526167723E+03 -0.42710731271E+02  0.15826330032E+03  0.90880684574E+02 0.  0.
        -24    2    1    2    0    0  0.53692801496E+02 -0.21185502295E+02  0.28548245262E+02  0.10235905673E+03  0.79565267213E+02 0.  0.
         13    1    4    4    0    0  0.59701099771E+01  0.28665054839E+02  0.79830939167E+01  0.30348927008E+02  0.00000000000E+00 0. -1.
        -14    1    4    4    0    0  0.47722691518E+02 -0.49850557134E+02  0.20565151345E+02  0.72010129719E+02  0.00000000000E+00 0.  1.
        -13    1    3    3    0    0  0.28739106290E+01  0.33266585876E+02  0.26272309350E+02  0.42487166730E+02  0.00000000000E+00 0.  1.
         13    1    3    3    0    0 -0.43843565197E+02  0.81995091359E+02 -0.68983040621E+02  0.11577613359E+03  0.00000000000E+00 0. -1.
         -3    1    1    2    0  502 -0.12723146928E+02 -0.94076174940E+02 -0.39828275584E+02  0.10294900046E+03  0.00000000000E+00 0.  1.
<scales pt_clust_5="13000.00000" pt_clust_6="13000.00000" pt_clust_7="13000.00000" pt_clust_8="13000.00000" pt_clust_9="94.93268"></scales>
<clustering>
<clus scale="   79.565">  5  6 -1 -1</clus>
<clus scale="   90.881">  7  8 -1 -1</clus>
<clus scale="   94.933">  1  9  2 -1</clus>
<clus scale="  116.604">  1  5  2 -1</clus>
<clus scale="   94.933">  1  5  2 -1</clus>
</clustering>
</event>
<event>
 9    1  0.1487426E-004  0.1275343E+03  0.7546771E-02  0.1241909E+00
          1   -1    0    0  502    0 -0.00000000000E+00  0.00000000000E+00  0.91635478471E+03  0.91635478471E+03  0.00000000000E+00 0. -1.
         21   -1    0    0  501  502  0.00000000000E+00 -0.00000000000E+00 -0.36522046836E+02  0.36522046836E+02  0.00000000000E+00 0. -1.
         23    2    1    2    0    0 -0.54873507016E+01 -0.64603666901E+02  0.68970130853E+03  0.70140839952E+03  0.10991862048E+03 0.  0.
        -24    2    1    2    0    0  0.55902578318E+02  0.55387010595E+02  0.11370014445E+03  0.15944461316E+03  0.79385405538E+02 0.  0.
         13    1    4    4    0    0  0.61604835671E+02  0.40232888928E+02  0.39525017416E+02  0.83522859932E+02  0.00000000000E+00 0. -1.
        -14    1    4    4    0    0 -0.57022573530E+01  0.15154121667E+02  0.74175127038E+02  0.75921753230E+02  0.00000000000E+00 0.  1.
        -11    1    3    3    0    0  0.32645581301E+02  0.16358184877E+02  0.15299632931E+03  0.15729335959E+03  0.00000000000E+00 0.  1.
         11    1    3    3    0    0 -0.38132932002E+02 -0.80961851778E+02  0.53670497922E+03  0.54411503992E+03  0.00000000000E+00 0. -1.
          2    1    1    2  501    0 -0.50415227616E+02  0.92166563067E+01  0.76431284893E+02  0.92023818870E+02  0.00000000000E+00 0. -1.
<scales pt_clust_5="13000.00000" pt_clust_6="13000.00000" pt_clust_7="13000.00000" pt_clust_8="13000.00000" pt_clust_9="51.25077"></scales>
<clustering>
<clus scale="   51.251">  2  9  1 -1</clus>
<clus scale="   79.385">  5  6 -1 -1</clus>
<clus scale="  102.396">  2  5  1 -1</clus>
<clus scale="  109.919">  7  8 -1 -1</clus>
<clus scale="   51.251">  2  5  1 -1</clus>
</clustering>
</event>
<event>
 9    1  0.1487426E-004  0.1368229E+03  0.7546771E-02  0.1220047E+00
          1   -1    0    0  502    0 -0.00000000000E+00  0.00000000000E+00  0.32160500330E+03  0.32160500330E+03  0.00000000000E+00 0. -1.
         21   -1    0    0  501  502  0.00000000000E+00 -0.00000000000E+00 -0.87594632211E+02  0.87594632211E+02  0.00000000000E+00 0. -1.
         23    2    1    2    0    0  0.10549646080E+02  0.87205094110E+02  0.12810716991E+03  0.18091455473E+03  0.92750232671E+02 0.  0.
        -24    2    1    2    0    0 -0.45529443636E+02 -0.11890011161E+03  0.62379032288E+02  0.16407827702E+03  0.82585534706E+02 0.  0.
         11    1    4    4    0    0 -0.58153647437E+02 -0.66972397371E+02  0.65935469332E+02  0.11051983911E+03  0.00000000000E+00 0. -1.
        -12    1    4    4    0    0  0.12624203800E+02 -0.51927714237E+02 -0.35564370447E+01  0.53558437915E+02  0.00000000000E+00 0.  1.
        -11    1    3    3    0    0 -0.96701247202E+01  0.26682740935E+02  0.11139244680E+03  0.11495110778E+03  0.00000000000E+00 0.  1.
         11    1    3    3    0    0  0.20219770800E+02  0.60522353175E+02  0.16714723108E+02  0.65963446951E+02  0.00000000000E+00 0. -1.
          2    1    1    2  501    0  0.34979797556E+02  0.31695017497E+02  0.43524168895E+02  0.64206803761E+02  0.00000000000E+00 0. -1.
<scales pt_clust_5="13000.00000" pt_clust_6="13000.00000" pt_clust_7="13000.00000" pt_clust_8="13000.00000" pt_clust_9="47.20342"></scales>
<clustering>
<clus scale="   47.203">  2  9  1 -1</clus>
<clus scale="   82.586">  5  6 -1 -1</clus>
<clus scale="   92.750">  7  8 -1 -1</clus>
<clus scale="  130.147">  2  5  1 -1</clus>
<clus scale="   47.203">  2  5  1 -1</clus>
</clustering>
</event>
<event>
 9    1  0.1487426E-004  0.1137944E+03  0.7546771E-02  0.1255564E+00
         21   -1    0    0  501  502  0.00000000000E+00  0.00000000000E+00  0.18690122917E+03  0.18690122917E+03  0.00000000000E+00 0. -1.
          3   -1    0    0  502    0 -0.00000000000E+00 -0.00000000000E+00 -0.40170641700E+03  0.40170641700E+03  0.00000000000E+00 0. -1.
        -24    2    1    2    0    0 -0.40905534820E+02 -0.58311323102E+02 -0.21010781923E+03  0.23700600332E+03  0.83385110952E+02 0.  0.
         23    2    1    2    0    0 -0.43107739601E+02 -0.31339221543E+02  0.12938612849E+03  0.16973951204E+03  0.96074490273E+02 0.  0.
         13    1    3    3    0    0 -0.49230472741E+02 -0.67349954075E+02 -0.12050418948E+03  0.14656369073E+03  0.00000000000E+00 0. -1.
        -14    1    3    3    0    0  0.83249379206E+01  0.90386309736E+01 -0.89603629755E+02  0.90442312589E+02  0.00000000000E+00 0.  1.
        -13    1    4    4    0    0 -0.16338901708E+02  0.28535482034E+02  0.11496502203E+02  0.34833934702E+02  0.00000000000E+00 0.  1.
         13    1    4    4    0    0 -0.26768837894E+02 -0.59874703577E+02  0.11788962628E+03  0.13490557733E+03  0.00000000000E+00 0. -1.
          4    1    1    2  501    0  0.84013274422E+02  0.89650544644E+02 -0.13408349708E+03  0.18186213081E+03  0.00000000000E+00 0. -1.
<scales pt_clust_5="13000.00000" pt_clust_6="13000.00000" pt_clust_7="13000.00000" pt_clust_8="13000.00000" pt_clust_9="60.98252"></scales>
<clustering>
<clus scale="   83.385">  5  6 -1 -1</clus>
<clus scale="   96.074">  7  8 -1 -1</clus>
<clus scale="  109.666">  2  5  1 -1</clus>
<clus scale="   60.983">  1  9  2 -1</clus>
<clus scale="   60.983">  1  5  2 -1</clus>
</clustering>
</event>
<event>
 9    1  0.1487426E-004  0.1087264E+03  0.7546771E-02  0.1266908E+00
         21   -1    0    0  501  502  0.00000000000E+00  0.00000000000E+00  0.23856224562E+02  0.23856224562E+02  0.00000000000E+00 0.  1.
          1   -1    0    0  502    0 -0.00000000000E+00 -0.00000000000E+00 -0.12006943038E+04  0.12006943038E+04  0.00000000000E+00 0. -1.
        -24    2    1    2    0    0  0.32007882643E+02  0.29553706132E+02 -0.43679671887E+03  0.44641220112E+03  0.81206856808E+02 0.  0.
         23    2    1    2    0    0 -0.66651578297E+02 -0.92230218858E+02 -0.31458921268E+03  0.34670112340E+03  0.91029940503E+02 0.  0.
         13    1    3    3    0    0  0.13744487635E+00 -0.27127497752E+02 -0.12847314006E+03  0.13130600802E+03  0.00000000000E+00 0. -1.
        -14    1    3    3    0    0  0.31870437767E+02  0.56681203885E+02 -0.30832357881E+03  0.31510619310E+03  0.00000000000E+00 0.  1.
        -11    1    4    4    0    0 -0.39763578476E+02  0.82717298874E+01 -0.10823624911E+03  0.11560557647E+03  0.00000000000E+00 0. -1.
         11    1    4    4    0    0 -0.26887999821E+02 -0.10050194874E+03 -0.20635296357E+03  0.23109554693E+03  0.00000000000E+00 0.  1.
          2    1    1    2  501    0  0.34643695654E+02  0.62676512725E+02 -0.42545214772E+03  0.43143720388E+03  0.00000000000E+00 0. -1.
<scales pt_clust_5="13000.00000" pt_clust_6="13000.00000" pt_clust_7="13000.00000" pt_clust_8="13000.00000" pt_clust_9="71.61380"></scales>
<clustering>
<clus scale="   71.614">  1  9  2 -1</clus>
<clus scale="   81.207">  5  6 -1 -1</clus>
<clus scale="   91.030">  7  8 -1 -1</clus>
<clus scale="  100.646">  2  5  1 -1</clus>
<clus scale="   71.614">  1  5  2 -1</clus>
</clustering>
</event>
<event>
 9    1  0.1487426E-004  0.2620221E+03  0.7546771E-02  0.1144825E+00
          1   -1    0    0  502    0 -0.00000000000E+00  0.00000000000E+00  0.49802578811E+03  0.49802578811E+03  0.00000000000E+00 0. -1.
         21   -1    0    0  501  502  0.00000000000E+00 -0.00000000000E+00 -0.21911251357E+03  0.21911251357E+03  0.00000000000E+00 0. -1.
        -24    2    1    2    0    0  0.59690448977E+02  0.99445253964E+01  0.21747438704E+02  0.10231986066E+03  0.79589946043E+02 0.  0.
         23    2    1    2    0    0 -0.94987179039E+01 -0.24859193514E+03  0.63870485551E+01  0.26501593074E+03  0.91128882880E+02 0.  0.
         13    1    3    3    0    0  0.15128415533E+02  0.23468129497E+02 -0.24163150020E+02  0.36925328401E+02  0.00000000000E+00 0. -1.
        -14    1    3    3    0    0  0.44562033444E+02 -0.13523604101E+02  0.45910588725E+02  0.65394532261E+02  0.00000000000E+00 0.  1.
        -11    1    4    4    0    0 -0.27712174519E+02 -0.11207939031E+03 -0.35968771131E+02  0.12092769264E+03  0.00000000000E+00 0.  1.
         11    1    4    4    0    0  0.18213456615E+02 -0.13651254483E+03  0.42355819686E+02  0.14408823810E+03  0.00000000000E+00 0. -1.
          2    1    1    2  501    0 -0.50191731073E+02  0.23864740975E+03  0.25077878729E+03  0.34980251028E+03  0.00000000000E+00 0. -1.
<scales pt_clust_5="13000.00000" pt_clust_6="13000.00000" pt_clust_7="13000.00000" pt_clust_8="13000.00000" pt_clust_9="245.66470"></scales>
<clustering>
<clus scale="   79.590">  5  6 -1 -1</clus>
<clus scale="   91.129">  7  8 -1 -1</clus>
<clus scale="   99.982">  1  5  2 -1</clus>
<clus scale="  245.665">  2  9  1 -1</clus>
<clus scale="  245.665">  2  5  1 -1</clus>
</clustering>
</event>
<event>
 9    1  0.1487426E-004  0.9685904E+02  0.7546771E-02  0.1293208E+00
         21   -1    0    0  501  502  0.00000000000E+00  0.00000000000E+00  0.25034600449E+03  0.25034600449E+03  0.00000000000E+00 0. -1.
          3   -1    0    0  502    0 -0.00000000000E+00 -0.00000000000E+00 -0.22055035459E+03  0.22055035459E+03  0.00000000000E+00 0. -1.
         23    2    1    2    0    0 -0.26831715831E+02 -0.58060430247E+01 -0.17567564706E+03  0.19997179927E+03  0.91504843707E+02 0.  0.
        -24    2    1    2    0    0  0.57604063242E+02  0.23887597508E+02  0.53558935896E+02  0.11487570392E+03  0.80243518863E+02 0.  0.
         11    1    4    4    0    0  0.64903608750E+02  0.11310364802E+02  0.71816915353E+01  0.66272011242E+02  0.00000000000E+00 0. -1.
        -12    1    4    4    0    0 -0.72995455082E+01  0.12577232706E+02  0.46377244361E+02  0.48603692676E+02  0.00000000000E+00 0.  1.
        -11    1    3    3    0    0 -0.41698382196E+02 -0.38468026389E+02 -0.82496328378E+02  0.10012086859E+03  0.00000000000E+00 0. -1.
         11    1    3    3    0    0  0.14866666365E+02  0.32661983365E+02 -0.93179318686E+02  0.99850930676E+02  0.00000000000E+00 0.  1.
          4    1    1    2  501    0 -0.30772347411E+02 -0.18081554483E+02  0.15191236107E+03  0.15604885589E+03  0.00000000000E+00 0. -1.
<scales pt_clust_5="13000.00000" pt_clust_6="13000.00000" pt_clust_7="13000.00000" pt_clust_8="13000.00000" pt_clust_9="35.69146"></scales>
<clustering>
<clus scale="   35.691">  1  9  2 -1</clus>
<clus scale="   80.244">  5  6 -1 -1</clus>
<clus scale="   86.299">  1  5  2 -1</clus>
<clus scale="   91.505">  7  8 -1 -1</clus>
<clus scale="   35.691">  1  5  2 -1</clus>
</clustering>
</event>
<event>
 9    1  0.1487426E-004  0.9565582E+02  0.7546771E-02  0.1295256E+00
          3   -1    0    0  502    0 -0.00000000000E+00  0.00000000000E+00  0.18166073053E+03  0.18166073053E+03  0.00000000000E+00 0. -1.
         21   -1    0    0  501  502  0.00000000000E+00 -0.00000000000E+00 -0.18417217496E+03  0.18417217496E+03  0.00000000000E+00 0. -1.
        -24    2    1    2    0    0  0.89997688630E+01  0.30632820308E+02  0.11881449101E+03  0.14718444025E+03  0.80789916808E+02 0.  0.
         23    2    1    2    0    0  0.47075438285E+02 -0.28012835356E+02 -0.27852383933E+02  0.10961361757E+03  0.90766590942E+02 0.  0.
         13    1    3    3    0    0 -0.12863741292E+02  0.47654067085E+02  0.10543109101E+03  0.11641349106E+03  0.00000000000E+00 0. -1.
        -14    1    3    3    0    0  0.21863510155E+02 -0.17021246777E+02  0.13383399994E+02  0.30770949182E+02  0.00000000000E+00 0.  1.
        -13    1    4    4    0    0  0.16286029428E+02 -0.52057546694E+02  0.97281414956E+01  0.55406314255E+02  0.00000000000E+00 0.  1.
         13    1    4    4    0    0  0.30789408857E+02  0.24044711338E+02 -0.37580525428E+02  0.54207303313E+02  0.00000000000E+00 0. -1.
          4    1    1    2  501    0 -0.56075207148E+02 -0.26199849517E+01 -0.93473551497E+02  0.10903484767E+03  0.00000000000E+00 0. -1.
<scales pt_clust_5="13000.00000" pt_clust_6="13000.00000" pt_clust_7="13000.00000" pt_clust_8="13000.00000" pt_clust_9="56.13638"></scales>
<clustering>
<clus scale="   56.136">  2  9  1 -1</clus>
<clus scale="   80.790">  5  6 -1 -1</clus>
<clus scale="   86.247">  1  5  2 -1</clus>
<clus scale="   90.767">  7  8 -1 -1</clus>
<clus scale="   56.136">  2  5  1 -1</clus>
</clustering>
</event>
<event>
 9    1  0.1487426E-004  0.1388371E+03  0.7546771E-02  0.1214952E+00
         21   -1    0    0  501  502  0.00000000000E+00  0.00000000000E+00  0.31978242367E+03  0.31978242367E+03  0.00000000000E+00 0. -1.
          1   -1    0    0  502    0 -0.00000000000E+00 -0.00000000000E+00 -0.19534068038E+03  0.19534068038E+03  0.00000000000E+00 0. -1.
        -24    2    1    2    0    0 -0.11385640574E+03 -0.28617810094E+02 -0.12208937694E+03  0.18763989259E+03  0.80750561267E+02 0.  0.
         23    2    1    2    0    0  0.98936715272E+02  0.75115072422E+01  0.64100370262E+02  0.14323052704E+03  0.81001419980E+02 0.  0.
         13    1    3    3    0    0 -0.99669289135E+02 -0.53966567105E+02 -0.94331933131E+02  0.14746142265E+03  0.00000000000E+00 0. -1.
        -14    1    3    3    0    0 -0.14187116608E+02  0.25348757010E+02 -0.27757443810E+02  0.40178469937E+02  0.00000000000E+00 0.  1.
        -13    1    4    4    0    0  0.61091157104E+02 -0.16405671581E+02  0.74028840504E+02  0.97373224054E+02  0.00000000000E+00 0. -1.
         13    1    4    4    0    0  0.37845558168E+02  0.23917178823E+02 -0.99284702416E+01  0.45857302987E+02  0.00000000000E+00 0.  1.
          2    1    1    2  501    0  0.14919690472E+02  0.21106302852E+02  0.18243074997E+03  0.18425268442E+03  0.00000000000E+00 0. -1.
<scales pt_clust_5="13000.00000" pt_clust_6="13000.00000" pt_clust_7="13000.00000" pt_clust_8="13000.00000" pt_clust_9="25.84711"></scales>
<clustering>
<clus scale="   25.847">  1  9  2 -1</clus>
<clus scale="   80.751">  5  6 -1 -1</clus>
<clus scale="   81.001">  7  8 -1 -1</clus>
<clus scale="  138.691">  2  5  1 -1</clus>
<clus scale="   25.847">  1  5  2 -1</clus>
</clustering>
</event>
<event>
 9    1  0.1487426E-004  0.1292684E+03  0.7546771E-02  0.1230034E+00
         21   -1    0    0  501  502  0.00000000000E+00  0.00000000000E+00  0.41879580888E+02  0.41879580888E+02  0.00000000000E+00 0.  1.
          1   -1    0    0  502    0 -0.00000000000E+00 -0.00000000000E+00 -0.50526551484E+03  0.50526551484E+03  0.00000000000E+00 0. -1.
        -24    2    1    2    0    0 -0.72598724527E+02  0.69249182399E+02 -0.29198711835E+03  0.31920141442E+03  0.81037285362E+02 0.  0.
         23    2    1    2    0    0  0.48247435044E+02 -0.74475145370E+02 -0.13157411267E+03  0.18097238208E+03  0.86976397271E+02 0.  0.
         11    1    3    3    0    0 -0.48391217180E+02 -0.32423148973E+01 -0.76663592090E+02  0.90716750704E+02  0.00000000000E+00 0. -1.
        -12    1    3    3    0    0 -0.24207507347E+02  0.72491497296E+02 -0.21532352626E+03  0.22848466371E+03  0.00000000000E+00 0.  1.
        -13    1    4    4    0    0 -0.24642922103E+02 -0.29925007833E+02 -0.38436930555E+02  0.54591000486E+02  0.00000000000E+00 0.  1.
         13    1    4    4    0    0  0.72890357147E+02 -0.44550137537E+02 -0.93137182118E+02  0.12638138159E+03  0.00000000000E+00 0. -1.
          2    1    1    2  501    0  0.24351289483E+02  0.52259629709E+01 -0.39824702932E+02  0.46971299238E+02  0.00000000000E+00 0. -1.
<scales pt_clust_5="13000.00000" pt_clust_6="13000.00000" pt_clust_7="13000.00000" pt_clust_8="13000.00000" pt_clust_9="24.90575"></scales>
<clustering>
<clus scale="   24.906">  1  9  2 -1</clus>
<clus scale="   81.037">  5  6 -1 -1</clus>
<clus scale="   86.976">  7  8 -1 -1</clus>
<clus scale="  125.349">  2  5  1 -1</clus>
<clus scale="   24.906">  1  5  2 -1</clus>
</clustering>
</event>
<event>
 9    1  0.1487426E-004  0.1586462E+03  0.7546771E-02  0.1202303E+00
          1   -1    0    0  502    0 -0.00000000000E+00  0.00000000000E+00  0.12935342846E+03  0.12935342846E+03  0.00000000000E+00 0. -1.
         21   -1    0    0  501  502  0.00000000000E+00 -0.00000000000E+00 -0.42510830637E+03  0.42510830637E+03  0.00000000000E+00 0. -1.
        -24    2    1    2    0    0 -0.90315030271E+02  0.83475744146E+01 -0.10919325314E+03  0.16362322141E+03  0.81381234710E+02 0.  0.
         23    2    1    2    0    0 -0.40015151232E+02 -0.73855238387E+02  0.31842047108E+02  0.12820307380E+03  0.91467500249E+02 0.  0.
         13    1    3    3    0    0 -0.44059907769E+02  0.23197119108E+02 -0.10331555393E+03  0.11468864587E+03  0.00000000000E+00 0. -1.
        -14    1    3    3    0    0 -0.46255122502E+02 -0.14849544693E+02 -0.58776992043E+01  0.48934575540E+02  0.00000000000E+00 0.  1.
        -13    1    4    4    0    0 -0.57275098469E+02 -0.85362093736E+02  0.31284480002E+02  0.10745158277E+03  0.00000000000E+00 0. -1.
         13    1    4    4    0    0  0.17259947237E+02  0.11506855349E+02  0.55756710596E+00  0.20751491024E+02  0.00000000000E+00 0.  1.
          2    1    1    2  501    0  0.13033018150E+03  0.65507663972E+02 -0.21840367189E+03  0.26263543962E+03  0.00000000000E+00 0. -1.
<scales pt_clust_5="13000.00000" pt_clust_6="13000.00000" pt_clust_7="13000.00000" pt_clust_8="13000.00000" pt_clust_9="129.62368"></scales>
<clustering>
<clus scale="   81.381">  5  6 -1 -1</clus>
<clus scale="   91.468">  7  8 -1 -1</clus>
<clus scale="  121.858">  1  5  2 -1</clus>
<clus scale="  129.624">  2  9  1 -1</clus>
<clus scale="  129.624">  2  5  1 -1</clus>
</clustering>
</event>
<event>
 9    1  0.1487426E-004  0.3553720E+03  0.7546771E-02  0.1060829E+00
         21   -1    0    0  501  502  0.00000000000E+00  0.00000000000E+00  0.21444384037E+04  0.21444384037E+04  0.00000000000E+00 0. -1.
          1   -1    0    0  502    0 -0.00000000000E+00 -0.00000000000E+00 -0.84260073536E+02  0.84260073536E+02  0.00000000000E+00 0. -1.
         23    2    1    2    0    0  0.30116521438E+03 -0.22703619767E+03  0.86749367006E+03  0.95036892993E+03  0.91705583149E+02 0.  0.
        -24    2    1    2    0    0 -0.25320311487E+03  0.16209339895E+03  0.11413255266E+04  0.11826441739E+04  0.75081269239E+02 0.  0.
         13    1    4    4    0    0 -0.94948545092E+02  0.85752900513E+02  0.60103767821E+03  0.61450392740E+03  0.00000000000E+00 0. -1.
        -14    1    4    4    0    0 -0.15825456978E+03  0.76340498436E+02  0.54028784836E+03  0.56814024646E+03  0.00000000000E+00 0.  1.
        -13    1    3    3    0    0  0.23450098436E+03 -0.19331693331E+03  0.76803283804E+03  0.82597614293E+03  0.00000000000E+00 0. -1.
         13    1    3    3    0    0  0.66664230028E+02 -0.33719264358E+02  0.99460832016E+02  0.12439278701E+03  0.00000000000E+00 0.  1.
          2    1    1    2  501    0 -0.47962099514E+02  0.64942798723E+02  0.51359133552E+02  0.95685373464E+02  0.00000000000E+00 0. -1.
<scales pt_clust_5="13000.00000" pt_clust_6="13000.00000" pt_clust_7="13000.00000" pt_clust_8="13000.00000" pt_clust_9="80.73374"></scales>
<clustering>
<clus scale="   75.081">  5  6 -1 -1</clus>
<clus scale="   80.734">  1  9  2 -1</clus>
<clus scale="   91.706">  7  8 -1 -1</clus>
<clus scale="  351.449">  1  5  2 -1</clus>
<clus scale="   80.734">  1  5  2 -1</clus>
</clustering>
</event>
<event>
 9    1  0.1487426E-004  0.1562680E+03  0.7546771E-02  0.1194963E+00
         21   -1    0    0  501  502  0.00000000000E+00  0.00000000000E+00  0.68559267525E+02  0.68559267525E+02  0.00000000000E+00 0. -1.
          1   -1    0    0  502    0 -0.00000000000E+00 -0.00000000000E+00 -0.68198315055E+03  0.68198315055E+03  0.00000000000E+00 0. -1.
         23    2    1    2    0    0 -0.16581638284E+02 -0.16408762882E+03 -0.42340329927E+03  0.46345318846E+03  0.91207474495E+02 0.  0.
        -24    2    1    2    0    0  0.46829788935E+02  0.68555141747E+02 -0.94859374966E+02  0.14889710841E+03  0.79241474508E+02 0.  0.
         11    1    4    4    0    0  0.40078566758E+02  0.14760425111E+01 -0.62141041770E+02  0.73959308320E+02  0.00000000000E+00 0. -1.
        -12    1    4    4    0    0  0.67512221769E+01  0.67079099236E+02 -0.32718333196E+02  0.74937800090E+02  0.00000000000E+00 0.  1.
        -11    1    3    3    0    0 -0.25637048174E+02 -0.15291511993E+02 -0.14094035963E+03  0.14406690651E+03  0.00000000000E+00 0.  1.
         11    1    3    3    0    0  0.90554098898E+01 -0.14879611683E+03 -0.28246293964E+03  0.31938628196E+03  0.00000000000E+00 0. -1.
          2    1    1    2  501    0 -0.30248150651E+02  0.95532487075E+02 -0.95161208792E+02  0.13819212121E+03  0.00000000000E+00 0. -1.
<scales pt_clust_5="13000.00000" pt_clust_6="13000.00000" pt_clust_7="13000.00000" pt_clust_8="13000.00000" pt_clust_9="100.20682"></scales>
<clustering>
<clus scale="   79.241">  5  6 -1 -1</clus>
<clus scale="   91.207">  7  8 -1 -1</clus>
<clus scale="  100.207">  1  9  2 -1</clus>
<clus scale="  149.600">  1  5  2 -1</clus>
<clus scale="  100.207">  1  5  2 -1</clus>
</clustering>
</event>
<event>
 9    1  0.1487426E-004  0.2189628E+03  0.7546771E-02  0.1166081E+00
         -2   -1    0    0    0  501 -0.00000000000E+00  0.00000000000E+00  0.19506511327E+03  0.19506511327E+03  0.00000000000E+00 0.  1.
         21   -1    0    0  501  502  0.00000000000E+00 -0.00000000000E+00 -0.92478193820E+03  0.92478193820E+03  0.00000000000E+00 0.  1.
        -24    2    1    2    0    0  0.61661212270E+02 -0.94640111832E+01 -0.42813253876E+03  0.44059116043E+03  0.83255193835E+02 0.  0.
         23    2    1    2    0    0 -0.20772860501E+03  0.31392846786E+02 -0.42806133178E+03  0.48480024027E+03  0.87510485279E+02 0.  0.
         11    1    3    3    0    0  0.25748985058E+02 -0.45201220498E+02 -0.25218532600E+03  0.25749485279E+03  0.00000000000E+00 0. -1.
        -12    1    3    3    0    0  0.35912227212E+02  0.35737209314E+02 -0.17594721276E+03  0.18309630764E+03  0.00000000000E+00 0.  1.
        -11    1    4    4    0    0 -0.12683276054E+03  0.57673358639E+02 -0.30367435119E+03  0.33411207254E+03  0.00000000000E+00 0. -1.
         11    1    4    4    0    0 -0.80895844467E+02 -0.26280511853E+02 -0.12438698059E+03  0.15068816773E+03  0.00000000000E+00 0.  1.
         -1    1    1    2    0  502  0.14606739274E+03 -0.21928835603E+02  0.12647704561E+03  0.19445565077E+03  0.00000000000E+00 0.  1.
<scales pt_clust_5="13000.00000" pt_clust_6="13000.00000" pt_clust_7="13000.00000" pt_clust_8="13000.00000" pt_clust_9="200.71540"></scales>
<clustering>
<clus scale="   83.255">  5  6 -1 -1</clus>
<clus scale="   87.510">  7  8 -1 -1</clus>
<clus scale="  104.034">  1  5  2 -1</clus>
<clus scale="  200.715">  2  9  1 -1</clus>
<clus scale="  200.715">  2  5  1 -1</clus>
</clustering>
</event>
<event>
 9    1  0.1487426E-004  0.1312402E+03  0.7546771E-02  0.1225903E+00
         21   -1    0    0  501  502  0.00000000000E+00  0.00000000000E+00  0.21511141595E+03  0.21511141595E+03  0.00000000000E+00 0.  1.
          1   -1    0    0  502    0 -0.00000000000E+00 -0.00000000000E+00 -0.42444279459E+03  0.42444279459E+03  0.00000000000E+00 0. -1.
         23    2    1    2    0    0  0.43487540750E+02  0.99805864221E+02 -0.38126758676E+03  0.40464232757E+03  0.80734526762E+02 0.  0.
        -24    2    1    2    0    0 -0.16532147095E+02 -0.57005164054E+02  0.70985727949E+02  0.12199823177E+03  0.79509083548E+02 0.  0.
         13    1    4    4    0    0  0.20757639505E+02 -0.84194092443E+01 -0.64113885734E+01  0.23299612728E+02  0.00000000000E+00 0. -1.
        -14    1    4    4    0    0 -0.37289786600E+02 -0.48585754810E+02  0.77397116523E+02  0.98698619044E+02  0.00000000000E+00 0.  1.
        -13    1    3    3    0    0  0.37489970104E+02  0.28885605145E+01 -0.12759224932E+03  0.13301738130E+03  0.00000000000E+00 0.  1.
         13    1    3    3    0    0  0.59975706461E+01  0.96917303707E+02 -0.25367533744E+03  0.27162494627E+03  0.00000000000E+00 0. -1.
          2    1    1    2  501    0 -0.26955393655E+02 -0.42800700167E+02  0.10095048017E+03  0.11291365121E+03  0.00000000000E+00 0. -1.
<scales pt_clust_5="13000.00000" pt_clust_6="13000.00000" pt_clust_7="13000.00000" pt_clust_8="13000.00000" pt_clust_9="50.58155"></scales>
<clustering>
<clus scale="   50.582">  1  9  2 -1</clus>
<clus scale="   79.509">  5  6 -1 -1</clus>
<clus scale="   80.735">  7  8 -1 -1</clus>
<clus scale="  130.490">  1  5  2 -1</clus>
<clus scale="   50.582">  1  5  2 -1</clus>
</clustering>
</event>
<event>
 9    1  0.1487426E-004  0.9842918E+02  0.7546771E-02  0.1292444E+00
          1   -1    0    0  502    0 -0.00000000000E+00  0.00000000000E+00  0.47114931696E+03  0.47114931696E+03  0.00000000000E+00 0. -1.
         21   -1    0    0  501  502  0.00000000000E+00 -0.00000000000E+00 -0.48594905802E+02  0.48594905802E+02  0.00000000000E+00 0.  1.
         23    2    1    2    0    0  0.19613105503E+02  0.79860685791E+00  0.13134375356E+03  0.16469559220E+03  0.97407108624E+02 0.  0.
        -24    2    1    2    0    0  0.56277517829E+02 -0.21382160935E+02  0.79593686903E+02  0.12929475641E+03  0.82204763981E+02 0.  0.
         11    1    4    4    0    0  0.32585888605E+02  0.67752306655E+01  0.85751974957E+02  0.91984482908E+02  0.00000000000E+00 0. -1.
        -12    1    4    4    0    0  0.23691629225E+02 -0.28157391601E+02 -0.61582880545E+01  0.37310273503E+02  0.00000000000E+00 0.  1.
        -13    1    3    3    0    0  0.10366142912E+02 -0.41301403573E+02  0.23679378917E+02  0.48723462950E+02  0.00000000000E+00 0. -1.
         13    1    3    3    0    0  0.92469625916E+01  0.42100010431E+02  0.10766437465E+03  0.11597212925E+03  0.00000000000E+00 0.  1.
          2    1    1    2  501    0 -0.75890623333E+02  0.20583554077E+02  0.21161697069E+03  0.22575387415E+03  0.00000000000E+00 0. -1.
<scales pt_clust_5="13000.00000" pt_clust_6="13000.00000" pt_clust_7="13000.00000" pt_clust_8="13000.00000" pt_clust_9="78.63254"></scales>
<clustering>
<clus scale="   78.633">  2  9  1 -1</clus>
<clus scale="   82.205">  5  6 -1 -1</clus>
<clus scale="   83.413">  2  5  1 -1</clus>
<clus scale="   97.407">  7  8 -1 -1</clus>
<clus scale="   78.633">  2  5  1 -1</clus>
</clustering>
</event>
<event>
 9    1  0.1487426E-004  0.1391676E+03  0.7546771E-02  0.1215347E+00
          1   -1    0    0  502    0 -0.00000000000E+00  0.00000000000E+00  0.12196457210E+04  0.12196457210E+04  0.00000000000E+00 0. -1.
         21   -1    0    0  501  502  0.00000000000E+00 -0.00000000000E+00 -0.26278644767E+02  0.26278644767E+02  0.00000000000E+00 0.  1.
        -24    2    1    2    0    0 -0.10178827997E+03 -0.49975578574E+02  0.66527821113E+03  0.67982345349E+03  0.81892718311E+02 0.  0.
         23    2    1    2    0    0  0.11237156936E+03 -0.10302531543E+02  0.39062944913E+03  0.41563314958E+03  0.86174455276E+02 0.  0.
         11    1    3    3    0    0 -0.10083172430E+03 -0.22651998208E+02  0.60323470565E+03  0.61202308759E+03  0.00000000000E+00 0. -1.
        -12    1    3    3    0    0 -0.95655566717E+00 -0.27323580366E+02  0.62043505483E+02  0.67800365894E+02  0.00000000000E+00 0.  1.
        -11    1    4    4    0    0  0.80703035344E+02 -0.45295604507E+02  0.22184424235E+03  0.24037374974E+03  0.00000000000E+00 0.  1.
         11    1    4    4    0    0  0.31668534019E+02  0.34993072965E+02  0.16878520678E+03  0.17525939984E+03  0.00000000000E+00 0. -1.
          2    1    1    2  501    0 -0.10583289394E+02  0.60278110117E+02  0.13745941597E+03  0.15046776271E+03  0.00000000000E+00 0. -1.
<scales pt_clust_5="13000.00000" pt_clust_6="13000.00000" pt_clust_7="13000.00000" pt_clust_8="13000.00000" pt_clust_9="61.20014"></scales>
<clustering>
<clus scale="   61.200">  2  9  1 -1</clus>
<clus scale="   81.893">  5  6 -1 -1</clus>
<clus scale="   86.174">  7  8 -1 -1</clus>
<clus scale="  136.558">  1  5  2 -1</clus>
<clus scale="   61.200">  2  5  1 -1</clus>
</clustering>
</event>
<event>
 9    1  0.1487426E-004  0.1094006E+03  0.7546771E-02  0.1273784E+00
         21   -1    0    0  501  502  0.00000000000E+00  0.00000000000E+00  0.51813163078E+03  0.51813163078E+03  0.00000000000E+00 0.  1.
          1   -1    0    0  502    0 -0.00000000000E+00 -0.00000000000E+00 -0.40112225848E+02  0.40112225848E+02  0.00000000000E+00 0. -1.
         23    2    1    2    0    0 -0.11290370025E+02  0.31173141029E+02  0.76630489317E+02  0.13603152151E+03  0.10739229848E+03 0.  0.
        -24    2    1    2    0    0 -0.10742364653E+02  0.40285679212E+00  0.19989222044E+03  0.21706993775E+03  0.83945800298E+02 0.  0.
         13    1    4    4    0    0 -0.25101683841E+02 -0.16630830631E+02  0.20798519605E+02  0.36595866937E+02  0.00000000000E+00 0. -1.
        -14    1    4    4    0    0  0.14359319188E+02  0.17033687423E+02  0.17909370084E+03  0.18047407081E+03  0.00000000000E+00 0.  1.
        -11    1    3    3    0    0 -0.16755448162E+02 -0.33897573053E+02  0.34758069337E+01  0.37971986198E+02  0.00000000000E+00 0.  1.
         11    1    3    3    0    0  0.54650781374E+01  0.65070714082E+02  0.73154682383E+02  0.98059535308E+02  0.00000000000E+00 0. -1.
          2    1    1    2  501    0  0.22032734677E+02 -0.31575997821E+02  0.20149669517E+03  0.20514239737E+03  0.00000000000E+00 0. -1.
<scales pt_clust_5="13000.00000" pt_clust_6="13000.00000" pt_clust_7="13000.00000" pt_clust_8="13000.00000" pt_clust_9="38.50305"></scales>
<clustering>
<clus scale="   38.503">  1  9  2 -1</clus>
<clus scale="   83.946">  5  6 -1 -1</clus>
<clus scale="   86.500">  1  5  2 -1</clus>
<clus scale="  107.392">  7  8 -1 -1</clus>
<clus scale="   38.503">  1  5  2 -1</clus>
</clustering>
</event>
<event>
 9    1  0.1487426E-004  0.1234929E+03  0.7546771E-02  0.1243700E+00
         21   -1    0    0  501  502  0.00000000000E+00  0.00000000000E+00  0.31449518417E+02  0.31449518417E+02  0.00000000000E+00 0.  1.
          1   -1    0    0  502    0 -0.00000000000E+00 -0.00000000000E+00 -0.81107394759E+03  0.81107394759E+03  0.00000000000E+00 0. -1.
         23    2    1    2    0    0 -0.34656625748E+02  0.36633985624E+02 -0.29656689338E+03  0.31618538252E+03  0.97355756178E+02 0.  0.
        -24    2    1    2    0    0  0.10001961244E+03 -0.59082765690E+02 -0.31677587464E+03  0.34626626839E+03  0.77837508938E+02 0.  0.
         13    1    4    4    0    0  0.80738760189E+02 -0.77278170555E+02 -0.27432090493E+03  0.29621381116E+03  0.00000000000E+00 0. -1.
        -14    1    4    4    0    0  0.19280852249E+02  0.18195404865E+02 -0.42454969712E+02  0.50052457231E+02  0.00000000000E+00 0.  1.
        -11    1    3    3    0    0 -0.28143132727E+02 -0.30330575569E+02 -0.13410790519E+03  0.14034568027E+03  0.00000000000E+00 0.  1.
         11    1    3    3    0    0 -0.65134930212E+01  0.66964561193E+02 -0.16245898819E+03  0.17583970226E+03  0.00000000000E+00 0. -1.
          2    1    1    2  501    0 -0.65362986689E+02  0.22448780065E+02 -0.16628166115E+03  0.18007181509E+03  0.00000000000E+00 0. -1.
<scales pt_clust_5="13000.00000" pt_clust_6="13000.00000" pt_clust_7="13000.00000" pt_clust_8="13000.00000" pt_clust_9="69.11055"></scales>
<clustering>
<clus scale="   69.111">  1  9  2 -1</clus>
<clus scale="   77.838">  5  6 -1 -1</clus>
<clus scale="   97.356">  7  8 -1 -1</clus>
<clus scale="  108.771">  1  5  2 -1</clus>
<clus scale="   69.111">  1  5  2 -1</clus>
</clustering>
</event>
<event>
 9    1  0.1487426E-004  0.1015705E+03  0.7546771E-02  0.1283418E+00
          1   -1    0    0  502    0 -0.00000000000E+00  0.00000000000E+00  0.71840548511E+03  0.71840548511E+03  0.00000000000E+00 0. -1.
         21   -1    0    0  501  502  0.00000000000E+00 -0.00000000000E+00 -0.23760739567E+02  0.23760739567E+02  0.00000000000E+00 0. -1.
        -24    2    1    2    0    0 -0.24993593570E+02  0.64491404494E+02  0.25269896407E+03  0.27289518126E+03  0.76362245539E+02 0.  0.
         23    2    1    2    0    0  0.19977539502E+02 -0.16090972360E+02  0.17923298144E+03  0.20208987280E+03  0.89765436417E+02 0.  0.
         13    1    3    3    0    0 -0.29308394881E+02  0.19207234588E+02  0.20100416118E+03  0.20403571423E+03  0.00000000000E+00 0. -1.
        -14    1    3    3    0    0  0.43148013105E+01  0.45284169906E+02  0.51694802890E+02  0.68859467034E+02  0.00000000000E+00 0.  1.
        -11    1    4    4    0    0  0.56875135047E+01  0.28080841498E+02  0.16933760245E+02  0.33281131368E+02  0.00000000000E+00 0. -1.
         11    1    4    4    0    0  0.14290025997E+02 -0.44171813858E+02  0.16229922119E+03  0.16880874143E+03  0.00000000000E+00 0.  1.
          2    1    1    2  501    0  0.50160540683E+01 -0.48400432134E+02  0.26271280004E+03  0.26718117062E+03  0.00000000000E+00 0. -1.
<scales pt_clust_5="13000.00000" pt_clust_6="13000.00000" pt_clust_7="13000.00000" pt_clust_8="13000.00000" pt_clust_9="48.65969"></scales>
<clustering>
<clus scale="   48.660">  2  9  1 -1</clus>
<clus scale="   76.362">  5  6 -1 -1</clus>
<clus scale="   89.765">  7  8 -1 -1</clus>
<clus scale="   89.944">  1  5  2 -1</clus>
<clus scale="   48.660">  2  5  1 -1</clus>
</clustering>
</event>
<event>
 9    1  0.1487426E-004  0.9456165E+02  0.7546771E-02  0.1301002E+00
         -4   -1    0    0    0  501 -0.00000000000E+00  0.00000000000E+00  0.11289961384E+03  0.11289961384E+03  0.00000000000E+00 0.  1.
         21   -1    0    0  501  502  0.00000000000E+00 -0.00000000000E+00 -0.10981444825E+03  0.10981444825E+03  0.00000000000E+00 0. -1.
        -24    2    1    2    0    0 -0.62519885360E+01  0.20428239495E+02  0.51133699656E+02  0.95986921012E+02  0.78373678204E+02 0.  0.
         23    2    1    2    0    0 -0.12516077335E+02 -0.71534725986E+01 -0.41604221399E+02  0.10285270080E+03  0.92951290802E+02 0.  0.
         11    1    3    3    0    0 -0.11573700447E+02  0.47248654258E+02  0.48209813337E+02  0.68487750534E+02  0.00000000000E+00 0. -1.
        -12    1    3    3    0    0  0.53217119110E+01 -0.26820414763E+02  0.29238863194E+01  0.27499170477E+02  0.00000000000E+00 0.  1.
        -11    1    4    4    0    0 -0.42453239300E+02 -0.31222129940E+02 -0.11228634470E+02  0.53881176278E+02  0.00000000000E+00 0.  1.
         11    1    4    4    0    0  0.29937161966E+02  0.24068657341E+02 -0.30375586930E+02  0.48971524523E+02  0.00000000000E+00 0. -1.
         -3    1    1    2    0  502  0.18768065871E+02 -0.13274766896E+02 -0.64443126652E+01  0.23874440274E+02  0.00000000000E+00 0.  1.
<scales pt_clust_5="13000.00000" pt_clust_6="13000.00000" pt_clust_7="13000.00000" pt_clust_8="13000.00000" pt_clust_9="22.98825"></scales>
<clustering>
<clus scale="   22.988">  2  9  1 -1</clus>
<clus scale="   78.374">  5  6 -1 -1</clus>
<clus scale="   80.277">  1  5  2 -1</clus>
<clus scale="   92.951">  7  8 -1 -1</clus>
<clus scale="   22.988">  2  5  1 -1</clus>
</clustering>
</event>
<event>
 9    1  0.1487426E-004  0.2262996E+03  0.7546771E-02  0.1130128E+00
         21   -1    0    0  501  502  0.00000000000E+00  0.00000000000E+00  0.68486032413E+02  0.68486032413E+02  0.00000000000E+00 0.  1.
         -2   -1    0    0    0  501 -0.00000000000E+00 -0.00000000000E+00 -0.28712812303E+04  0.28712812303E+04  0.00000000000E+00 0.  1.
        -24    2    1    2    0    0  0.14913113684E+03 -0.17679468010E+03 -0.62003537645E+03  0.66678568086E+03  0.81626106515E+02 0.  0.
         23    2    1    2    0    0 -0.23241964039E+03 -0.28694705794E+02 -0.37657603938E+03  0.45323909537E+03  0.93669038429E+02 0.  0.
         13    1    3    3    0    0  0.65794158877E+02 -0.12574561691E+03 -0.29475459989E+03  0.32714080404E+03  0.00000000000E+00 0. -1.
        -14    1    3    3    0    0  0.83336977968E+02 -0.51049063192E+02 -0.32528077656E+03  0.33964487682E+03  0.00000000000E+00 0.  1.
        -13    1    4    4    0    0 -0.30845486625E+02  0.46346519343E+01 -0.12662501496E+03  0.13041019307E+03  0.00000000000E+00 0.  1.
         13    1    4    4    0    0 -0.20157415376E+03 -0.33329357728E+02 -0.24995102442E+03  0.32282890230E+03  0.00000000000E+00 0. -1.
         -1    1    1    2    0  502  0.83288503543E+02  0.20548938589E+03 -0.18061837821E+04  0.18197424865E+04  0.00000000000E+00 0.  1.
<scales pt_clust_5="13000.00000" pt_clust_6="13000.00000" pt_clust_7="13000.00000" pt_clust_8="13000.00000" pt_clust_9="221.72711"></scales>
<clustering>
<clus scale="   81.626">  5  6 -1 -1</clus>
<clus scale="   93.669">  7  8 -1 -1</clus>
<clus scale="  221.727">  1  9  2 -1</clus>
<clus scale="  221.586">  2  5  1 -1</clus>
<clus scale="  221.727">  1  5  2 -1</clus>
</clustering>
</event>
<event>
 9    1  0.1487426E-004  0.1115446E+03  0.7546771E-02  0.1262023E+00
          1   -1    0    0  502    0 -0.00000000000E+00  0.00000000000E+00  0.28820624806E+03  0.28820624806E+03  0.00000000000E+00 0. -1.
         21   -1    0    0  501  502  0.00000000000E+00 -0.00000000000E+00 -0.17100376985E+03  0.17100376985E+03  0.00000000000E+00 0. -1.
        -24    2    1    2    0    0  0.43284092596E+01 -0.76850023950E+02  0.20043822739E+03  0.22887640501E+03  0.79273352803E+02 0.  0.
         23    2    1    2    0    0  0.12515948468E+02  0.36091556582E+02  0.34798457633E+02  0.10432941047E+03  0.90633568903E+02 0.  0.
         11    1    3    3    0    0  0.24739544847E+02 -0.80007871403E+02  0.12351689780E+03  0.14923045469E+03  0.00000000000E+00 0. -1.
        -12    1    3    3    0    0 -0.20411135587E+02  0.31578474526E+01  0.76921329594E+02  0.79645950324E+02  0.00000000000E+00 0.  1.
        -11    1    4    4    0    0 -0.21185308872E+02  0.44504560550E+01 -0.22155906177E+02  0.30975926937E+02  0.00000000000E+00 0. -1.
         11    1    4    4    0    0  0.33701257340E+02  0.31641100527E+02  0.56954363810E+02  0.73353483529E+02  0.00000000000E+00 0.  1.
          2    1    1    2  501    0 -0.16844357728E+02  0.40758467368E+02 -0.11803420682E+03  0.12600420242E+03  0.00000000000E+00 0. -1.
<scales pt_clust_5="13000.00000" pt_clust_6="13000.00000" pt_clust_7="13000.00000" pt_clust_8="13000.00000" pt_clust_9="44.10198"></scales>
<clustering>
<clus scale="   44.102">  2  9  1 -1</clus>
<clus scale="   79.273">  5  6 -1 -1</clus>
<clus scale="   90.634">  7  8 -1 -1</clus>
<clus scale="  102.528">  1  5  2 -1</clus>
<clus scale="   44.102">  2  5  1 -1</clus>
</clustering>
</event>
<event>
 9    1  0.1487426E-004  0.8752844E+02  0.7546771E-02  0.1312076E+00
         21   -1    0    0  501  502  0.00000000000E+00  0.00000000000E+00  0.53247520752E+02  0.53247520752E+02  0.00000000000E+00 0. -1.
         -4   -1    0    0    0  501 -0.00000000000E+00 -0.00000000000E+00 -0.30684087862E+03  0.30684087862E+03  0.00000000000E+00 0.  1.
        -24    2    1    2    0    0 -0.13475119084E+02  0.16666249720E+02 -0.21632986858E+03  0.23178091633E+03  0.80401731449E+02 0.  0.
         23    2    1    2    0    0  0.23834311407E+02  0.76854856554E+01 -0.46377773696E+02  0.10031837691E+03  0.85356533217E+02 0.  0.
         13    1    3    3    0    0  0.39709459442E+00  0.44375926582E+02 -0.75451038666E+02  0.87534220622E+02  0.00000000000E+00 0. -1.
        -14    1    3    3    0    0 -0.13872213678E+02 -0.27709676862E+02 -0.14087882992E+03  0.14424669571E+03  0.00000000000E+00 0.  1.
        -11    1    4    4    0    0 -0.12714684472E+02 -0.25926080506E+02  0.45017516583E+01  0.29224828821E+02  0.00000000000E+00 0.  1.
         11    1    4    4    0    0  0.36548995880E+02  0.33611566161E+02 -0.50879525354E+02  0.71093548089E+02  0.00000000000E+00 0. -1.
         -3    1    1    2    0  502 -0.10359192323E+02 -0.24351735375E+02  0.91142844147E+01  0.27989106127E+02  0.00000000000E+00 0.  1.
<scales pt_clust_5="13000.00000" pt_clust_6="13000.00000" pt_clust_7="13000.00000" pt_clust_8="13000.00000" pt_clust_9="26.46356"></scales>
<clustering>
<clus scale="   26.464">  1  9  2 -1</clus>
<clus scale="   80.402">  5  6 -1 -1</clus>
<clus scale="   82.704">  2  5  1 -1</clus>
<clus scale="   85.357">  7  8 -1 -1</clus>
<clus scale="   26.464">  1  5  2 -1</clus>
</clustering>
</event>
<event>
 9    1  0.1487426E-004  0.1345322E+03  0.7546771E-02  0.1223783E+00
          1   -1    0    0  502    0 -0.00000000000E+00  0.00000000000E+00  0.68361352970E+03  0.68361352970E+03  0.00000000000E+00 0. -1.
         21   -1    0    0  501  502  0.00000000000E+00 -0.00000000000E+00 -0.46725760317E+02  0.46725760317E+02  0.00000000000E+00 0. -1.
         23    2    1    2    0    0  0.47644916979E+02  0.65790860082E+02  0.16339340811E+03  0.20389616018E+03  0.90982212209E+02 0.  0.
        -24    2    1    2    0    0  0.31662664468E+01 -0.12597954845E+03  0.26944468526E+03  0.30771790301E+03  0.78797192516E+02 0.  0.
         13    1    4    4    0    0  0.99682281145E+01 -0.98629490649E+02  0.12005551650E+03  0.15569350995E+03  0.00000000000E+00 0. -1.
        -14    1    4    4    0    0 -0.68019616677E+01 -0.27350057799E+02  0.14938916876E+03  0.15202439306E+03  0.00000000000E+00 0.  1.
        -13    1    3    3    0    0 -0.27374504875E+02  0.13533453131E+02  0.40127573294E+02  0.50425588834E+02  0.00000000000E+00 0.  1.
         13    1    3    3    0    0  0.75019421855E+02  0.52257406950E+02  0.12326583481E+03  0.15347057134E+03  0.00000000000E+00 0. -1.
          2    1    1    2  501    0 -0.50811183426E+02  0.60188688367E+02  0.20404967601E+03  0.21872522682E+03  0.00000000000E+00 0. -1.
<scales pt_clust_5="13000.00000" pt_clust_6="13000.00000" pt_clust_7="13000.00000" pt_clust_8="13000.00000" pt_clust_9="78.76840"></scales>
<clustering>
<clus scale="   78.768">  2  9  1 -1</clus>
<clus scale="   78.797">  5  6 -1 -1</clus>
<clus scale="   90.982">  7  8 -1 -1</clus>
<clus scale="  126.610">  2  5  1 -1</clus>
<clus scale="   78.768">  2  5  1 -1</clus>
</clustering>
</event>
<event>
 9    1  0.1487426E-004  0.1425949E+03  0.7546771E-02  0.1210732E+00
         21   -1    0    0  501  502  0.00000000000E+00  0.00000000000E+00  0.10977843386E+03  0.10977843386E+03  0.00000000000E+00 0.  1.
          1   -1    0    0  502    0 -0.00000000000E+00 -0.00000000000E+00 -0.50729429458E+03  0.50729429458E+03  0.00000000000E+00 0. -1.
         23    2    1    2    0    0  0.87596664086E+02 -0.81207652260E+02 -0.39709349614E+03  0.42353108772E+03  0.86182824494E+02 0.  0.
        -24    2    1    2    0    0 -0.74229889403E+02  0.59691260194E+02 -0.52113583649E+02  0.13597769434E+03  0.81859542717E+02 0.  0.
         11    1    4    4    0    0 -0.65769737074E+02  0.33474542785E+02 -0.71135059837E+02  0.10250073203E+03  0.00000000000E+00 0. -1.
        -12    1    4    4    0    0 -0.84601523290E+01  0.26216717408E+02  0.19021476188E+02  0.33476962309E+02  0.00000000000E+00 0.  1.
        -13    1    3    3    0    0  0.82917345671E+01  0.18274786784E+02 -0.53530141937E+02  0.57168144888E+02  0.00000000000E+00 0. -1.
         13    1    3    3    0    0  0.79304929519E+02 -0.99482439044E+02 -0.34356335421E+03  0.36636294283E+03  0.00000000000E+00 0.  1.
          2    1    1    2  501    0 -0.13366774684E+02  0.21516392066E+02  0.51691219080E+02  0.57563946381E+02  0.00000000000E+00 0. -1.
<scales pt_clust_5="13000.00000" pt_clust_6="13000.00000" pt_clust_7="13000.00000" pt_clust_8="13000.00000" pt_clust_9="25.33033"></scales>
<clustering>
<clus scale="   25.330">  1  9  2 -1</clus>
<clus scale="   81.860">  5  6 -1 -1</clus>
<clus scale="   86.183">  7  8 -1 -1</clus>
<clus scale="  140.024">  1  5  2 -1</clus>
<clus scale="   25.330">  1  5  2 -1</clus>
</clustering>
</event>
<event>
 9    1  0.1487426E-004  0.2080760E+03  0.7546771E-02  0.1143789E+00
         21   -1    0    0  501  502  0.00000000000E+00  0.00000000000E+00  0.65776703811E+03  0.65776703811E+03  0.00000000000E+00 0. -1.
         -2   -1    0    0    0  501 -0.00000000000E+00 -0.00000000000E+00 -0.14574375783E+03  0.14574375783E+03  0.00000000000E+00 0.  1.
         23    2    1    2    0    0 -0.25163103935E+02  0.16579528824E+03  0.24464630448E+03  0.30973128169E+03  0.89221035407E+02 0.  0.
        -24    2    1    2    0    0 -0.11366697631E+03 -0.20213409130E+03  0.24787009843E+03  0.34895265882E+03  0.80932070500E+02 0.  0.
         13    1    4    4    0    0 -0.12433576084E+03 -0.18548223287E+03  0.23958216466E+03  0.32750977658E+03  0.00000000000E+00 0. -1.
        -14    1    4    4    0    0  0.10668784533E+02 -0.16651858431E+02  0.82879337702E+01  0.21442882241E+02  0.00000000000E+00 0.  1.
        -11    1    3    3    0    0  0.35732162661E+01  0.15462050720E+03  0.22548516643E+03  0.27342975223E+03  0.00000000000E+00 0. -1.
         11    1    3    3    0    0 -0.28736320201E+02  0.11174781031E+02  0.19161138047E+02  0.36301529459E+02  0.00000000000E+00 0.  1.
         -1    1    1    2    0  502  0.13883008024E+03  0.36338803062E+02  0.19506877377E+02  0.14482685543E+03  0.00000000000E+00 0.  1.
<scales pt_clust_5="13000.00000" pt_clust_6="13000.00000" pt_clust_7="13000.00000" pt_clust_8="13000.00000" pt_clust_9="143.50721"></scales>
<clustering>
<clus scale="   80.932">  5  6 -1 -1</clus>
<clus scale="   89.221">  7  8 -1 -1</clus>
<clus scale="  143.507">  1  9  2 -1</clus>
<clus scale="  204.659">  1  5  2 -1</clus>
<clus scale="  143.507">  1  5  2 -1</clus>
</clustering>
</event>
<event>
 9    1  0.1487426E-004  0.1179518E+03  0.7546771E-02  0.1248293E+00
         21   -1    0    0  501  502  0.00000000000E+00  0.00000000000E+00  0.97010363508E+02  0.97010363508E+02  0.00000000000E+00 0. -1.
          1   -1    0    0  502    0 -0.00000000000E+00 -0.00000000000E+00 -0.29503621617E+03  0.29503621617E+03  0.00000000000E+00 0. -1.
         23    2    1    2    0    0  0.24489408729E+02 -0.10397243409E+03 -0.14747728538E+03  0.19687419221E+03  0.74832477357E+02 0.  0.
        -24    2    1    2    0    0  0.39539616374E+02  0.59237486102E+02 -0.45034679898E+02  0.11686954856E+03  0.80980911109E+02 0.  0.
         11    1    4    4    0    0  0.56230621212E+02  0.63014341657E+02 -0.51102696657E+02  0.98712591000E+02  0.00000000000E+00 0. -1.
        -12    1    4    4    0    0 -0.16691004839E+02 -0.37768555550E+01  0.60680167584E+01  0.18156957559E+02  0.00000000000E+00 0.  1.
        -11    1    3    3    0    0  0.32520825535E+02 -0.16796894808E+02 -0.18553073392E+02  0.41036036614E+02  0.00000000000E+00 0.  1.
         11    1    3    3    0    0 -0.80314168062E+01 -0.87175539282E+02 -0.12892421198E+03  0.15583815560E+03  0.00000000000E+00 0. -1.
          2    1    1    2  501    0 -0.64029025103E+02  0.44734947988E+02 -0.55138873905E+01  0.78302838909E+02  0.00000000000E+00 0. -1.
<scales pt_clust_5="13000.00000" pt_clust_6="13000.00000" pt_clust_7="13000.00000" pt_clust_8="13000.00000" pt_clust_9="78.10846"></scales>
<clustering>
<clus scale="   74.832">  7  8 -1 -1</clus>
<clus scale="   78.108">  1  9  2 -1</clus>
<clus scale="   80.981">  5  6 -1 -1</clus>
<clus scale="  113.818">  2  7  1 -1</clus>
<clus scale="   78.108">  1  5  2 -1</clus>
</clustering>
</event>
<event>
 9    1  0.1487426E-004  0.1000016E+03  0.7546771E-02  0.1285006E+00
          3   -1    0    0  502    0 -0.00000000000E+00  0.00000000000E+00  0.15393720750E+03  0.15393720750E+03  0.00000000000E+00 0. -1.
         21   -1    0    0  501  502  0.00000000000E+00 -0.00000000000E+00 -0.32453433136E+03  0.32453433136E+03  0.00000000000E+00 0. -1.
        -24    2    1    2    0    0 -0.49761501630E+02  0.16184653255E+02  0.86695090427E+02  0.12958647062E+03  0.80860773050E+02 0.  0.
         23    2    1    2    0    0  0.18123612029E+02 -0.12175919885E+02 -0.34789192881E+01  0.93076126407E+02  0.90412079334E+02 0.  0.
         13    1    3    3    0    0 -0.48512440205E+02  0.48774061751E+01  0.10049731209E+03  0.11170029401E+03  0.00000000000E+00 0. -1.
        -14    1    3    3    0    0 -0.12490614250E+01  0.11307247080E+02 -0.13802221659E+02  0.17886176609E+02  0.00000000000E+00 0.  1.
        -13    1    4    4    0    0 -0.65620828517E+01 -0.32616849996E+02 -0.34882738016E+02  0.48205033415E+02  0.00000000000E+00 0.  1.
         13    1    4    4    0    0  0.24685694881E+02  0.20440930111E+02  0.31403818728E+02  0.44871092992E+02  0.00000000000E+00 0. -1.
          4    1    1    2  501    0  0.31637889601E+02 -0.40087333696E+01 -0.25381329500E+03  0.25580894183E+03  0.00000000000E+00 0. -1.
<scales pt_clust_5="13000.00000" pt_clust_6="13000.00000" pt_clust_7="13000.00000" pt_clust_8="13000.00000" pt_clust_9="31.89085"></scales>
<clustering>
<clus scale="   31.891">  2  9  1 -1</clus>
<clus scale="   80.861">  5  6 -1 -1</clus>
<clus scale="   90.412">  7  8 -1 -1</clus>
<clus scale="   91.457">  1  5  2 -1</clus>
<clus scale="   31.891">  2  5  1 -1</clus>
</clustering>
</event>
<event>
 9    1  0.1487426E-004  0.1697448E+03  0.7546771E-02  0.1200480E+00
          3   -1    0    0  502    0 -0.00000000000E+00  0.00000000000E+00  0.50203478612E+02  0.50203478612E+02  0.00000000000E+00 0. -1.
         21   -1    0    0  501  502  0.00000000000E+00 -0.00000000000E+00 -0.15497489466E+04  0.15497489466E+04  0.00000000000E+00 0. -1.
         23    2    1    2    0    0 -0.49777185182E+02  0.25879985999E+02 -0.14195826778E+03  0.17567892108E+03  0.86967762302E+02 0.  0.
        -24    2    1    2    0    0  0.48286836679E+02 -0.17079697250E+03 -0.30783906271E+03  0.36456868378E+03  0.81499768380E+02 0.  0.
         11    1    4    4    0    0 -0.72661380886E+01 -0.10582004738E+03 -0.13446908901E+03  0.17126767088E+03  0.00000000000E+00 0. -1.
        -12    1    4    4    0    0  0.55552974767E+02 -0.64976925120E+02 -0.17336997370E+03  0.19330101289E+03  0.00000000000E+00 0.  1.
        -13    1    3    3    0    0 -0.74058114211E+02  0.24046734324E+02 -0.11901220985E+03  0.14222079948E+03  0.00000000000E+00 0. -1.
         13    1    3    3    0    0  0.24280929028E+02  0.18332516749E+01 -0.22946057935E+02  0.33458121599E+02  0.00000000000E+00 0.  1.
          4    1    1    2  501    0  0.14903485035E+01  0.14491698650E+03 -0.10497481375E+04  0.10597048203E+04  0.00000000000E+00 0. -1.
<scales pt_clust_5="13000.00000" pt_clust_6="13000.00000" pt_clust_7="13000.00000" pt_clust_8="13000.00000" pt_clust_9="148.89963"></scales>
<clustering>
<clus scale="   81.500">  5  6 -1 -1</clus>
<clus scale="   86.968">  7  8 -1 -1</clus>
<clus scale="  103.494">  1  7  2 -1</clus>
<clus scale="  148.900">  2  9  1 -1</clus>
<clus scale="  148.900">  2  5  1 -1</clus>
</clustering>
</event>
<event>
 9    1  0.1487426E-004  0.1149273E+03  0.7546771E-02  0.1254793E+00
          1   -1    0    0  502    0 -0.00000000000E+00  0.00000000000E+00  0.11822014182E+04  0.11822014182E+04  0.00000000000E+00 0. -1.
         21   -1    0    0  501  502  0.00000000000E+00 -0.00000000000E+00 -0.19500169745E+02  0.19500169745E+02  0.00000000000E+00 0. -1.
        -24    2    1    2    0    0  0.55609116317E+02 -0.67985038958E+02  0.50629210767E+03  0.52020640721E+03  0.81047322451E+02 0.  0.
         23    2    1    2    0    0 -0.65115414104E+02  0.16604062082E+01  0.32719138661E+03  0.34552843198E+03  0.89960656560E+02 0.  0.
         13    1    3    3    0    0  0.39200312166E+02 -0.76691450893E+02  0.48195396889E+03  0.48958949258E+03  0.00000000000E+00 0. -1.
        -14    1    3    3    0    0  0.16408804151E+02  0.87064119348E+01  0.24338138778E+02  0.30616914633E+02  0.00000000000E+00 0.  1.
        -13    1    4    4    0    0 -0.35323602113E+02 -0.43590050064E+02  0.14593619792E+03  0.15634968242E+03  0.00000000000E+00 0. -1.
         13    1    4    4    0    0 -0.29791811991E+02  0.45250456272E+02  0.18125518870E+03  0.18917874956E+03  0.00000000000E+00 0.  1.
          2    1    1    2  501    0  0.95062977867E+01  0.66324632750E+02  0.32921775416E+03  0.33596674875E+03  0.00000000000E+00 0. -1.
<scales pt_clust_5="13000.00000" pt_clust_6="13000.00000" pt_clust_7="13000.00000" pt_clust_8="13000.00000" pt_clust_9="67.00247"></scales>
<clustering>
<clus scale="   67.002">  2  9  1 -1</clus>
<clus scale="   81.047">  5  6 -1 -1</clus>
<clus scale="   89.961">  7  8 -1 -1</clus>
<clus scale="  108.093">  1  5  2 -1</clus>
<clus scale="   67.002">  2  5  1 -1</clus>
</clustering>
</event>
<event>
 9    1  0.1487426E-004  0.1264907E+03  0.7546771E-02  0.1235066E+00
         21   -1    0    0  501  502  0.00000000000E+00  0.00000000000E+00  0.75638214020E+02  0.75638214020E+02  0.00000000000E+00 0. -1.
          1   -1    0    0  502    0 -0.00000000000E+00 -0.00000000000E+00 -0.67945670582E+03  0.67945670582E+03  0.00000000000E+00 0. -1.
         23    2    1    2    0    0  0.81090625562E+02 -0.32985487940E+02 -0.53556797684E+03  0.54989906726E+03  0.88838023325E+02 0.  0.
        -24    2    1    2    0    0 -0.10395549178E+03  0.44434705029E+02 -0.70214292113E+01  0.13884159408E+03  0.80290102105E+02 0.  0.
         11    1    4    4    0    0 -0.72107175861E+02  0.62302891517E+02  0.14593675298E+02  0.96405759479E+02  0.00000000000E+00 0. -1.
        -12    1    4    4    0    0 -0.31848315923E+02 -0.17868186488E+02 -0.21615104509E+02  0.42435834603E+02  0.00000000000E+00 0.  1.
        -11    1    3    3    0    0  0.22970691848E+02 -0.53604924464E+02 -0.33587700727E+03  0.34090248550E+03  0.00000000000E+00 0.  1.
         11    1    3    3    0    0  0.58119933715E+02  0.20619436524E+02 -0.19969096957E+03  0.20899658175E+03  0.00000000000E+00 0. -1.
          2    1    1    2  501    0  0.22864866222E+02 -0.11449217089E+02 -0.61229085754E+02  0.66354258504E+02  0.00000000000E+00 0. -1.
<scales pt_clust_5="13000.00000" pt_clust_6="13000.00000" pt_clust_7="13000.00000" pt_clust_8="13000.00000" pt_clust_9="25.57122"></scales>
<clustering>
<clus scale="   25.571">  1  9  2 -1</clus>
<clus scale="   80.290">  5  6 -1 -1</clus>
<clus scale="   88.838">  7  8 -1 -1</clus>
<clus scale="  120.641">  1  5  2 -1</clus>
<clus scale="   25.571">  1  5  2 -1</clus>
</clustering>
</event>
<event>
 9    1  0.1487426E-004  0.1016570E+03  0.7546771E-02  0.1278148E+00
          1   -1    0    0  502    0 -0.00000000000E+00  0.00000000000E+00  0.82936868924E+03  0.82936868924E+03  0.00000000000E+00 0. -1.
         21   -1    0    0  501  502  0.00000000000E+00 -0.00000000000E+00 -0.31658409542E+02  0.31658409542E+02  0.00000000000E+00 0. -1.
         23    2    1    2    0    0  0.52631674486E+02  0.49716404435E+01  0.27320860001E+03  0.29279477042E+03  0.91055082752E+02 0.  0.
        -24    2    1    2    0    0  0.10671813608E+02 -0.81304761523E+02  0.23231874284E+03  0.25967934173E+03  0.82079293330E+02 0.  0.
         11    1    4    4    0    0 -0.21490993877E+02 -0.75143704352E+02  0.12451671048E+03  0.14701309571E+03  0.00000000000E+00 0. -1.
        -12    1    4    4    0    0  0.32162807485E+02 -0.61610571707E+01  0.10780203236E+03  0.11266624602E+03  0.00000000000E+00 0.  1.
        -11    1    3    3    0    0  0.39377050299E+02  0.46921916479E+02  0.15503429349E+03  0.16669688208E+03  0.00000000000E+00 0. -1.
         11    1    3    3    0    0  0.13254624187E+02 -0.41950276035E+02  0.11817430652E+03  0.12609788834E+03  0.00000000000E+00 0.  1.
          2    1    1    2  501    0 -0.63303488094E+02  0.76333121079E+02  0.29218293685E+03  0.30855298664E+03  0.00000000000E+00 0. -1.
<scales pt_clust_5="13000.00000" pt_clust_6="13000.00000" pt_clust_7="13000.00000" pt_clust_8="13000.00000" pt_clust_9="99.16696"></scales>
<clustering>
<clus scale="   82.079">  5  6 -1 -1</clus>
<clus scale="   91.055">  7  8 -1 -1</clus>
<clus scale="   99.167">  2  9  1 -1</clus>
<clus scale="   99.167">  2  5  1 -1</clus>
<clus scale="   99.167">  2  5  1 -1</clus>
</clustering>
</event>
<event>
 9    1  0.1791505E-004  0.1053422E+03  0.7546771E-02  0.1275130E+00
          3   -1    0    0  502    0 -0.00000000000E+00  0.00000000000E+00  0.27586043895E+03  0.27586043895E+03  0.00000000000E+00 0. -1.
         21   -1    0    0  501  502  0.00000000000E+00 -0.00000000000E+00 -0.25147534740E+03  0.25147534740E+03  0.00000000000E+00 0. -1.
        -24    2    1    2    0    0  0.36086086135E+02 -0.38593581220E+02  0.23697891961E+03  0.25558799726E+03  0.79840753231E+02 0.  0.
         23    2    1    2    0    0  0.27799294260E+02  0.41337516325E+02 -0.12484605409E+03  0.16317273282E+03  0.92505202547E+02 0.  0.
         11    1    3    3    0    0  0.55818342432E+02 -0.18041752591E+02  0.20268387780E+03  0.21100224290E+03  0.00000000000E+00 0. -1.
        -12    1    3    3    0    0 -0.19732256297E+02 -0.20551828629E+02  0.34295041810E+02  0.44585754354E+02  0.00000000000E+00 0.  1.
        -13    1    4    4    0    0  0.44347602317E+02 -0.11814639588E+02 -0.77609452119E+02  0.90163865257E+02  0.00000000000E+00 0. -1.
         13    1    4    4    0    0 -0.16548308058E+02  0.53152155912E+02 -0.47236601972E+02  0.73008867568E+02  0.00000000000E+00 0.  1.
          4    1    1    2  501    0 -0.63885380395E+02 -0.27439351045E+01 -0.87747773970E+02  0.10857505627E+03  0.00000000000E+00 0. -1.
<scales pt_clust_5="13000.00000" pt_clust_6="13000.00000" pt_clust_7="13000.00000" pt_clust_8="13000.00000" pt_clust_9="63.94428"></scales>
<clustering>
<clus scale="   63.944">  2  9  1 -1</clus>
<clus scale="   79.841">  5  6 -1 -1</clus>
<clus scale="   92.505">  7  8 -1 -1</clus>
<clus scale="   94.416">  1  5  2 -1</clus>
<clus scale="   63.944">  2  5  1 -1</clus>
</clustering>
</event>
<event>
 9    1  0.1487426E-004  0.1210527E+03  0.7546771E-02  0.1255942E+00
          1   -1    0    0  502    0 -0.00000000000E+00  0.00000000000E+00  0.36761853035E+03  0.36761853035E+03  0.00000000000E+00 0. -1.
         21   -1    0    0  501  502  0.00000000000E+00 -0.00000000000E+00 -0.13646979091E+03  0.13646979091E+03  0.00000000000E+00 0.  1.
         23    2    1    2    0    0 -0.18276488516E+02  0.80731222245E+01  0.27269597570E+03  0.28729570555E+03  0.88184590078E+02 0.  0.
        -24    2    1    2    0    0 -0.45865990109E+02 -0.75754493702E+02 -0.25051558572E+02  0.12209766869E+03  0.80236075097E+02 0.  0.
         11    1    4    4    0    0 -0.21635888788E+02 -0.47141504436E+02  0.26584147171E+02  0.58285075319E+02  0.00000000000E+00 0. -1.
        -12    1    4    4    0    0 -0.24230101321E+02 -0.28612989266E+02 -0.51635705742E+02  0.63812593368E+02  0.00000000000E+00 0.  1.
        -13    1    3    3    0    0 -0.50765422535E+02  0.20885676939E+02  0.18239724761E+03  0.19047859607E+03  0.00000000000E+00 0. -1.
         13    1    3    3    0    0  0.32488934019E+02 -0.12812554715E+02  0.90298728093E+02  0.96817109475E+02  0.00000000000E+00 0.  1.
          2    1    1    2  501    0  0.64142478625E+02  0.67681371478E+02 -0.16495677685E+02  0.94694947022E+02  0.00000000000E+00 0. -1.
<scales pt_clust_5="13000.00000" pt_clust_6="13000.00000" pt_clust_7="13000.00000" pt_clust_8="13000.00000" pt_clust_9="90.64180"></scales>
<clustering>
<clus scale="   80.236">  5  6 -1 -1</clus>
<clus scale="   88.185">  7  8 -1 -1</clus>
<clus scale="   90.420">  1  7  2 -1</clus>
<clus scale="   90.642">  2  9  1 -1</clus>
<clus scale="   90.642">  2  5  1 -1</clus>
</clustering>
</event>
<event>
 9    1  0.1487426E-004  0.1670728E+03  0.7546771E-02  0.1208185E+00
         21   -1    0    0  501  502  0.00000000000E+00  0.00000000000E+00  0.11931995643E+03  0.11931995643E+03  0.00000000000E+00 0.  1.
          1   -1    0    0  502    0 -0.00000000000E+00 -0.00000000000E+00 -0.48740578330E+03  0.48740578330E+03  0.00000000000E+00 0. -1.
        -24    2    1    2    0    0  0.46345274854E+02 -0.64795560390E+01 -0.21148758732E+03  0.23060208339E+03  0.79123018944E+02 0.  0.
         23    2    1    2    0    0 -0.93787779302E+02 -0.11472742734E+03 -0.10717181556E+01  0.17331728832E+03  0.89884390853E+02 0.  0.
         11    1    3    3    0    0 -0.17603183604E+02 -0.16622602443E+02 -0.34540934008E+02  0.42181264883E+02  0.00000000000E+00 0. -1.
        -12    1    3    3    0    0  0.63948458458E+02  0.10143046404E+02 -0.17694665331E+03  0.18842081851E+03  0.00000000000E+00 0.  1.
        -11    1    4    4    0    0 -0.54038728135E+02 -0.11507111518E+03 -0.21000388216E+02  0.12885092934E+03  0.00000000000E+00 0. -1.
         11    1    4    4    0    0 -0.39749051166E+02  0.34368783929E+00  0.19928670061E+02  0.44466358973E+02  0.00000000000E+00 0.  1.
          2    1    1    2  501    0  0.47442504448E+02  0.12120698338E+03 -0.15552652140E+03  0.20280636801E+03  0.00000000000E+00 0. -1.
<scales pt_clust_5="13000.00000" pt_clust_6="13000.00000" pt_clust_7="13000.00000" pt_clust_8="13000.00000" pt_clust_9="140.83375"></scales>
<clustering>
<clus scale="   79.123">  5  6 -1 -1</clus>
<clus scale="   89.884">  7  8 -1 -1</clus>
<clus scale="   91.926">  2  5  1 -1</clus>
<clus scale="  140.834">  1  9  2 -1</clus>
<clus scale="  140.834">  1  5  2 -1</clus>
</clustering>
</event>
<event>
 9    1  0.1487426E-004  0.1624276E+03  0.7546771E-02  0.1187490E+00
         21   -1    0    0  501  502  0.00000000000E+00  0.00000000000E+00  0.13382987717E+03  0.13382987717E+03  0.00000000000E+00 0. -1.
          1   -1    0    0  502    0 -0.00000000000E+00 -0.00000000000E+00 -0.40033051219E+03  0.40033051219E+03  0.00000000000E+00 0. -1.
         23    2    1    2    0    0  0.12761557003E+03  0.26919642586E+02 -0.26072150965E+03  0.30520737693E+03  0.90362804664E+02 0.  0.
        -24    2    1    2    0    0 -0.15797653969E+03  0.13598953735E+02  0.17334059451E+01  0.17776724045E+03  0.80353397228E+02 0.  0.
         11    1    4    4    0    0 -0.13589228546E+02  0.28379900802E+02  0.80805175685E+01  0.32486622881E+02  0.00000000000E+00 0. -1.
        -12    1    4    4    0    0 -0.14438731114E+03 -0.14780947067E+02 -0.63471116233E+01  0.14528061757E+03  0.00000000000E+00 0.  1.
        -13    1    3    3    0    0  0.38961700964E+02  0.53180796626E+02 -0.11755611668E+03  0.13478001277E+03  0.00000000000E+00 0. -1.
         13    1    3    3    0    0  0.88653869067E+02 -0.26261154040E+02 -0.14316539297E+03  0.17042736417E+03  0.00000000000E+00 0.  1.
          2    1    1    2  501    0  0.30360969660E+02 -0.40518596321E+02 -0.75125313076E+01  0.51185771980E+02  0.00000000000E+00 0. -1.
<scales pt_clust_5="13000.00000" pt_clust_6="13000.00000" pt_clust_7="13000.00000" pt_clust_8="13000.00000" pt_clust_9="50.63146"></scales>
<clustering>
<clus scale="   50.631">  1  9  2 -1</clus>
<clus scale="   80.353">  5  6 -1 -1</clus>
<clus scale="   90.363">  7  8 -1 -1</clus>
<clus scale="  157.079">  1  5  2 -1</clus>
<clus scale="   50.631">  1  5  2 -1</clus>
</clustering>
</event>
<event>
 9    1  0.1487426E-004  0.1118289E+03  0.7546771E-02  0.1262637E+00
          1   -1    0    0  502    0 -0.00000000000E+00  0.00000000000E+00  0.95559251301E+03  0.95559251301E+03  0.00000000000E+00 0. -1.
         21   -1    0    0  501  502  0.00000000000E+00 -0.00000000000E+00 -0.30475432657E+02  0.30475432657E+02  0.00000000000E+00 0.  1.
         23    2    1    2    0    0  0.51446676592E+02  0.34832286671E+02  0.31080948658E+03  0.33025641701E+03  0.92772384370E+02 0.  0.
        -24    2    1    2    0    0 -0.80298552453E+02  0.38644896191E+02  0.18956085773E+03  0.22379171786E+03  0.78791678950E+02 0.  0.
         13    1    4    4    0    0 -0.10864307980E+02 -0.21375234491E+02  0.21044901489E+02  0.31903318262E+02  0.00000000000E+00 0. -1.
        -14    1    4    4    0    0 -0.69434244472E+02  0.60020130681E+02  0.16851595624E+03  0.19188839960E+03  0.00000000000E+00 0.  1.
        -13    1    3    3    0    0  0.76929659752E+02  0.37339645052E+02  0.22474799015E+03  0.24046638168E+03  0.00000000000E+00 0. -1.
         13    1    3    3    0    0 -0.25482983161E+02 -0.25073583806E+01  0.86061496434E+02  0.89790035334E+02  0.00000000000E+00 0.  1.
          2    1    1    2  501    0  0.28851875861E+02 -0.73477182861E+02  0.42474673604E+03  0.43201981079E+03  0.00000000000E+00 0. -1.
<scales pt_clust_5="13000.00000" pt_clust_6="13000.00000" pt_clust_7="13000.00000" pt_clust_8="13000.00000" pt_clust_9="78.93880"></scales>
<clustering>
<clus scale="   78.792">  5  6 -1 -1</clus>
<clus scale="   78.939">  2  9  1 -1</clus>
<clus scale="   92.772">  7  8 -1 -1</clus>
<clus scale="  100.534">  2  5  1 -1</clus>
<clus scale="   78.939">  2  5  1 -1</clus>
</clustering>
</event>
<event>
 9    1  0.1487426E-004  0.9489700E+02  0.7546771E-02  0.1296968E+00
          3   -1    0    0  502    0 -0.00000000000E+00  0.00000000000E+00  0.12050436643E+03  0.12050436643E+03  0.00000000000E+00 0. -1.
         21   -1    0    0  501  502  0.00000000000E+00 -0.00000000000E+00 -0.17599926753E+03  0.17599926753E+03  0.00000000000E+00 0. -1.
        -24    2    1    2    0    0  0.15049469036E+02 -0.19662717852E+02  0.80703954203E+02  0.11818526981E+03  0.82713486116E+02 0.  0.
         23    2    1    2    0    0 -0.25896269850E+01  0.39298948715E+01 -0.95369217562E+02  0.13282299404E+03  0.92328272188E+02 0.  0.
         13    1    3    3    0    0  0.43659100883E+02 -0.21315345235E+02  0.22992738872E+02  0.53750600678E+02  0.00000000000E+00 0. -1.
        -14    1    3    3    0    0 -0.28609631847E+02  0.16526273830E+01  0.57711215331E+02  0.64434669136E+02  0.00000000000E+00 0.  1.
        -13    1    4    4    0    0 -0.36340834696E+02  0.20661157663E+02 -0.15624036191E+02  0.44627908413E+02  0.00000000000E+00 0.  1.
         13    1    4    4    0    0  0.33751207711E+02 -0.16731262791E+02 -0.79745181371E+02  0.88195085625E+02  0.00000000000E+00 0. -1.
          4    1    1    2  501    0 -0.12459842051E+02  0.15732822980E+02 -0.40829637744E+02  0.45495370107E+02  0.00000000000E+00 0. -1.
<scales pt_clust_5="13000.00000" pt_clust_6="13000.00000" pt_clust_7="13000.00000" pt_clust_8="13000.00000" pt_clust_9="20.06912"></scales>
<clustering>
<clus scale="   20.069">  2  9  1 -1</clus>
<clus scale="   82.713">  5  6 -1 -1</clus>
<clus scale="   85.571">  1  5  2 -1</clus>
<clus scale="   92.328">  7  8 -1 -1</clus>
<clus scale="   20.069">  2  5  1 -1</clus>
</clustering>
</event>
<event>
 9    1  0.1487426E-004  0.9090478E+02  0.7546771E-02  0.1305638E+00
         -4   -1    0    0    0  501 -0.00000000000E+00  0.00000000000E+00  0.22182021560E+03  0.22182021560E+03  0.00000000000E+00 0.  1.
         21   -1    0    0  501  502  0.00000000000E+00 -0.00000000000E+00 -0.18226542059E+03  0.18226542059E+03  0.00000000000E+00 0.  1.
         23    2    1    2    0    0 -0.22959795206E+02 -0.17692136761E+01  0.16470118743E+03  0.18865893486E+03  0.89081031919E+02 0.  0.
        -24    2    1    2    0    0 -0.13904127059E+01  0.17462894172E+02  0.41054203022E+01  0.82968197174E+02  0.80993711769E+02 0.  0.
         11    1    4    4    0    0  0.17031896242E+02  0.35784316242E+02 -0.22671885312E+02  0.45657607932E+02  0.00000000000E+00 0. -1.
        -12    1    4    4    0    0 -0.18422308948E+02 -0.18321422069E+02  0.26777305614E+02  0.37310589242E+02  0.00000000000E+00 0.  1.
        -13    1    3    3    0    0 -0.56589113032E+02  0.75267007585E+01  0.10460084364E+03  0.11916507638E+03  0.00000000000E+00 0.  1.
         13    1    3    3    0    0  0.33629317826E+02 -0.92959144345E+01  0.60100343789E+02  0.69493858478E+02  0.00000000000E+00 0. -1.
         -3    1    1    2    0  502  0.24350207912E+02 -0.15693680496E+02 -0.12925181272E+03  0.13245850416E+03  0.00000000000E+00 0.  1.
<scales pt_clust_5="13000.00000" pt_clust_6="13000.00000" pt_clust_7="13000.00000" pt_clust_8="13000.00000" pt_clust_9="28.96937"></scales>
<clustering>
<clus scale="   28.969">  2  9  1 -1</clus>
<clus scale="   80.994">  5  6 -1 -1</clus>
<clus scale="   82.995">  2  5  1 -1</clus>
<clus scale="   89.081">  7  8 -1 -1</clus>
<clus scale="   28.969">  2  5  1 -1</clus>
</clustering>
</event>
<event>
 9    1  0.1487426E-004  0.9474966E+02  0.7546771E-02  0.1298018E+00
         -4   -1    0    0    0  501 -0.00000000000E+00  0.00000000000E+00  0.23454584094E+03  0.23454584094E+03  0.00000000000E+00 0.  1.
         21   -1    0    0  501  502  0.00000000000E+00 -0.00000000000E+00 -0.76610249711E+02  0.76610249711E+02  0.00000000000E+00 0. -1.
        -24    2    1    2    0    0  0.40872626177E+01 -0.27529931876E+02  0.15192044464E+03  0.17431713719E+03  0.80821036573E+02 0.  0.
         23    2    1    2    0    0 -0.30399372808E+02  0.18005321561E+01  0.17779585385E+02  0.98203074114E+02  0.91653512349E+02 0.  0.
         13    1    3    3    0    0 -0.23071889125E+02  0.17054151545E+02  0.83255100045E+02  0.88060024053E+02  0.00000000000E+00 0. -1.
        -14    1    3    3    0    0  0.27159151743E+02 -0.44584083421E+02  0.68665344600E+02  0.86257113138E+02  0.00000000000E+00 0.  1.
        -13    1    4    4    0    0  0.55473781391E+01  0.41737323500E+02  0.13866147245E+02  0.44328857605E+02  0.00000000000E+00 0.  1.
         13    1    4    4    0    0 -0.35946750947E+02 -0.39936791343E+02  0.39134381401E+01  0.53874216509E+02  0.00000000000E+00 0. -1.
         -3    1    1    2    0  502  0.26312110190E+02  0.25729399720E+02 -0.11764438800E+02  0.38635879346E+02  0.00000000000E+00 0.  1.
<scales pt_clust_5="13000.00000" pt_clust_6="13000.00000" pt_clust_7="13000.00000" pt_clust_8="13000.00000" pt_clust_9="36.80121"></scales>
<clustering>
<clus scale="   36.801">  2  9  1 -1</clus>
<clus scale="   80.821">  5  6 -1 -1</clus>
<clus scale="   84.316">  1  5  2 -1</clus>
<clus scale="   91.654">  7  8 -1 -1</clus>
<clus scale="   36.801">  2  5  1 -1</clus>
</clustering>
</event>
<event>
 9    1  0.1487426E-004  0.9641597E+02  0.7546771E-02  0.1292189E+00
         21   -1    0    0  501  502  0.00000000000E+00  0.00000000000E+00  0.33265832560E+03  0.33265832560E+03  0.00000000000E+00 0. -1.
          1   -1    0    0  502    0 -0.00000000000E+00 -0.00000000000E+00 -0.72680956385E+02  0.72680956385E+02  0.00000000000E+00 0. -1.
         23    2    1    2    0    0 -0.26502462640E+02  0.22360931019E+02 -0.24962624190E+02  0.10017900706E+03  0.90610755917E+02 0.  0.
        -24    2    1    2    0    0  0.51306591244E+01 -0.27044073463E+02  0.23111350993E+03  0.24705712413E+03  0.82861707308E+02 0.  0.
         11    1    4    4    0    0  0.99503392724E+01 -0.53754185418E+02  0.19065735539E+03  0.19833998302E+03  0.00000000000E+00 0. -1.
        -12    1    4    4    0    0 -0.48196801480E+01  0.26710111955E+02  0.40456154548E+02  0.48717141112E+02  0.00000000000E+00 0.  1.
        -13    1    3    3    0    0 -0.36521351524E+02  0.52740388300E+02 -0.22928773150E+02  0.68125518811E+02  0.00000000000E+00 0. -1.
         13    1    3    3    0    0  0.10018888883E+02 -0.30379457281E+02 -0.20338510405E+01  0.32053488253E+02  0.00000000000E+00 0.  1.
          2    1    1    2  501    0  0.21371803516E+02  0.46831424445E+01  0.53826483474E+02  0.58103150791E+02  0.00000000000E+00 0. -1.
<scales pt_clust_5="13000.00000" pt_clust_6="13000.00000" pt_clust_7="13000.00000" pt_clust_8="13000.00000" pt_clust_9="21.87889"></scales>
<clustering>
<clus scale="   21.879">  1  9  2 -1</clus>
<clus scale="   82.862">  5  6 -1 -1</clus>
<clus scale="   89.173">  1  5  2 -1</clus>
<clus scale="   90.611">  7  8 -1 -1</clus>
<clus scale="   21.879">  1  5  2 -1</clus>
</clustering>
</event>
<event>
 9    1  0.1487426E-004  0.1987412E+03  0.7546771E-02  0.1168265E+00
         -2   -1    0    0    0  501 -0.00000000000E+00  0.00000000000E+00  0.13400137243E+04  0.13400137243E+04  0.00000000000E+00 0.  1.
         21   -1    0    0  501  502  0.00000000000E+00 -0.00000000000E+00 -0.32367682585E+03  0.32367682585E+03  0.00000000000E+00 0.  1.
        -24    2    1    2    0    0 -0.53001189895E+02  0.69659555770E+02 -0.63984825176E+02  0.14697730553E+03  0.99230492534E+02 0.  0.
         23    2    1    2    0    0  0.15667320063E+03 -0.20778309075E+03  0.12466286543E+04  0.12769550500E+04  0.93866358318E+02 0.  0.
         11    1    3    3    0    0 -0.46634787010E+02  0.56941880678E+02  0.76004673344E+01  0.73992893161E+02  0.00000000000E+00 0. -1.
        -12    1    3    3    0    0 -0.63664028851E+01  0.12717675092E+02 -0.71585292511E+02  0.72984412372E+02  0.00000000000E+00 0.  1.
        -13    1    4    4    0    0  0.14188729712E+03 -0.18919271986E+03  0.12126670102E+04  0.12355108935E+04  0.00000000000E+00 0.  1.
         13    1    4    4    0    0  0.14785903514E+02 -0.18590370898E+02  0.33961644139E+02  0.41444156469E+02  0.00000000000E+00 0. -1.
         -1    1    1    2    0  502 -0.10367201074E+03  0.13812353498E+03 -0.16630693068E+03  0.23975819469E+03  0.00000000000E+00 0.  1.
<scales pt_clust_5="13000.00000" pt_clust_6="13000.00000" pt_clust_7="13000.00000" pt_clust_8="13000.00000" pt_clust_9="175.17759"></scales>
<clustering>
<clus scale="   93.866">  7  8 -1 -1</clus>
<clus scale="   99.230">  5  6 -1 -1</clus>
<clus scale="  132.319">  1  5  2 -1</clus>
<clus scale="  175.178">  2  9  1 -1</clus>
<clus scale="  175.178">  2  5  1 -1</clus>
</clustering>
</event>
<event>
 9    1  0.1487426E-004  0.1554407E+03  0.7546771E-02  0.1212091E+00
          1   -1    0    0  502    0 -0.00000000000E+00  0.00000000000E+00  0.68205134701E+03  0.68205134701E+03  0.00000000000E+00 0. -1.
         21   -1    0    0  501  502  0.00000000000E+00 -0.00000000000E+00 -0.18768783716E+03  0.18768783716E+03  0.00000000000E+00 0. -1.
         23    2    1    2    0    0  0.32283021009E+02  0.60771490778E+02 -0.20155920615E+02  0.10693083002E+03  0.79325744476E+02 0.  0.
        -24    2    1    2    0    0  0.79759624533E+02  0.21270097918E+02  0.59274918284E+03  0.60342118135E+03  0.77146053494E+02 0.  0.
         11    1    4    4    0    0  0.38740064011E+02 -0.28746024979E+02  0.24362876123E+03  0.24835881263E+03  0.00000000000E+00 0. -1.
        -12    1    4    4    0    0  0.41019560522E+02  0.50016122897E+02  0.34912042162E+03  0.35506236873E+03  0.00000000000E+00 0.  1.
        -13    1    3    3    0    0  0.23915782995E+02  0.80154985335E+02 -0.19055438942E+02  0.85789836832E+02  0.00000000000E+00 0. -1.
         13    1    3    3    0    0  0.83672380140E+01 -0.19383494557E+02 -0.11004816731E+01  0.21140993191E+02  0.00000000000E+00 0.  1.
          2    1    1    2  501    0 -0.11204264554E+03 -0.82041588697E+02 -0.78229752379E+02  0.15938717280E+03  0.00000000000E+00 0. -1.
<scales pt_clust_5="13000.00000" pt_clust_6="13000.00000" pt_clust_7="13000.00000" pt_clust_8="13000.00000" pt_clust_9="134.94553"></scales>
<clustering>
<clus scale="   77.146">  5  6 -1 -1</clus>
<clus scale="   79.326">  7  8 -1 -1</clus>
<clus scale="  105.014">  1  7  2 -1</clus>
<clus scale="  134.946">  2  9  1 -1</clus>
<clus scale="  134.946">  2  5  1 -1</clus>
</clustering>
</event>
<event>
 9    1  0.1487426E-004  0.9336777E+02  0.7546771E-02  0.1298597E+00
         21   -1    0    0  501  502  0.00000000000E+00  0.00000000000E+00  0.20411926765E+03  0.20411926765E+03  0.00000000000E+00 0. -1.
         -4   -1    0    0    0  501 -0.00000000000E+00 -0.00000000000E+00 -0.15144425685E+03  0.15144425685E+03  0.00000000000E+00 0.  1.
        -24    2    1    2    0    0  0.37769211605E+02 -0.14579023052E+02 -0.10530096793E+03  0.13890875000E+03  0.81044961104E+02 0.  0.
         23    2    1    2    0    0  0.78206848801E+01 -0.58443939556E+01  0.60014440010E+02  0.10669106370E+03  0.87669436019E+02 0.  0.
         13    1    3    3    0    0 -0.18003670916E+01  0.25309375314E+02 -0.80955429867E+01  0.26633505528E+02  0.00000000000E+00 0. -1.
        -14    1    3    3    0    0  0.39569578696E+02 -0.39888398366E+02 -0.97205424942E+02  0.11227524447E+03  0.00000000000E+00 0.  1.
        -13    1    4    4    0    0 -0.27475114666E+02  0.14961961862E+02 -0.31062559404E+01  0.31438687228E+02  0.00000000000E+00 0.  1.
         13    1    4    4    0    0  0.35295799546E+02 -0.20806355818E+02  0.63120695950E+02  0.75252376476E+02  0.00000000000E+00 0. -1.
         -3    1    1    2    0  502 -0.45589896485E+02  0.20423417008E+02  0.97961538718E+02  0.10996371079E+03  0.00000000000E+00 0.  1.
<scales pt_clust_5="13000.00000" pt_clust_6="13000.00000" pt_clust_7="13000.00000" pt_clust_8="13000.00000" pt_clust_9="49.95553"></scales>
<clustering>
<clus scale="   49.956">  1  9  2 -1</clus>
<clus scale="   81.045">  5  6 -1 -1</clus>
<clus scale="   87.177">  2  5  1 -1</clus>
<clus scale="   87.669">  7  8 -1 -1</clus>
<clus scale="   49.956">  1  5  2 -1</clus>
</clustering>
</event>
<event>
 9    1  0.1487426E-004  0.1096875E+03  0.7546771E-02  0.1263135E+00
         -4   -1    0    0    0  501 -0.00000000000E+00  0.00000000000E+00  0.74705122315E+02  0.74705122315E+02  0.00000000000E+00 0.  1.
         21   -1    0    0  501  502  0.00000000000E+00 -0.00000000000E+00 -0.38645238506E+03  0.38645238506E+03  0.00000000000E+00 0.  1.
         23    2    1    2    0    0 -0.42963034503E+02 -0.39700475333E+02 -0.54628113059E+02  0.11650196338E+03  0.84655340408E+02 0.  0.
        -24    2    1    2    0    0  0.14091329401E+02  0.88334411248E+02 -0.49204185929E+02  0.12918520443E+03  0.79159531050E+02 0.  0.
         13    1    4    4    0    0  0.25510953242E+02  0.98873193684E+02 -0.49855263499E+02  0.11363214538E+03  0.00000000000E+00 0. -1.
        -14    1    4    4    0    0 -0.11419623841E+02 -0.10538782436E+02  0.65107757001E+00  0.15553059053E+02  0.00000000000E+00 0.  1.
        -11    1    3    3    0    0 -0.61821356568E+02 -0.27030553909E+02 -0.12474752870E+02  0.68615963388E+02  0.00000000000E+00 0.  1.
         11    1    3    3    0    0  0.18858322065E+02 -0.12669921424E+02 -0.42153360188E+02  0.47885999991E+02  0.00000000000E+00 0. -1.
         -3    1    1    2    0  502  0.28871705102E+02 -0.48633935915E+02 -0.20791496376E+03  0.21547033957E+03  0.00000000000E+00 0.  1.
<scales pt_clust_5="13000.00000" pt_clust_6="13000.00000" pt_clust_7="13000.00000" pt_clust_8="13000.00000" pt_clust_9="56.55825"></scales>
<clustering>
<clus scale="   56.558">  2  9  1 -1</clus>
<clus scale="   79.160">  5  6 -1 -1</clus>
<clus scale="   84.655">  7  8 -1 -1</clus>
<clus scale="  105.504">  2  5  1 -1</clus>
<clus scale="   56.558">  2  5  1 -1</clus>
</clustering>
</event>
<event>
 9    1  0.1487426E-004  0.9692540E+02  0.7546771E-02  0.1293037E+00
         21   -1    0    0  501  502  0.00000000000E+00  0.00000000000E+00  0.34901227854E+03  0.34901227854E+03  0.00000000000E+00 0. -1.
         -2   -1    0    0    0  501 -0.00000000000E+00 -0.00000000000E+00 -0.94093301641E+02  0.94093301641E+02  0.00000000000E+00 0.  1.
         23    2    1    2    0    0  0.23361719554E+02  0.24844339117E+02 -0.42085259942E+02  0.10649057100E+03  0.91684576028E+02 0.  0.
        -24    2    1    2    0    0 -0.16775492206E+02  0.70621776342E+01  0.29227171509E+03  0.30369387670E+03  0.80473124758E+02 0.  0.
         11    1    4    4    0    0 -0.45957353986E+02 -0.35841276015E+01  0.22390711433E+03  0.22860297505E+03  0.00000000000E+00 0. -1.
        -12    1    4    4    0    0  0.29181861780E+02  0.10646305236E+02  0.68364600763E+02  0.75090901643E+02  0.00000000000E+00 0.  1.
        -11    1    3    3    0    0 -0.11408416481E+02 -0.29478788837E+02 -0.47445587075E+01  0.31963444671E+02  0.00000000000E+00 0. -1.
         11    1    3    3    0    0  0.34770136035E+02  0.54323127954E+02 -0.37340701234E+02  0.74527126332E+02  0.00000000000E+00 0.  1.
         -1    1    1    2    0  502 -0.65862273482E+01 -0.31906516751E+02  0.47325217488E+01  0.32921132483E+02  0.00000000000E+00 0.  1.
<scales pt_clust_5="13000.00000" pt_clust_6="13000.00000" pt_clust_7="13000.00000" pt_clust_8="13000.00000" pt_clust_9="32.57922"></scales>
<clustering>
<clus scale="   32.579">  1  9  2 -1</clus>
<clus scale="   80.473">  5  6 -1 -1</clus>
<clus scale="   86.397">  1  5  2 -1</clus>
<clus scale="   91.685">  7  8 -1 -1</clus>
<clus scale="   32.579">  1  5  2 -1</clus>
</clustering>
</event>
<event>
 9    1  0.1487426E-004  0.1094322E+03  0.7546771E-02  0.1262265E+00
          3   -1    0    0  502    0 -0.00000000000E+00  0.00000000000E+00  0.13013041624E+03  0.13013041624E+03  0.00000000000E+00 0. -1.
         21   -1    0    0  501  502  0.00000000000E+00 -0.00000000000E+00 -0.12694927889E+03  0.12694927889E+03  0.00000000000E+00 0.  1.
         23    2    1    2    0    0  0.40049727120E+01 -0.72809566657E+02  0.33559909259E+02  0.11623559686E+03  0.84066483604E+02 0.  0.
        -24    2    1    2    0    0  0.23461016803E+02  0.59251428849E+02 -0.22844750077E+02  0.10930102984E+03  0.85811895377E+02 0.  0.
         13    1    4    4    0    0  0.53235896291E+01  0.36546078629E+02  0.30932333289E+02  0.48174326279E+02  0.00000000000E+00 0. -1.
        -14    1    4    4    0    0  0.18137427173E+02  0.22705350219E+02 -0.53777083366E+02  0.61126703562E+02  0.00000000000E+00 0.  1.
        -13    1    3    3    0    0  0.33231730646E+02 -0.45145188651E+02 -0.99879290755E+01  0.56940273158E+02  0.00000000000E+00 0.  1.
         13    1    3    3    0    0 -0.29226757934E+02 -0.27664378006E+02  0.43547838335E+02  0.59295323706E+02  0.00000000000E+00 0. -1.
          4    1    1    2  501    0 -0.27465989514E+02  0.13558137808E+02 -0.75340218378E+01  0.31543068429E+02  0.00000000000E+00 0. -1.
<scales pt_clust_5="13000.00000" pt_clust_6="13000.00000" pt_clust_7="13000.00000" pt_clust_8="13000.00000" pt_clust_9="30.63011"></scales>
<clustering>
<clus scale="   30.630">  2  9  1 -1</clus>
<clus scale="   84.066">  7  8 -1 -1</clus>
<clus scale="   85.812">  5  6 -1 -1</clus>
<clus scale="  108.069">  1  7  2 -1</clus>
<clus scale="   30.630">  2  5  1 -1</clus>
</clustering>
</event>
<event>
 9    1  0.1487426E-004  0.4278929E+03  0.7546771E-02  0.1077621E+00
          1   -1    0    0  502    0 -0.00000000000E+00  0.00000000000E+00  0.12292239894E+04  0.12292239894E+04  0.00000000000E+00 0. -1.
         21   -1    0    0  501  502  0.00000000000E+00 -0.00000000000E+00 -0.22397655185E+03  0.22397655185E+03  0.00000000000E+00 0. -1.
        -24    2    1    2    0    0 -0.14312108576E+02  0.97004861615E+02  0.33599349406E+03  0.35915037369E+03  0.80514490879E+02 0.  0.
         23    2    1    2    0    0  0.40163357879E+03  0.96455537566E+02  0.24706665847E+03  0.48932961144E+03  0.88251530075E+02 0.  0.
         13    1    3    3    0    0 -0.17108796235E+02  0.10925917873E+03  0.32137656897E+03  0.33987229679E+03  0.00000000000E+00 0. -1.
        -14    1    3    3    0    0  0.27966876585E+01 -0.12254317112E+02  0.14616925094E+02  0.19278076899E+02  0.00000000000E+00 0.  1.
        -11    1    4    4    0    0  0.16767293722E+03 -0.40942785482E+01  0.98555991069E+02  0.19453601304E+03  0.00000000000E+00 0. -1.
         11    1    4    4    0    0  0.23396064157E+03  0.10054981611E+03  0.14851066740E+03  0.29479359840E+03  0.00000000000E+00 0.  1.
          2    1    1    2  501    0 -0.38732147022E+03 -0.19346039918E+03  0.42218728498E+03  0.60472055607E+03  0.00000000000E+00 0. -1.
<scales pt_clust_5="13000.00000" pt_clust_6="13000.00000" pt_clust_7="13000.00000" pt_clust_8="13000.00000" pt_clust_9="418.69346"></scales>
<clustering>
<clus scale="   80.514">  5  6 -1 -1</clus>
<clus scale="   88.252">  7  8 -1 -1</clus>
<clus scale="  126.875">  1  5  2 -1</clus>
<clus scale="  418.693">  2  9  1 -1</clus>
<clus scale="  418.693">  2  5  1 -1</clus>
</clustering>
</event>
<event>
 9    1  0.1487426E-004  0.2492611E+03  0.7546771E-02  0.1114475E+00
         21   -1    0    0  501  502  0.00000000000E+00  0.00000000000E+00  0.32450285935E+03  0.32450285935E+03  0.00000000000E+00 0. -1.
          3   -1    0    0  502    0 -0.00000000000E+00 -0.00000000000E+00 -0.39419387103E+03  0.39419387103E+03  0.00000000000E+00 0. -1.
         23    2    1    2    0    0 -0.20623751196E+03 -0.13690899170E+03 -0.19539508177E+03  0.32886280192E+03  0.93239053810E+02 0.  0.
        -24    2    1    2    0    0  0.19203381709E+03  0.24912042260E+02  0.16849634777E+03  0.26910182560E+03  0.80790943623E+02 0.  0.
         13    1    4    4    0    0  0.82531055960E+02 -0.21160373064E+02  0.10219554419E+03  0.13305286858E+03  0.00000000000E+00 0. -1.
        -14    1    4    4    0    0  0.10950276113E+03  0.46072415324E+02  0.66300803584E+02  0.13604895702E+03  0.00000000000E+00 0.  1.
        -13    1    3    3    0    0 -0.75161544549E+02 -0.10138673198E+03 -0.11676570980E+03  0.17193823945E+03  0.00000000000E+00 0.  1.
         13    1    3    3    0    0 -0.13107596741E+03 -0.35522259726E+02 -0.78629371972E+02  0.15692456247E+03  0.00000000000E+00 0. -1.
          4    1    1    2  501    0  0.14203694863E+02  0.11199694944E+03 -0.42792277681E+02  0.12073210286E+03  0.00000000000E+00 0. -1.
<scales pt_clust_5="13000.00000" pt_clust_6="13000.00000" pt_clust_7="13000.00000" pt_clust_8="13000.00000" pt_clust_9="112.89408"></scales>
<clustering>
<clus scale="   80.791">  5  6 -1 -1</clus>
<clus scale="   93.239">  7  8 -1 -1</clus>
<clus scale="  112.894">  1  9  2 -1</clus>
<clus scale="  244.877">  1  5  2 -1</clus>
<clus scale="  112.894">  1  5  2 -1</clus>
</clustering>
</event>
<event>
 9    1  0.1487426E-004  0.9213002E+02  0.7546771E-02  0.1304264E+00
         -4   -1    0    0    0  501 -0.00000000000E+00  0.00000000000E+00  0.69224699017E+02  0.69224699017E+02  0.00000000000E+00 0.  1.
         21   -1    0    0  501  502  0.00000000000E+00 -0.00000000000E+00 -0.20677809681E+03  0.20677809681E+03  0.00000000000E+00 0.  1.
         23    2    1    2    0    0  0.15425243058E+02  0.25202201802E+02 -0.12099243626E+02  0.96246614844E+02  0.90796090629E+02 0.  0.
        -24    2    1    2    0    0 -0.93888438950E+01  0.15113152308E+02 -0.56808069724E+02  0.99918528203E+02  0.80249596448E+02 0.  0.
         11    1    4    4    0    0  0.36307239432E+01 -0.27400145469E+02  0.17671127598E+00  0.27640212643E+02  0.00000000000E+00 0. -1.
        -12    1    4    4    0    0 -0.13019567838E+02  0.42513297777E+02 -0.56984781000E+02  0.72278315560E+02  0.00000000000E+00 0.  1.
        -11    1    3    3    0    0  0.98415516246E+01  0.58720114646E+02  0.17205686118E+01  0.59563985417E+02  0.00000000000E+00 0.  1.
         11    1    3    3    0    0  0.55836914337E+01 -0.33517912844E+02 -0.13819812237E+02  0.36682629427E+02  0.00000000000E+00 0. -1.
         -3    1    1    2    0  502 -0.60363991632E+01 -0.40315354110E+02 -0.68646084445E+02  0.79837652780E+02  0.00000000000E+00 0.  1.
<scales pt_clust_5="13000.00000" pt_clust_6="13000.00000" pt_clust_7="13000.00000" pt_clust_8="13000.00000" pt_clust_9="40.76476"></scales>
<clustering>
<clus scale="   40.765">  2  9  1 -1</clus>
<clus scale="   80.250">  5  6 -1 -1</clus>
<clus scale="   81.756">  2  5  1 -1</clus>
<clus scale="   90.796">  7  8 -1 -1</clus>
<clus scale="   40.765">  2  5  1 -1</clus>
</clustering>
</event>
<event>
 9    1  0.1487426E-004  0.1065667E+03  0.7546771E-02  0.1274007E+00
         21   -1    0    0  501  502  0.00000000000E+00  0.00000000000E+00  0.20887124341E+03  0.20887124341E+03  0.00000000000E+00 0.  1.
         -4   -1    0    0    0  501 -0.00000000000E+00 -0.00000000000E+00 -0.46594082160E+03  0.46594082160E+03  0.00000000000E+00 0.  1.
         23    2    1    2    0    0 -0.39594741669E+02 -0.42717327864E+02 -0.41516488823E+03  0.42952250942E+03  0.93462227739E+02 0.  0.
        -24    2    1    2    0    0  0.24472900897E+02 -0.15310658190E+02  0.77185149810E+01  0.83397314483E+02  0.77860114673E+02 0.  0.
         11    1    4    4    0    0  0.43297138614E+02  0.15653852605E+02 -0.12855256107E+01  0.46057983994E+02  0.00000000000E+00 0. -1.
        -12    1    4    4    0    0 -0.18824237717E+02 -0.30964510795E+02  0.90040405917E+01  0.37339330489E+02  0.00000000000E+00 0.  1.
        -11    1    3    3    0    0 -0.34994565691E+02 -0.71514296887E+02 -0.33128533676E+03  0.34071819535E+03  0.00000000000E+00 0.  1.
         11    1    3    3    0    0 -0.46001759777E+01  0.28796969023E+02 -0.83879551470E+02  0.88804314077E+02  0.00000000000E+00 0. -1.
         -3    1    1    2    0  502  0.15121840772E+02  0.58027986054E+02  0.15037679506E+03  0.16189224110E+03  0.00000000000E+00 0.  1.
<scales pt_clust_5="13000.00000" pt_clust_6="13000.00000" pt_clust_7="13000.00000" pt_clust_8="13000.00000" pt_clust_9="59.96597"></scales>
<clustering>
<clus scale="   59.966">  1  9  2 -1</clus>
<clus scale="   77.860">  5  6 -1 -1</clus>
<clus scale="   93.185">  1  5  2 -1</clus>
<clus scale="   93.462">  7  8 -1 -1</clus>
<clus scale="   59.966">  1  5  2 -1</clus>
</clustering>
</event>
<event>
 9    1  0.1487426E-004  0.1034033E+03  0.7546771E-02  0.1277449E+00
         21   -1    0    0  501  502  0.00000000000E+00  0.00000000000E+00  0.40656264268E+03  0.40656264268E+03  0.00000000000E+00 0. -1.
          3   -1    0    0  502    0 -0.00000000000E+00 -0.00000000000E+00 -0.51249234350E+02  0.51249234350E+02  0.00000000000E+00 0. -1.
         23    2    1    2    0    0 -0.39641833667E+02 -0.33776250504E+02  0.56991314036E+02  0.11920145418E+03  0.90822170907E+02 0.  0.
        -24    2    1    2    0    0  0.42669161752E+02  0.10525949595E+02  0.30103620541E+03  0.31500729580E+03  0.81702793457E+02 0.  0.
         13    1    4    4    0    0  0.61101376671E+02  0.71158458700E+00  0.14177316765E+03  0.15438107283E+03  0.00000000000E+00 0. -1.
        -14    1    4    4    0    0 -0.18432214919E+02  0.98143650083E+01  0.15926303776E+03  0.16062622296E+03  0.00000000000E+00 0.  1.
        -13    1    3    3    0    0 -0.28873966465E+02 -0.20140230200E+01 -0.20027431829E+02  0.35197446695E+02  0.00000000000E+00 0. -1.
         13    1    3    3    0    0 -0.10767867202E+02 -0.31762227484E+02  0.77018745865E+02  0.84004007484E+02  0.00000000000E+00 0.  1.
          4    1    1    2  501    0 -0.30273280849E+01  0.23250300909E+02 -0.27141111123E+01  0.23603127056E+02  0.00000000000E+00 0. -1.
<scales pt_clust_5="13000.00000" pt_clust_6="13000.00000" pt_clust_7="13000.00000" pt_clust_8="13000.00000" pt_clust_9="23.44657"></scales>
<clustering>
<clus scale="   23.447">  1  9  2 -1</clus>
<clus scale="   81.703">  5  6 -1 -1</clus>
<clus scale="   90.822">  7  8 -1 -1</clus>
<clus scale="   95.493">  1  5  2 -1</clus>
<clus scale="   23.447">  1  5  2 -1</clus>
</clustering>
</event>
<event>
 9    1  0.1487426E-004  0.9692008E+02  0.7546771E-02  0.1292374E+00
         -2   -1    0    0    0  501 -0.00000000000E+00  0.00000000000E+00  0.53912994940E+03  0.53912994940E+03  0.00000000000E+00 0.  1.
         21   -1    0    0  501  502  0.00000000000E+00 -0.00000000000E+00 -0.26113322370E+02  0.26113322370E+02  0.00000000000E+00 0.  1.
         23    2    1    2    0    0 -0.29678847719E+01 -0.26064091553E+02  0.24435542352E+03  0.26205463379E+03  0.90966548118E+02 0.  0.
        -24    2    1    2    0    0  0.37420464512E+02  0.26869540723E+02  0.24305164423E+03  0.26025288918E+03  0.80840591158E+02 0.  0.
         11    1    4    4    0    0  0.69210303063E+01 -0.27807457383E+02  0.54435800840E+02  0.61517572772E+02  0.00000000000E+00 0. -1.
        -12    1    4    4    0    0  0.30499434205E+02  0.54676998106E+02  0.18861584339E+03  0.19873531641E+03  0.00000000000E+00 0.  1.
        -11    1    3    3    0    0  0.41308985326E+02 -0.21610909660E+02  0.89262459967E+02  0.10070377572E+03  0.00000000000E+00 0.  1.
         11    1    3    3    0    0 -0.44276870098E+02 -0.44531818929E+01  0.15509296356E+03  0.16135085807E+03  0.00000000000E+00 0. -1.
         -1    1    1    2    0  502 -0.34452579740E+02 -0.80544917007E+00  0.25609559276E+02  0.42935748805E+02  0.00000000000E+00 0.  1.
<scales pt_clust_5="13000.00000" pt_clust_6="13000.00000" pt_clust_7="13000.00000" pt_clust_8="13000.00000" pt_clust_9="34.46199"></scales>
<clustering>
<clus scale="   34.462">  2  9  1 -1</clus>
<clus scale="   80.841">  5  6 -1 -1</clus>
<clus scale="   87.486">  2  5  1 -1</clus>
<clus scale="   90.967">  7  8 -1 -1</clus>
<clus scale="   34.462">  2  5  1 -1</clus>
</clustering>
</event>
<event>
 9    1  0.1487426E-004  0.1741705E+03  0.7546771E-02  0.1187559E+00
         21   -1    0    0  501  502  0.00000000000E+00  0.00000000000E+00  0.54955451091E+03  0.54955451091E+03  0.00000000000E+00 0. -1.
          1   -1    0    0  502    0 -0.00000000000E+00 -0.00000000000E+00 -0.10469598522E+03  0.10469598522E+03  0.00000000000E+00 0. -1.
        -24    2    1    2    0    0 -0.95504288681E+02  0.20681365515E+02  0.64896371061E+02  0.14280281286E+03  0.81439034547E+02 0.  0.
         23    2    1    2    0    0 -0.44494314449E+02 -0.11913167367E+03  0.10688678951E+03  0.18917105195E+03  0.90491996514E+02 0.  0.
         13    1    3    3    0    0 -0.10088904496E+03  0.35858804663E+02  0.67378695418E+02  0.12650826796E+03  0.00000000000E+00 0. -1.
        -14    1    3    3    0    0  0.53847562835E+01 -0.15177439148E+02 -0.24823243576E+01  0.16294544901E+02  0.00000000000E+00 0.  1.
        -13    1    4    4    0    0 -0.23062029572E+02 -0.95460702525E+02  0.25088485951E+02  0.10136091486E+03  0.00000000000E+00 0. -1.
         13    1    4    4    0    0 -0.21432284877E+02 -0.23670971149E+02  0.81798303556E+02  0.87810137085E+02  0.00000000000E+00 0.  1.
          2    1    1    2  501    0  0.13999860313E+03  0.98450308160E+02  0.27307536512E+03  0.32227663131E+03  0.00000000000E+00 0. -1.
<scales pt_clust_5="13000.00000" pt_clust_6="13000.00000" pt_clust_7="13000.00000" pt_clust_8="13000.00000" pt_clust_9="148.81724"></scales>
<clustering>
<clus scale="   81.439">  5  6 -1 -1</clus>
<clus scale="   90.492">  7  8 -1 -1</clus>
<clus scale="  127.205">  2  5  1 -1</clus>
<clus scale="  148.817">  1  9  2 -1</clus>
<clus scale="  148.817">  1  5  2 -1</clus>
</clustering>
</event>
<event>
 9    1  0.1487426E-004  0.1610354E+03  0.7546771E-02  0.1188957E+00
         -4   -1    0    0    0  501 -0.00000000000E+00  0.00000000000E+00  0.37343279617E+03  0.37343279617E+03  0.00000000000E+00 0.  1.
         21   -1    0    0  501  502  0.00000000000E+00 -0.00000000000E+00 -0.12098168106E+03  0.12098168106E+03  0.00000000000E+00 0.  1.
        -24    2    1    2    0    0 -0.11676146516E+03  0.10041363159E+03  0.24616703865E+03  0.30146320027E+03  0.81029087618E+02 0.  0.
         23    2    1    2    0    0  0.66102179187E+02 -0.55614198902E+02 -0.72704684312E+00  0.12496224642E+03  0.90291733949E+02 0.  0.
         11    1    3    3    0    0 -0.23406143186E+02  0.73076653461E+02  0.10996228983E+03  0.13408859013E+03  0.00000000000E+00 0. -1.
        -12    1    3    3    0    0 -0.93355321977E+02  0.27336978125E+02  0.13620474883E+03  0.16737461013E+03  0.00000000000E+00 0.  1.
        -13    1    4    4    0    0  0.31534483566E+02 -0.47466046549E+02  0.40973674341E+02  0.70187543180E+02  0.00000000000E+00 0. -1.
         13    1    4    4    0    0  0.34567695621E+02 -0.81481523533E+01 -0.41700721184E+02  0.54774703236E+02  0.00000000000E+00 0.  1.
         -3    1    1    2    0  502  0.50659285976E+02 -0.44799432684E+02  0.70111232960E+01  0.67989030543E+02  0.00000000000E+00 0.  1.
<scales pt_clust_5="13000.00000" pt_clust_6="13000.00000" pt_clust_7="13000.00000" pt_clust_8="13000.00000" pt_clust_9="67.62657"></scales>
<clustering>
<clus scale="   67.627">  2  9  1 -1</clus>
<clus scale="   81.029">  5  6 -1 -1</clus>
<clus scale="   90.292">  7  8 -1 -1</clus>
<clus scale="  156.030">  1  5  2 -1</clus>
<clus scale="   67.627">  2  5  1 -1</clus>
</clustering>
</event>
<event>
 9    1  0.1487426E-004  0.3069553E+03  0.7546771E-02  0.1122542E+00
         21   -1    0    0  501  502  0.00000000000E+00  0.00000000000E+00  0.11515348655E+03  0.11515348655E+03  0.00000000000E+00 0. -1.
          1   -1    0    0  502    0 -0.00000000000E+00 -0.00000000000E+00 -0.14049603419E+04  0.14049603419E+04  0.00000000000E+00 0. -1.
        -24    2    1    2    0    0 -0.38267077392E+02  0.59439936955E+02 -0.13617375496E+03  0.17324954354E+03  0.80465132084E+02 0.  0.
         23    2    1    2    0    0  0.29393043955E+03 -0.16689274889E+03 -0.91791557024E+03  0.98289640779E+03  0.96270771524E+02 0.  0.
         11    1    3    3    0    0 -0.40873553828E+02 -0.55191999847E+01 -0.63731575281E+02  0.75913257464E+02  0.00000000000E+00 0. -1.
        -12    1    3    3    0    0  0.26064764354E+01  0.64959136940E+02 -0.72442179674E+02  0.97336286078E+02  0.00000000000E+00 0.  1.
        -13    1    4    4    0    0  0.97695057019E+02 -0.79641713651E+02 -0.46277561059E+03  0.47963360232E+03  0.00000000000E+00 0.  1.
         13    1    4    4    0    0  0.19623538253E+03 -0.87251035239E+02 -0.45513995965E+03  0.50326280548E+03  0.00000000000E+00 0. -1.
          2    1    1    2  501    0 -0.25566336216E+03  0.10745281193E+03 -0.23571753017E+03  0.36396787711E+03  0.00000000000E+00 0. -1.
<scales pt_clust_5="13000.00000" pt_clust_6="13000.00000" pt_clust_7="13000.00000" pt_clust_8="13000.00000" pt_clust_9="291.46787"></scales>
<clustering>
<clus scale="   80.465">  5  6 -1 -1</clus>
<clus scale="   96.271">  7  8 -1 -1</clus>
<clus scale="  107.108">  2  5  1 -1</clus>
<clus scale="  291.468">  1  9  2 -1</clus>
<clus scale="  291.468">  1  5  2 -1</clus>
</clustering>
</event>
<event>
 9    1  0.1487426E-004  0.1077850E+03  0.7546771E-02  0.1270679E+00
         21   -1    0    0  501  502  0.00000000000E+00  0.00000000000E+00  0.56212033412E+03  0.56212033412E+03  0.00000000000E+00 0.  1.
         -2   -1    0    0    0  501 -0.00000000000E+00 -0.00000000000E+00 -0.52425227956E+02  0.52425227956E+02  0.00000000000E+00 0.  1.
        -24    2    1    2    0    0  0.33252035636E+02 -0.44965488738E+02  0.14502314881E+02  0.97822529596E+02  0.78938818767E+02 0.  0.
         23    2    1    2    0    0 -0.29451606187E+01  0.55605887353E+02  0.30096441759E+03  0.31985661609E+03  0.92886950209E+02 0.  0.
         11    1    3    3    0    0  0.35938162533E+00 -0.58661702609E+02  0.19554066212E+02  0.61835960521E+02  0.00000000000E+00 0. -1.
        -12    1    3    3    0    0  0.32892654011E+02  0.13696213872E+02 -0.50517513314E+01  0.35986569075E+02  0.00000000000E+00 0.  1.
        -11    1    4    4    0    0  0.33008730643E+02 -0.78390003366E+01  0.72702803226E+02  0.80229195571E+02  0.00000000000E+00 0.  1.
         11    1    4    4    0    0 -0.35953891262E+02  0.63444887689E+02  0.22826161437E+03  0.23962742052E+03  0.00000000000E+00 0. -1.
         -1    1    1    2    0  502 -0.30306875017E+02 -0.10640398615E+02  0.19422837369E+03  0.19686641639E+03  0.00000000000E+00 0.  1.
<scales pt_clust_5="13000.00000" pt_clust_6="13000.00000" pt_clust_7="13000.00000" pt_clust_8="13000.00000" pt_clust_9="32.12047"></scales>
<clustering>
<clus scale="   32.120">  1  9  2 -1</clus>
<clus scale="   78.939">  5  6 -1 -1</clus>
<clus scale="   92.887">  7  8 -1 -1</clus>
<clus scale="   96.026">  2  5  1 -1</clus>
<clus scale="   32.120">  1  5  2 -1</clus>
</clustering>
</event>
<event>
 9    1  0.1487426E-004  0.9284558E+02  0.7546771E-02  0.1302351E+00
         -2   -1    0    0    0  501 -0.00000000000E+00  0.00000000000E+00  0.93798893682E+02  0.93798893682E+02  0.00000000000E+00 0.  1.
         21   -1    0    0  501  502  0.00000000000E+00 -0.00000000000E+00 -0.19944566809E+03  0.19944566809E+03  0.00000000000E+00 0. -1.
        -24    2    1    2    0    0 -0.20762474129E+02  0.48358642697E+01  0.46995468562E+02  0.96090962589E+02  0.81058208164E+02 0.  0.
         23    2    1    2    0    0 -0.10418001434E+02  0.11928496514E+01 -0.12408621902E+03  0.15444512284E+03  0.91356163304E+02 0.  0.
         11    1    3    3    0    0 -0.51946600812E+02  0.48027062934E+01  0.34227452138E+02  0.62394180847E+02  0.00000000000E+00 0. -1.
        -12    1    3    3    0    0  0.31184126683E+02  0.33157976251E-01  0.12768016423E+02  0.33696781743E+02  0.00000000000E+00 0.  1.
        -11    1    4    4    0    0  0.31498217161E+02 -0.25456392549E+02 -0.40902506946E+02  0.57560235237E+02  0.00000000000E+00 0.  1.
         11    1    4    4    0    0 -0.41916218595E+02  0.26649242201E+02 -0.83183712074E+02  0.96884887602E+02  0.00000000000E+00 0. -1.
         -1    1    1    2    0  502  0.31180475563E+02 -0.60287139211E+01 -0.28556023952E+02  0.42708476346E+02  0.00000000000E+00 0.  1.
<scales pt_clust_5="13000.00000" pt_clust_6="13000.00000" pt_clust_7="13000.00000" pt_clust_8="13000.00000" pt_clust_9="31.75795"></scales>
<clustering>
<clus scale="   31.758">  2  9  1 -1</clus>
<clus scale="   81.058">  5  6 -1 -1</clus>
<clus scale="   82.733">  1  5  2 -1</clus>
<clus scale="   91.356">  7  8 -1 -1</clus>
<clus scale="   31.758">  2  5  1 -1</clus>
</clustering>
</event>
<event>
 9    1  0.1487426E-004  0.1030785E+03  0.7546771E-02  0.1279045E+00
         21   -1    0    0  501  502  0.00000000000E+00  0.00000000000E+00  0.50136740457E+02  0.50136740457E+02  0.00000000000E+00 0. -1.
         -2   -1    0    0    0  501 -0.00000000000E+00 -0.00000000000E+00 -0.54618023375E+03  0.54618023375E+03  0.00000000000E+00 0.  1.
         23    2    1    2    0    0 -0.23965991000E+02  0.45076534068E+02 -0.37060553202E+03  0.38506929596E+03  0.91233983101E+02 0.  0.
        -24    2    1    2    0    0  0.51840225298E+02 -0.51453584119E+01 -0.23884438978E+02  0.98621794829E+02  0.80261499599E+02 0.  0.
         13    1    4    4    0    0  0.72525284753E+02 -0.40497084863E+00 -0.26550963935E+02  0.77233636557E+02  0.00000000000E+00 0. -1.
        -14    1    4    4    0    0 -0.20685059455E+02 -0.47403875633E+01  0.26665249562E+01  0.21388158272E+02  0.00000000000E+00 0.  1.
        -13    1    3    3    0    0 -0.15845552334E+02  0.71003004692E+02 -0.31350024842E+03  0.32183056717E+03  0.00000000000E+00 0.  1.
         13    1    3    3    0    0 -0.81204386654E+01 -0.25926470625E+02 -0.57105283605E+02  0.63238728789E+02  0.00000000000E+00 0. -1.
         -1    1    1    2    0  502 -0.27874234298E+02 -0.39931175656E+02 -0.10155352229E+03  0.11262588342E+03  0.00000000000E+00 0.  1.
<scales pt_clust_5="13000.00000" pt_clust_6="13000.00000" pt_clust_7="13000.00000" pt_clust_8="13000.00000" pt_clust_9="48.69778"></scales>
<clustering>
<clus scale="   48.698">  1  9  2 -1</clus>
<clus scale="   80.261">  5  6 -1 -1</clus>
<clus scale="   91.234">  7  8 -1 -1</clus>
<clus scale="   93.506">  1  5  2 -1</clus>
<clus scale="   48.698">  1  5  2 -1</clus>
</clustering>
</event>
<event>
 9    1  0.1487426E-004  0.1042413E+03  0.7546771E-02  0.1276317E+00
         -2   -1    0    0    0  501 -0.00000000000E+00  0.00000000000E+00  0.19479130674E+03  0.19479130674E+03  0.00000000000E+00 0.  1.
         21   -1    0    0  501  502  0.00000000000E+00 -0.00000000000E+00 -0.11424709970E+03  0.11424709970E+03  0.00000000000E+00 0.  1.
        -24    2    1    2    0    0  0.24631846653E+02 -0.22804493522E+02  0.80236902003E+02  0.12016290224E+03  0.82911940265E+02 0.  0.
         23    2    1    2    0    0 -0.73168511774E+02  0.31440285734E+02  0.36360964801E+02  0.12779972216E+03  0.93104922218E+02 0.  0.
         11    1    3    3    0    0  0.34941811941E+02 -0.30378800605E+02  0.82282511697E+01  0.47026650585E+02  0.00000000000E+00 0. -1.
        -12    1    3    3    0    0 -0.10309965288E+02  0.75743070828E+01  0.72008650833E+02  0.73136251660E+02  0.00000000000E+00 0.  1.
        -11    1    4    4    0    0 -0.63746291220E+01 -0.22847087994E+02  0.34299328434E+02  0.41702149313E+02  0.00000000000E+00 0.  1.
         11    1    4    4    0    0 -0.66793882652E+02  0.54287373728E+02  0.20616363662E+01  0.86097572849E+02  0.00000000000E+00 0. -1.
         -1    1    1    2    0  502  0.48536665121E+02 -0.86357922117E+01 -0.36053659765E+02  0.61075782031E+02  0.00000000000E+00 0.  1.
<scales pt_clust_5="13000.00000" pt_clust_6="13000.00000" pt_clust_7="13000.00000" pt_clust_8="13000.00000" pt_clust_9="49.29893"></scales>
<clustering>
<clus scale="   49.299">  2  9  1 -1</clus>
<clus scale="   82.912">  5  6 -1 -1</clus>
<clus scale="   93.105">  7  8 -1 -1</clus>
<clus scale="   95.248">  1  5  2 -1</clus>
<clus scale="   49.299">  2  5  1 -1</clus>
</clustering>
</event>
<event>
 9    1  0.1487426E-004  0.4288908E+03  0.7546771E-02  0.1034211E+00
         21   -1    0    0  501  502  0.00000000000E+00  0.00000000000E+00  0.36118232222E+03  0.36118232222E+03  0.00000000000E+00 0.  1.
         -4   -1    0    0    0  501 -0.00000000000E+00 -0.00000000000E+00 -0.49894991771E+03  0.49894991771E+03  0.00000000000E+00 0.  1.
        -24    2    1    2    0    0 -0.24323250086E+02  0.10026391709E+03 -0.19024149916E+02  0.13178642138E+03  0.79757563999E+02 0.  0.
         23    2    1    2    0    0  0.56523011524E+02  0.26451607449E+03 -0.20505509522E+03  0.35211322061E+03  0.93661750762E+02 0.  0.
         13    1    3    3    0    0 -0.39825018366E+02  0.85226281577E+02  0.11095277190E+02  0.94724106411E+02  0.00000000000E+00 0. -1.
        -14    1    3    3    0    0  0.15501768280E+02  0.15037635511E+02 -0.30119427106E+02  0.37062314968E+02  0.00000000000E+00 0.  1.
        -13    1    4    4    0    0  0.33837858996E+02  0.17446976667E+02 -0.24753362222E+02  0.45410644540E+02  0.00000000000E+00 0. -1.
         13    1    4    4    0    0  0.22685152528E+02  0.24706909783E+03 -0.18030173300E+03  0.30670257607E+03  0.00000000000E+00 0.  1.
         -3    1    1    2    0  502 -0.32199761438E+02 -0.36477999158E+03  0.86311649643E+02  0.37623259795E+03  0.00000000000E+00 0.  1.
<scales pt_clust_5="13000.00000" pt_clust_6="13000.00000" pt_clust_7="13000.00000" pt_clust_8="13000.00000" pt_clust_9="366.19840"></scales>
<clustering>
<clus scale="   79.758">  5  6 -1 -1</clus>
<clus scale="   93.662">  7  8 -1 -1</clus>
<clus scale="  119.177">  5  7 -1 -1</clus>
<clus scale="  366.198">  1  9  2 -1</clus>
<clus scale="  366.198">  1  5  2 -1</clus>
</clustering>
</event>
<event>
 9    1  0.1487426E-004  0.1291874E+03  0.7546771E-02  0.1231052E+00
         21   -1    0    0  501  502  0.00000000000E+00  0.00000000000E+00  0.41853904753E+02  0.41853904753E+02  0.00000000000E+00 0.  1.
          3   -1    0    0  502    0 -0.00000000000E+00 -0.00000000000E+00 -0.73636456267E+03  0.73636456267E+03  0.00000000000E+00 0. -1.
         23    2    1    2    0    0  0.97492590663E+02 -0.14555723864E+02 -0.34573202965E+03  0.37058469944E+03  0.89920569415E+02 0.  0.
        -24    2    1    2    0    0 -0.60649571984E+02  0.82413391620E+02 -0.18214754233E+03  0.22398195095E+03  0.80745584852E+02 0.  0.
         13    1    4    4    0    0 -0.67922251022E+02  0.81068100888E+02 -0.18721035852E+03  0.21501903986E+03  0.00000000000E+00 0. -1.
        -14    1    4    4    0    0  0.72726790378E+01  0.13452907319E+01  0.50628161832E+01  0.89629110920E+01  0.00000000000E+00 0.  1.
        -13    1    3    3    0    0  0.56020213241E+02 -0.49992737630E+02 -0.24204962310E+03  0.25342761916E+03  0.00000000000E+00 0.  1.
         13    1    3    3    0    0  0.41472377422E+02  0.35437013766E+02 -0.10368240655E+03  0.11715708028E+03  0.00000000000E+00 0. -1.
          4    1    1    2  501    0 -0.36843018679E+02 -0.67857667756E+02 -0.16663108593E+03  0.18365181703E+03  0.00000000000E+00 0. -1.
<scales pt_clust_5="13000.00000" pt_clust_6="13000.00000" pt_clust_7="13000.00000" pt_clust_8="13000.00000" pt_clust_9="77.21449"></scales>
<clustering>
<clus scale="   77.214">  1  9  2 -1</clus>
<clus scale="   80.746">  5  6 -1 -1</clus>
<clus scale="   89.921">  7  8 -1 -1</clus>
<clus scale="  122.978">  1  5  2 -1</clus>
<clus scale="   77.214">  1  5  2 -1</clus>
</clustering>
</event>
<event>
 9    1  0.1487426E-004  0.1124372E+03  0.7546771E-02  0.1260195E+00
         21   -1    0    0  501  502  0.00000000000E+00  0.00000000000E+00  0.21888289842E+03  0.21888289842E+03  0.00000000000E+00 0. -1.
          3   -1    0    0  502    0 -0.00000000000E+00 -0.00000000000E+00 -0.14876376123E+03  0.14876376123E+03  0.00000000000E+00 0. -1.
         23    2    1    2    0    0 -0.11252730802E+02  0.66012958407E+02 -0.91170685926E+02  0.14596472153E+03  0.92245711718E+02 0.  0.
        -24    2    1    2    0    0  0.50055719852E+02 -0.40055720650E+02  0.12602720716E+03  0.16317636373E+03  0.81447117118E+02 0.  0.
         11    1    4    4    0    0  0.71857325927E+01 -0.42382824091E+02  0.10867672290E+03  0.11686987906E+03  0.00000000000E+00 0. -1.
        -12    1    4    4    0    0  0.42869987259E+02  0.23271034410E+01  0.17350484262E+02  0.46306484666E+02  0.00000000000E+00 0.  1.
        -11    1    3    3    0    0  0.32713016754E+02  0.59311747392E+02 -0.42161986156E+02  0.79785073293E+02  0.00000000000E+00 0. -1.
         11    1    3    3    0    0 -0.43965747557E+02  0.67012110158E+01 -0.49008699770E+02  0.66179648235E+02  0.00000000000E+00 0.  1.
          4    1    1    2  501    0 -0.38802989050E+02 -0.25957237757E+02  0.35262615957E+02  0.58505574395E+02  0.00000000000E+00 0. -1.
<scales pt_clust_5="13000.00000" pt_clust_6="13000.00000" pt_clust_7="13000.00000" pt_clust_8="13000.00000" pt_clust_9="46.68458"></scales>
<clustering>
<clus scale="   46.685">  1  9  2 -1</clus>
<clus scale="   81.447">  5  6 -1 -1</clus>
<clus scale="   92.246">  7  8 -1 -1</clus>
<clus scale="  103.762">  1  5  2 -1</clus>
<clus scale="   46.685">  1  5  2 -1</clus>
</clustering>
</event>
<event>
 9    1  0.1487426E-004  0.1040767E+03  0.7546771E-02  0.1277512E+00
         21   -1    0    0  501  502  0.00000000000E+00  0.00000000000E+00  0.67408765575E+02  0.67408765575E+02  0.00000000000E+00 0. -1.
         -2   -1    0    0    0  501 -0.00000000000E+00 -0.00000000000E+00 -0.46448463085E+03  0.46448463085E+03  0.00000000000E+00 0.  1.
        -24    2    1    2    0    0 -0.25152548365E+02  0.48895054169E+02 -0.29510292800E+03  0.31042356949E+03  0.79080195806E+02 0.  0.
         23    2    1    2    0    0  0.13011554114E+02 -0.80229786197E+01  0.17857414646E+02  0.94280033546E+02  0.91302621765E+02 0.  0.
         13    1    3    3    0    0 -0.28728865427E+02  0.62213552594E+02 -0.28552578531E+03  0.29363386711E+03  0.00000000000E+00 0. -1.
        -14    1    3    3    0    0  0.35763170612E+01 -0.13318498424E+02 -0.95771426905E+01  0.16789702383E+02  0.00000000000E+00 0.  1.
        -13    1    4    4    0    0  0.32618666499E+02 -0.33189966470E+02 -0.14596507432E+02  0.48770988381E+02  0.00000000000E+00 0.  1.
         13    1    4    4    0    0 -0.19607112385E+02  0.25166987850E+02  0.32453922078E+02  0.45509045165E+02  0.00000000000E+00 0. -1.
         -1    1    1    2    0  502  0.12140994251E+02 -0.40872075550E+02 -0.11983035192E+03  0.12718979339E+03  0.00000000000E+00 0.  1.
<scales pt_clust_5="13000.00000" pt_clust_6="13000.00000" pt_clust_7="13000.00000" pt_clust_8="13000.00000" pt_clust_9="42.63722"></scales>
<clustering>
<clus scale="   42.637">  1  9  2 -1</clus>
<clus scale="   79.080">  5  6 -1 -1</clus>
<clus scale="   91.303">  7  8 -1 -1</clus>
<clus scale="   93.539">  2  5  1 -1</clus>
<clus scale="   42.637">  1  5  2 -1</clus>
</clustering>
</event>
<event>
 9    1  0.1487426E-004  0.1496814E+03  0.7546771E-02  0.1226716E+00
          1   -1    0    0  502    0 -0.00000000000E+00  0.00000000000E+00  0.49159933055E+03  0.49159933055E+03  0.00000000000E+00 0. -1.
         21   -1    0    0  501  502  0.00000000000E+00 -0.00000000000E+00 -0.12046567363E+03  0.12046567363E+03  0.00000000000E+00 0. -1.
        -24    2    1    2    0    0 -0.35777128279E+02 -0.19697201824E+02  0.27782626141E+03  0.29097577467E+03  0.76233111225E+02 0.  0.
         23    2    1    2    0    0  0.11411430708E+03 -0.65251906874E+02  0.12249019394E+03  0.20190575593E+03  0.92098861188E+02 0.  0.
         11    1    3    3    0    0 -0.40031174137E+02 -0.26412426233E+02  0.27886491320E+03  0.28295892101E+03  0.00000000000E+00 0. -1.
        -12    1    3    3    0    0  0.42540458583E+01  0.67152244088E+01 -0.10386517950E+01  0.80168536582E+01  0.00000000000E+00 0.  1.
        -13    1    4    4    0    0  0.59177143722E+02 -0.78520140186E+02  0.50964555687E+02  0.11074625362E+03  0.00000000000E+00 0. -1.
         13    1    4    4    0    0  0.54937163363E+02  0.13268233311E+02  0.71525638253E+02  0.91159502308E+02  0.00000000000E+00 0.  1.
          2    1    1    2  501    0 -0.78337178805E+02  0.84949108699E+02 -0.29182798427E+02  0.11918347359E+03  0.00000000000E+00 0. -1.
<scales pt_clust_5="13000.00000" pt_clust_6="13000.00000" pt_clust_7="13000.00000" pt_clust_8="13000.00000" pt_clust_9="117.99291"></scales>
<clustering>
<clus scale="   76.233">  5  6 -1 -1</clus>
<clus scale="   86.484">  1  5  2 -1</clus>
<clus scale="   92.099">  7  8 -1 -1</clus>
<clus scale="  117.993">  2  9  1 -1</clus>
<clus scale="  117.993">  2  5  1 -1</clus>
</clustering>
</event>
<event>
 9    1  0.1487426E-004  0.1465121E+03  0.7546771E-02  0.1207269E+00
         21   -1    0    0  501  502  0.00000000000E+00  0.00000000000E+00  0.85393484899E+02  0.85393484899E+02  0.00000000000E+00 0. -1.
          1   -1    0    0  502    0 -0.00000000000E+00 -0.00000000000E+00 -0.55669842039E+03  0.55669842039E+03  0.00000000000E+00 0. -1.
        -24    2    1    2    0    0  0.97189661537E+02  0.10490844245E+03 -0.23776678001E+03  0.28829382098E+03  0.78285847564E+02 0.  0.
         23    2    1    2    0    0 -0.53445207532E+02 -0.27651757464E+02 -0.56079714204E+01  0.10918749289E+03  0.90936512806E+02 0.  0.
         11    1    3    3    0    0  0.10083698317E+03  0.70502654079E+02 -0.21213725115E+03  0.24523648736E+03  0.00000000000E+00 0. -1.
        -12    1    3    3    0    0 -0.36473216309E+01  0.34405788372E+02 -0.25629528861E+02  0.43057333617E+02  0.00000000000E+00 0.  1.
        -13    1    4    4    0    0  0.20342889886E+02 -0.10257904835E+01 -0.20990244597E+02  0.29248517626E+02  0.00000000000E+00 0.  1.
         13    1    4    4    0    0 -0.73788097418E+02 -0.26625966980E+02  0.15382273177E+02  0.79938975264E+02  0.00000000000E+00 0. -1.
          2    1    1    2  501    0 -0.43744454005E+02 -0.77256684986E+02 -0.22793018406E+03  0.24461059143E+03  0.00000000000E+00 0. -1.
<scales pt_clust_5="13000.00000" pt_clust_6="13000.00000" pt_clust_7="13000.00000" pt_clust_8="13000.00000" pt_clust_9="88.78165"></scales>
<clustering>
<clus scale="   78.286">  5  6 -1 -1</clus>
<clus scale="   88.782">  1  9  2 -1</clus>
<clus scale="   90.937">  7  8 -1 -1</clus>
<clus scale="  139.014">  2  5  1 -1</clus>
<clus scale="   88.782">  1  5  2 -1</clus>
</clustering>
</event>
<event>
 9    1  0.1487426E-004  0.1615528E+03  0.7546771E-02  0.1188717E+00
         21   -1    0    0  501  502  0.00000000000E+00  0.00000000000E+00  0.12364802009E+03  0.12364802009E+03  0.00000000000E+00 0. -1.
          1   -1    0    0  502    0 -0.00000000000E+00 -0.00000000000E+00 -0.30211200952E+03  0.30211200952E+03  0.00000000000E+00 0. -1.
        -24    2    1    2    0    0  0.79071749947E+01 -0.12483312250E+03 -0.72360655764E+02  0.16541707296E+03  0.80504109436E+02 0.  0.
         23    2    1    2    0    0  0.43885829777E+02  0.14259948725E+03 -0.50617241604E+02  0.18238870421E+03  0.91885550855E+02 0.  0.
         11    1    3    3    0    0  0.36418508164E+02 -0.23192977951E+02 -0.21905624679E+02  0.48415682952E+02  0.00000000000E+00 0. -1.
        -12    1    3    3    0    0 -0.28511333170E+02 -0.10164014455E+03 -0.50455031085E+02  0.11700139001E+03  0.00000000000E+00 0.  1.
        -11    1    4    4    0    0  0.64953756687E+02  0.63861705906E+02 -0.10963340705E+02  0.91746949968E+02  0.00000000000E+00 0.  1.
         11    1    4    4    0    0 -0.21067926910E+02  0.78737781346E+02 -0.39653900898E+02  0.90641754242E+02  0.00000000000E+00 0. -1.
          2    1    1    2  501    0 -0.51793004771E+02 -0.17766364755E+02 -0.55486092062E+02  0.77954252432E+02  0.00000000000E+00 0. -1.
<scales pt_clust_5="13000.00000" pt_clust_6="13000.00000" pt_clust_7="13000.00000" pt_clust_8="13000.00000" pt_clust_9="54.75548"></scales>
<clustering>
<clus scale="   54.755">  1  9  2 -1</clus>
<clus scale="   80.504">  5  6 -1 -1</clus>
<clus scale="   91.886">  7  8 -1 -1</clus>
<clus scale="  155.362">  2  5  1 -1</clus>
<clus scale="   54.755">  1  5  2 -1</clus>
</clustering>
</event>
<event>
 9    1  0.1487426E-004  0.1111092E+03  0.7546771E-02  0.1261242E+00
          1   -1    0    0  502    0 -0.00000000000E+00  0.00000000000E+00  0.11120932961E+03  0.11120932961E+03  0.00000000000E+00 0. -1.
         21   -1    0    0  501  502  0.00000000000E+00 -0.00000000000E+00 -0.29093438284E+03  0.29093438284E+03  0.00000000000E+00 0. -1.
        -24    2    1    2    0    0  0.52780264030E+02 -0.44476520028E+02  0.63691410177E+02  0.12439836698E+03  0.81574756343E+02 0.  0.
         23    2    1    2    0    0 -0.32263418392E+02  0.44200766520E+02 -0.15429131601E+03  0.18628874978E+03  0.88899112319E+02 0.  0.
         11    1    3    3    0    0  0.86295550414E+01 -0.41902407228E+02 -0.46094016508E+01  0.43029379909E+02  0.00000000000E+00 0. -1.
        -12    1    3    3    0    0  0.44150708989E+02 -0.25741127999E+01  0.68300811828E+02  0.81368987073E+02  0.00000000000E+00 0.  1.
        -11    1    4    4    0    0 -0.55189857028E+02  0.62049700389E+01 -0.11187191419E+03  0.12489894778E+03  0.00000000000E+00 0.  1.
         11    1    4    4    0    0  0.22926438636E+02  0.37995796481E+02 -0.42419401819E+02  0.61389801999E+02  0.00000000000E+00 0. -1.
          2    1    1    2  501    0 -0.20516845638E+02  0.27575350834E+00 -0.89125147399E+02  0.91456595683E+02  0.00000000000E+00 0. -1.
<scales pt_clust_5="13000.00000" pt_clust_6="13000.00000" pt_clust_7="13000.00000" pt_clust_8="13000.00000" pt_clust_9="20.51870"></scales>
<clustering>
<clus scale="   20.519">  2  9  1 -1</clus>
<clus scale="   81.575">  5  6 -1 -1</clus>
<clus scale="   88.899">  7  8 -1 -1</clus>
<clus scale="  105.341">  1  5  2 -1</clus>
<clus scale="   20.519">  2  5  1 -1</clus>
</clustering>
</event>
<event>
 9    1  0.1487426E-004  0.1701945E+03  0.7546771E-02  0.1197365E+00
          1   -1    0    0  502    0 -0.00000000000E+00  0.00000000000E+00  0.54318050698E+03  0.54318050698E+03  0.00000000000E+00 0. -1.
         21   -1    0    0  501  502  0.00000000000E+00 -0.00000000000E+00 -0.13260649971E+03  0.13260649971E+03  0.00000000000E+00 0. -1.
         23    2    1    2    0    0 -0.62196317615E+02  0.23480111474E+01  0.31786526342E+03  0.33631969234E+03  0.90546754130E+02 0.  0.
        -24    2    1    2    0    0  0.18259285767E+03  0.11718951264E+02  0.26449202156E+02  0.20132415254E+03  0.79714293634E+02 0.  0.
         13    1    4    4    0    0  0.15709648095E+03  0.25118077229E+02  0.47060405857E+02  0.16590631070E+03  0.00000000000E+00 0. -1.
        -14    1    4    4    0    0  0.25496376723E+02 -0.13399125965E+02 -0.20611203702E+02  0.35417841841E+02  0.00000000000E+00 0.  1.
        -13    1    3    3    0    0 -0.20340711612E+01 -0.35756723255E+02  0.14505626883E+03  0.14941218769E+03  0.00000000000E+00 0.  1.
         13    1    3    3    0    0 -0.60162246454E+02  0.38104734402E+02  0.17280899459E+03  0.18690750465E+03  0.00000000000E+00 0. -1.
          2    1    1    2  501    0 -0.12039654005E+03 -0.14066962412E+02  0.66259541697E+02  0.13814316181E+03  0.00000000000E+00 0. -1.
<scales pt_clust_5="13000.00000" pt_clust_6="13000.00000" pt_clust_7="13000.00000" pt_clust_8="13000.00000" pt_clust_9="150.37231"></scales>
<clustering>
<clus scale="   79.714">  5  6 -1 -1</clus>
<clus scale="   90.547">  7  8 -1 -1</clus>
<clus scale="  109.875">  1  7  2 -1</clus>
<clus scale="  150.372">  2  9  1 -1</clus>
<clus scale="  150.372">  2  5  1 -1</clus>
</clustering>
</event>
<event>
 9    1  0.1487426E-004  0.1015388E+03  0.7546771E-02  0.1279646E+00
          1   -1    0    0  502    0 -0.00000000000E+00  0.00000000000E+00  0.41665047467E+03  0.41665047467E+03  0.00000000000E+00 0. -1.
         21   -1    0    0  501  502  0.00000000000E+00 -0.00000000000E+00 -0.54698075550E+02  0.54698075550E+02  0.00000000000E+00 0. -1.
         23    2    1    2    0    0 -0.21237950109E+02 -0.27686110230E+02  0.12525440292E+03  0.15782304567E+03  0.89453211606E+02 0.  0.
        -24    2    1    2    0    0 -0.16790092093E+02  0.84752690801E+02  0.86146763681E+02  0.14809152913E+03  0.83933964031E+02 0.  0.
         11    1    4    4    0    0 -0.27897809239E+02  0.78883759759E+02  0.99334368383E+02  0.12987783512E+03  0.00000000000E+00 0. -1.
        -12    1    4    4    0    0  0.11107717146E+02  0.58689310422E+01 -0.13187604702E+02  0.18213694011E+02  0.00000000000E+00 0.  1.
        -11    1    3    3    0    0 -0.52524697921E+02 -0.30197527525E+01  0.49531659240E+02  0.72258896100E+02  0.00000000000E+00 0.  1.
         11    1    3    3    0    0  0.31286747813E+02 -0.24666357478E+02  0.75722743684E+02  0.85564149566E+02  0.00000000000E+00 0. -1.
          2    1    1    2  501    0  0.38028042202E+02 -0.57066580571E+02  0.15055123252E+03  0.16543397542E+03  0.00000000000E+00 0. -1.
<scales pt_clust_5="13000.00000" pt_clust_6="13000.00000" pt_clust_7="13000.00000" pt_clust_8="13000.00000" pt_clust_9="68.57646"></scales>
<clustering>
<clus scale="   68.576">  2  9  1 -1</clus>
<clus scale="   83.934">  5  6 -1 -1</clus>
<clus scale="   89.453">  7  8 -1 -1</clus>
<clus scale="   96.712">  2  5  1 -1</clus>
<clus scale="   68.576">  2  5  1 -1</clus>
</clustering>
</event>
<event>
 9    1  0.1487426E-004  0.1229235E+03  0.7546771E-02  0.1259358E+00
         21   -1    0    0  501  502  0.00000000000E+00  0.00000000000E+00  0.24752653870E+02  0.24752653870E+02  0.00000000000E+00 0.  1.
          1   -1    0    0  502    0 -0.00000000000E+00 -0.00000000000E+00 -0.78514989198E+03  0.78514989198E+03  0.00000000000E+00 0. -1.
         23    2    1    2    0    0 -0.19820622436E+02  0.25426600732E+02 -0.32295249093E+03  0.34688207982E+03  0.12243160051E+03 0.  0.
        -24    2    1    2    0    0 -0.86341512503E-01  0.31566571509E+02 -0.19394823635E+03  0.21215185563E+03  0.79975218497E+02 0.  0.
         11    1    4    4    0    0 -0.16700729072E+02  0.26423948758E+02 -0.19508541771E+02  0.36847287845E+02  0.00000000000E+00 0. -1.
        -12    1    4    4    0    0  0.16614387559E+02  0.51426227513E+01 -0.17443969458E+03  0.17530456779E+03  0.00000000000E+00 0.  1.
        -11    1    3    3    0    0  0.32411658802E+02  0.54546145074E+02 -0.20565290865E+03  0.21521829942E+03  0.00000000000E+00 0.  1.
         11    1    3    3    0    0 -0.52232281238E+02 -0.29119544343E+02 -0.11729958227E+03  0.13166378039E+03  0.00000000000E+00 0. -1.
          2    1    1    2  501    0  0.19906963949E+02 -0.56993172241E+02 -0.24349651084E+03  0.25086861040E+03  0.00000000000E+00 0. -1.
<scales pt_clust_5="13000.00000" pt_clust_6="13000.00000" pt_clust_7="13000.00000" pt_clust_8="13000.00000" pt_clust_9="60.36980"></scales>
<clustering>
<clus scale="   60.370">  1  9  2 -1</clus>
<clus scale="   79.975">  5  6 -1 -1</clus>
<clus scale="   80.726">  1  5  2 -1</clus>
<clus scale="  122.432">  7  8 -1 -1</clus>
<clus scale="   60.370">  1  5  2 -1</clus>
</clustering>
</event>
<event>
 9    1  0.1487426E-004  0.1824364E+03  0.7546771E-02  0.1192434E+00
         21   -1    0    0  501  502  0.00000000000E+00  0.00000000000E+00  0.83247665735E+02  0.83247665735E+02  0.00000000000E+00 0. -1.
          3   -1    0    0  502    0 -0.00000000000E+00 -0.00000000000E+00 -0.75691803333E+03  0.75691803333E+03  0.00000000000E+00 0. -1.
        -24    2    1    2    0    0 -0.16885246299E+02 -0.53120143464E+02 -0.26295984824E+02  0.10280516651E+03  0.82283426399E+02 0.  0.
         23    2    1    2    0    0 -0.14043230494E+03  0.81582268327E+02 -0.42147780347E+03  0.46061485685E+03  0.90253026316E+02 0.  0.
         13    1    3    3    0    0  0.21605876100E+02 -0.55257404590E+02 -0.24566135833E+02  0.64215961208E+02  0.00000000000E+00 0. -1.
        -14    1    3    3    0    0 -0.38491122399E+02  0.21372611263E+01 -0.17298489913E+01  0.38589205306E+02  0.00000000000E+00 0.  1.
        -11    1    4    4    0    0  0.59043612476E+01  0.28880979736E+02 -0.52813732132E+02  0.60483574414E+02  0.00000000000E+00 0.  1.
         11    1    4    4    0    0 -0.14633666619E+03  0.52701288591E+02 -0.36866407134E+03  0.40013128243E+03  0.00000000000E+00 0. -1.
          4    1    1    2  501    0  0.15731755124E+03 -0.28462124863E+02 -0.22589657930E+03  0.27674567570E+03  0.00000000000E+00 0. -1.
<scales pt_clust_5="13000.00000" pt_clust_6="13000.00000" pt_clust_7="13000.00000" pt_clust_8="13000.00000" pt_clust_9="158.54789"></scales>
<clustering>
<clus scale="   82.283">  5  6 -1 -1</clus>
<clus scale="   90.253">  7  8 -1 -1</clus>
<clus scale="   99.385">  2  5  1 -1</clus>
<clus scale="  158.548">  1  9  2 -1</clus>
<clus scale="  158.548">  1  5  2 -1</clus>
</clustering>
</event>
<event>
 9    1  0.1487426E-004  0.1894528E+03  0.7546771E-02  0.1180204E+00
          1   -1    0    0  502    0 -0.00000000000E+00  0.00000000000E+00  0.61103388900E+03  0.61103388900E+03  0.00000000000E+00 0. -1.
         21   -1    0    0  501  502  0.00000000000E+00 -0.00000000000E+00 -0.25298184629E+03  0.25298184629E+03  0.00000000000E+00 0. -1.
         23    2    1    2    0    0 -0.57439200724E+02  0.39901278578E+02 -0.67358903540E+02  0.13455363965E+03  0.93145511132E+02 0.  0.
        -24    2    1    2    0    0  0.22270391279E+03 -0.35283398331E+02  0.49498684544E+03  0.55008942320E+03  0.82124572373E+02 0.  0.
         11    1    4    4    0    0  0.18697643146E+03  0.22575858108E+01  0.40851442566E+03  0.44927643894E+03  0.00000000000E+00 0. -1.
        -12    1    4    4    0    0  0.35727481330E+02 -0.37540984141E+02  0.86472419781E+02  0.10081298426E+03  0.00000000000E+00 0.  1.
        -13    1    3    3    0    0 -0.21815134930E+02 -0.16276475045E+02  0.13058899729E+02  0.30188716668E+02  0.00000000000E+00 0.  1.
         13    1    3    3    0    0 -0.35624065794E+02  0.56177753624E+02 -0.80417803268E+02  0.10436492298E+03  0.00000000000E+00 0. -1.
          2    1    1    2  501    0 -0.16526471207E+03 -0.46178802478E+01 -0.69575899181E+02  0.17937267245E+03  0.00000000000E+00 0. -1.
<scales pt_clust_5="13000.00000" pt_clust_6="13000.00000" pt_clust_7="13000.00000" pt_clust_8="13000.00000" pt_clust_9="170.72760"></scales>
<clustering>
<clus scale="   82.125">  5  6 -1 -1</clus>
<clus scale="   93.146">  7  8 -1 -1</clus>
<clus scale="  116.479">  1  7  2 -1</clus>
<clus scale="  170.728">  2  9  1 -1</clus>
<clus scale="  170.728">  2  5  1 -1</clus>
</clustering>
</event>
<event>
 9    1  0.1487426E-004  0.9066400E+02  0.7546771E-02  0.1307909E+00
         -2   -1    0    0    0  501 -0.00000000000E+00  0.00000000000E+00  0.68149364014E+02  0.68149364014E+02  0.00000000000E+00 0.  1.
         21   -1    0    0  501  502  0.00000000000E+00 -0.00000000000E+00 -0.31624372041E+03  0.31624372041E+03  0.00000000000E+00 0.  1.
         23    2    1    2    0    0  0.50406635307E-01  0.15646434756E+02 -0.26733566347E+01  0.90903428160E+02  0.89506831886E+02 0.  0.
        -24    2    1    2    0    0 -0.48074726365E+02  0.68941047638E+01 -0.21042092877E+03  0.22993325472E+03  0.78953317652E+02 0.  0.
         11    1    4    4    0    0 -0.19404424180E+02 -0.30450397316E+02 -0.43674394092E+02  0.56667548683E+02  0.00000000000E+00 0. -1.
        -12    1    4    4    0    0 -0.28670302186E+02  0.37344502080E+02 -0.16674653468E+03  0.17326570604E+03  0.00000000000E+00 0.  1.
        -11    1    3    3    0    0 -0.39648605265E+02  0.27209408324E+02  0.65710932754E+01  0.48533937277E+02  0.00000000000E+00 0.  1.
         11    1    3    3    0    0  0.39699011900E+02 -0.11562973567E+02 -0.92444499101E+01  0.42369490883E+02  0.00000000000E+00 0. -1.
         -1    1    1    2    0  502  0.48024319730E+02 -0.22540539520E+02 -0.35000070997E+02  0.63556401544E+02  0.00000000000E+00 0.  1.
<scales pt_clust_5="13000.00000" pt_clust_6="13000.00000" pt_clust_7="13000.00000" pt_clust_8="13000.00000" pt_clust_9="53.05105"></scales>
<clustering>
<clus scale="   53.051">  2  9  1 -1</clus>
<clus scale="   78.953">  5  6 -1 -1</clus>
<clus scale="   80.263">  2  5  1 -1</clus>
<clus scale="   89.507">  7  8 -1 -1</clus>
<clus scale="   53.051">  2  5  1 -1</clus>
</clustering>
</event>
<event>
 9    1  0.1487426E-004  0.1703431E+03  0.7546771E-02  0.1208892E+00
         -2   -1    0    0    0  501 -0.00000000000E+00  0.00000000000E+00  0.43317380092E+03  0.43317380092E+03  0.00000000000E+00 0.  1.
         21   -1    0    0  501  502  0.00000000000E+00 -0.00000000000E+00 -0.11384841467E+03  0.11384841467E+03  0.00000000000E+00 0.  1.
        -24    2    1    2    0    0 -0.27246046684E+02  0.46488455517E+01  0.74449987819E+02  0.11331774987E+03  0.80834107430E+02 0.  0.
         23    2    1    2    0    0 -0.61520354669E+01  0.11958277711E+03  0.25588237519E+03  0.30459179595E+03  0.11385290556E+03 0.  0.
         11    1    3    3    0    0  0.27070475600E+02 -0.79696829684E+01  0.35254920596E+02  0.45157899885E+02  0.00000000000E+00 0. -1.
        -12    1    3    3    0    0 -0.54316522284E+02  0.12618528520E+02  0.39195067223E+02  0.68159849983E+02  0.00000000000E+00 0.  1.
        -13    1    4    4    0    0 -0.46346673288E+02  0.76983441867E+02  0.21540668561E+03  0.23339773918E+03  0.00000000000E+00 0.  1.
         13    1    4    4    0    0  0.40194637821E+02  0.42599335240E+02  0.40475689578E+02  0.71194056769E+02  0.00000000000E+00 0. -1.
         -1    1    1    2    0  502  0.33398082151E+02 -0.12423162266E+03 -0.11006976765E+02  0.12911266978E+03  0.00000000000E+00 0.  1.
<scales pt_clust_5="13000.00000" pt_clust_6="13000.00000" pt_clust_7="13000.00000" pt_clust_8="13000.00000" pt_clust_9="126.70547"></scales>
<clustering>
<clus scale="   80.834">  5  6 -1 -1</clus>
<clus scale="   85.429">  1  5  2 -1</clus>
<clus scale="  113.853">  7  8 -1 -1</clus>
<clus scale="  126.705">  2  9  1 -1</clus>
<clus scale="  126.705">  2  5  1 -1</clus>
</clustering>
</event>
<event>
 9    1  0.1487426E-004  0.2615783E+03  0.7546771E-02  0.1106479E+00
         21   -1    0    0  501  502  0.00000000000E+00  0.00000000000E+00  0.17687403709E+03  0.17687403709E+03  0.00000000000E+00 0.  1.
          1   -1    0    0  502    0 -0.00000000000E+00 -0.00000000000E+00 -0.10554238693E+04  0.10554238693E+04  0.00000000000E+00 0. -1.
        -24    2    1    2    0    0  0.24734885352E+03 -0.19800826723E+02 -0.88501923580E+03  0.92325485473E+03  0.86988223122E+02 0.  0.
         23    2    1    2    0    0 -0.22478233916E+03  0.30311447752E+02 -0.47604531581E+02  0.24951397323E+03  0.92439967252E+02 0.  0.
         13    1    3    3    0    0  0.18059050500E+03 -0.52646761545E+02 -0.65752538873E+03  0.68390368388E+03  0.00000000000E+00 0. -1.
        -14    1    3    3    0    0  0.66758348517E+02  0.32845934822E+02 -0.22749384707E+03  0.23935117084E+03  0.00000000000E+00 0.  1.
        -11    1    4    4    0    0 -0.12399693365E+03  0.12428897523E+02 -0.72495955026E+02  0.14417135827E+03  0.00000000000E+00 0. -1.
         11    1    4    4    0    0 -0.10078540551E+03  0.17882550228E+02  0.24891423445E+02  0.10534261496E+03  0.00000000000E+00 0.  1.
          2    1    1    2  501    0 -0.22566514362E+02 -0.10510621028E+02  0.54073935123E+02  0.59529078478E+02  0.00000000000E+00 0. -1.
<scales pt_clust_5="13000.00000" pt_clust_6="13000.00000" pt_clust_7="13000.00000" pt_clust_8="13000.00000" pt_clust_9="24.89419"></scales>
<clustering>
<clus scale="   24.894">  1  9  2 -1</clus>
<clus scale="   86.988">  5  6 -1 -1</clus>
<clus scale="   92.440">  7  8 -1 -1</clus>
<clus scale="  259.702">  2  5  1 -1</clus>
<clus scale="   24.894">  1  5  2 -1</clus>
</clustering>
</event>
<event>
 9    1  0.1487426E-004  0.9208046E+02  0.7546771E-02  0.1304351E+00
          1   -1    0    0  502    0 -0.00000000000E+00  0.00000000000E+00  0.11121714746E+03  0.11121714746E+03  0.00000000000E+00 0. -1.
         21   -1    0    0  501  502  0.00000000000E+00 -0.00000000000E+00 -0.17207549842E+03  0.17207549842E+03  0.00000000000E+00 0. -1.
         23    2    1    2    0    0 -0.73410572771E+01 -0.13627136648E+02  0.67608879649E+02  0.11419942749E+03  0.90724630925E+02 0.  0.
        -24    2    1    2    0    0 -0.13279620180E+02  0.22850362252E+02 -0.83518520039E+02  0.11878748501E+03  0.80228648488E+02 0.  0.
         13    1    4    4    0    0  0.64212176725E+01  0.26916985861E+02  0.49058558450E+01  0.28103800203E+02  0.00000000000E+00 0. -1.
        -14    1    4    4    0    0 -0.19700837853E+02 -0.40666236096E+01 -0.88424375884E+02  0.90683684807E+02  0.00000000000E+00 0.  1.
        -11    1    3    3    0    0 -0.48803639128E+02 -0.12918911909E+02  0.39516582643E+02  0.64111260952E+02  0.00000000000E+00 0.  1.
         11    1    3    3    0    0  0.41462581851E+02 -0.70822473959E+00  0.28092297006E+02  0.50088166538E+02  0.00000000000E+00 0. -1.
          2    1    1    2  501    0  0.20620677457E+02 -0.92232256036E+01 -0.44948710568E+02  0.50305733382E+02  0.00000000000E+00 0. -1.
<scales pt_clust_5="13000.00000" pt_clust_6="13000.00000" pt_clust_7="13000.00000" pt_clust_8="13000.00000" pt_clust_9="22.58938"></scales>
<clustering>
<clus scale="   22.589">  2  9  1 -1</clus>
<clus scale="   80.229">  5  6 -1 -1</clus>
<clus scale="   81.759">  2  5  1 -1</clus>
<clus scale="   90.725">  7  8 -1 -1</clus>
<clus scale="   22.589">  2  5  1 -1</clus>
</clustering>
</event>
<event>
 9    1  0.1487426E-004  0.1916265E+03  0.7546771E-02  0.1180729E+00
         21   -1    0    0  501  502  0.00000000000E+00  0.00000000000E+00  0.22972262139E+03  0.22972262139E+03  0.00000000000E+00 0.  1.
         -4   -1    0    0    0  501 -0.00000000000E+00 -0.00000000000E+00 -0.66069600210E+03  0.66069600210E+03  0.00000000000E+00 0.  1.
        -24    2    1    2    0    0  0.39137096236E+02  0.62815269240E+02 -0.47106564772E+03  0.48402198243E+03  0.83047966041E+02 0.  0.
         23    2    1    2    0    0  0.65581653799E+02 -0.18599795314E+03 -0.47722571061E+02  0.22240904362E+03  0.91061226699E+02 0.  0.
         11    1    3    3    0    0  0.10701514647E+02  0.60908505950E+02 -0.15814771843E+03  0.16980892014E+03  0.00000000000E+00 0. -1.
        -12    1    3    3    0    0  0.28435581589E+02  0.19067632900E+01 -0.31291792929E+03  0.31421306230E+03  0.00000000000E+00 0.  1.
        -11    1    4    4    0    0  0.42302194253E+02 -0.24927373174E+02  0.92821302603E+01  0.49970066181E+02  0.00000000000E+00 0. -1.
         11    1    4    4    0    0  0.23279459547E+02 -0.16107057997E+03 -0.57004701322E+02  0.17243897744E+03  0.00000000000E+00 0.  1.
         -3    1    1    2    0  502 -0.10471875004E+03  0.12318268390E+03  0.87814838068E+02  0.18398759743E+03  0.00000000000E+00 0.  1.
<scales pt_clust_5="13000.00000" pt_clust_6="13000.00000" pt_clust_7="13000.00000" pt_clust_8="13000.00000" pt_clust_9="168.60778"></scales>
<clustering>
<clus scale="   83.048">  5  6 -1 -1</clus>
<clus scale="   91.061">  7  8 -1 -1</clus>
<clus scale="  111.240">  2  5  1 -1</clus>
<clus scale="  168.608">  1  9  2 -1</clus>
<clus scale="  168.608">  1  5  2 -1</clus>
</clustering>
</event>
<event>
 9    1  0.1487426E-004  0.1276696E+03  0.7546771E-02  0.1234225E+00
          3   -1    0    0  502    0 -0.00000000000E+00  0.00000000000E+00  0.24420134468E+03  0.24420134468E+03  0.00000000000E+00 0. -1.
         21   -1    0    0  501  502  0.00000000000E+00 -0.00000000000E+00 -0.13353451458E+03  0.13353451458E+03  0.00000000000E+00 0. -1.
         23    2    1    2    0    0  0.84541952620E+00 -0.94119665860E+02  0.14040870220E+03  0.19248483767E+03  0.92068359629E+02 0.  0.
        -24    2    1    2    0    0  0.22913872002E+02  0.77949207903E+02  0.30812541035E+02  0.11822248592E+03  0.80162453487E+02 0.  0.
         13    1    4    4    0    0 -0.29153446476E+02  0.16192671536E+02  0.82498702595E+01  0.34353841302E+02  0.00000000000E+00 0. -1.
        -14    1    4    4    0    0  0.52067318477E+02  0.61756536367E+02  0.22562670776E+02  0.83868644618E+02  0.00000000000E+00 0.  1.
        -13    1    3    3    0    0 -0.43833073190E+02 -0.35503020418E+02  0.46469625156E+02  0.73083711086E+02  0.00000000000E+00 0.  1.
         13    1    3    3    0    0  0.44678492716E+02 -0.58616645442E+02  0.93939077041E+02  0.11940112658E+03  0.00000000000E+00 0. -1.
          4    1    1    2  501    0 -0.23759291528E+02  0.16170457957E+02 -0.60554413128E+02  0.67028535668E+02  0.00000000000E+00 0. -1.
<scales pt_clust_5="13000.00000" pt_clust_6="13000.00000" pt_clust_7="13000.00000" pt_clust_8="13000.00000" pt_clust_9="28.74000"></scales>
<clustering>
<clus scale="   28.740">  2  9  1 -1</clus>
<clus scale="   80.162">  5  6 -1 -1</clus>
<clus scale="   92.068">  7  8 -1 -1</clus>
<clus scale="  119.369">  2  5  1 -1</clus>
<clus scale="   28.740">  2  5  1 -1</clus>
</clustering>
</event>
<event>
 9    1  0.1487426E-004  0.9222814E+02  0.7546771E-02  0.1302638E+00
          1   -1    0    0  502    0 -0.00000000000E+00  0.00000000000E+00  0.50782311334E+02  0.50782311334E+02  0.00000000000E+00 0. -1.
         21   -1    0    0  501  502  0.00000000000E+00 -0.00000000000E+00 -0.69094454973E+03  0.69094454973E+03  0.00000000000E+00 0. -1.
        -24    2    1    2    0    0 -0.10407466232E+02 -0.32943407218E+02 -0.44812635743E+01  0.86872976807E+02  0.79581712369E+02 0.  0.
         23    2    1    2    0    0 -0.12643819197E+02 -0.22684960363E+02 -0.29911865329E+03  0.31294735710E+03  0.88258744486E+02 0.  0.
         11    1    3    3    0    0  0.31387262682E+02 -0.66513532865E+01 -0.16465467593E+02  0.36062617519E+02  0.00000000000E+00 0. -1.
        -12    1    3    3    0    0 -0.41794728915E+02 -0.26292053931E+02  0.11984204019E+02  0.50810359288E+02  0.00000000000E+00 0.  1.
        -13    1    4    4    0    0  0.23619022145E+02  0.10996131955E+02 -0.31914282095E+02  0.41198234510E+02  0.00000000000E+00 0.  1.
         13    1    4    4    0    0 -0.36262841343E+02 -0.33681092318E+02 -0.26720437119E+03  0.27174912259E+03  0.00000000000E+00 0. -1.
          2    1    1    2  501    0  0.23051285429E+02  0.55628367580E+02 -0.33656232153E+03  0.34190652716E+03  0.00000000000E+00 0. -1.
<scales pt_clust_5="13000.00000" pt_clust_6="13000.00000" pt_clust_7="13000.00000" pt_clust_8="13000.00000" pt_clust_9="60.21526"></scales>
<clustering>
<clus scale="   60.215">  2  9  1 -1</clus>
<clus scale="   79.582">  5  6 -1 -1</clus>
<clus scale="   83.962">  1  5  2 -1</clus>
<clus scale="   88.259">  7  8 -1 -1</clus>
<clus scale="   60.215">  2  5  1 -1</clus>
</clustering>
</event>
<event>
 9    1  0.1487426E-004  0.1108251E+03  0.7546771E-02  0.1263390E+00
         21   -1    0    0  501  502  0.00000000000E+00  0.00000000000E+00  0.46662769662E+02  0.46662769662E+02  0.00000000000E+00 0. -1.
          1   -1    0    0  502    0 -0.00000000000E+00 -0.00000000000E+00 -0.58346650230E+03  0.58346650230E+03  0.00000000000E+00 0. -1.
        -24    2    1    2    0    0 -0.14691694342E+02 -0.61330464482E+02 -0.33689253313E+03  0.35212036235E+03  0.80714923917E+02 0.  0.
         23    2    1    2    0    0  0.34981020903E+02  0.52022907270E+02 -0.22093415991E+03  0.24734537659E+03  0.91857376397E+02 0.  0.
         11    1    3    3    0    0 -0.26959736988E+02 -0.58021955826E+02 -0.33261635846E+03  0.33871376808E+03  0.00000000000E+00 0. -1.
        -12    1    3    3    0    0  0.12268042645E+02 -0.33085086553E+01 -0.42761746746E+01  0.13406594262E+02  0.00000000000E+00 0.  1.
        -13    1    4    4    0    0 -0.53614617926E+01  0.65397100921E+02 -0.10445860605E+03  0.12335771747E+03  0.00000000000E+00 0.  1.
         13    1    4    4    0    0  0.40342482695E+02 -0.13374193651E+02 -0.11647555386E+03  0.12398765912E+03  0.00000000000E+00 0. -1.
          2    1    1    2  501    0 -0.20289326560E+02  0.93075572119E+01  0.21022960407E+02  0.30663533029E+02  0.00000000000E+00 0. -1.
<scales pt_clust_5="13000.00000" pt_clust_6="13000.00000" pt_clust_7="13000.00000" pt_clust_8="13000.00000" pt_clust_9="22.32235"></scales>
<clustering>
<clus scale="   22.322">  1  9  2 -1</clus>
<clus scale="   80.715">  5  6 -1 -1</clus>
<clus scale="   91.857">  7  8 -1 -1</clus>
<clus scale="  101.781">  2  5  1 -1</clus>
<clus scale="   22.322">  1  5  2 -1</clus>
</clustering>
</event>
<event>
 9    1  0.1487426E-004  0.1026922E+03  0.7546771E-02  0.1280223E+00
          1   -1    0    0  502    0 -0.00000000000E+00  0.00000000000E+00  0.27575960510E+03  0.27575960510E+03  0.00000000000E+00 0. -1.
         21   -1    0    0  501  502  0.00000000000E+00 -0.00000000000E+00 -0.88061463461E+02  0.88061463461E+02  0.00000000000E+00 0.  1.
        -24    2    1    2    0    0 -0.58692854170E+02 -0.23533506378E+02  0.48333511672E+02  0.11258139456E+03  0.79622641230E+02 0.  0.
         23    2    1    2    0    0 -0.19555688100E+02  0.61720397536E+02  0.39360127564E+02  0.11864263963E+03  0.91296351996E+02 0.  0.
         13    1    3    3    0    0 -0.29345054170E+02 -0.27833706345E+02  0.66474819833E+02  0.77812268216E+02  0.00000000000E+00 0. -1.
        -14    1    3    3    0    0 -0.29347800001E+02  0.43001999672E+01 -0.18141308161E+02  0.34769126340E+02  0.00000000000E+00 0.  1.
        -11    1    4    4    0    0 -0.23288724095E+02  0.84794193217E+02  0.36044319136E+02  0.95034797918E+02  0.00000000000E+00 0.  1.
         11    1    4    4    0    0  0.37330359956E+01 -0.23073795681E+02  0.33158084289E+01  0.23607841714E+02  0.00000000000E+00 0. -1.
          2    1    1    2  501    0  0.78248542270E+02 -0.38186891158E+02  0.10000450240E+03  0.13259703437E+03  0.00000000000E+00 0. -1.
<scales pt_clust_5="13000.00000" pt_clust_6="13000.00000" pt_clust_7="13000.00000" pt_clust_8="13000.00000" pt_clust_9="87.06940"></scales>
<clustering>
<clus scale="   79.623">  5  6 -1 -1</clus>
<clus scale="   87.069">  2  9  1 -1</clus>
<clus scale="   91.296">  7  8 -1 -1</clus>
<clus scale="   92.469">  1  5  2 -1</clus>
<clus scale="   87.069">  2  5  1 -1</clus>
</clustering>
</event>
<event>
 9    1  0.1487426E-004  0.9846645E+02  0.7546771E-02  0.1296908E+00
         21   -1    0    0  501  502  0.00000000000E+00  0.00000000000E+00  0.14337990463E+03  0.14337990463E+03  0.00000000000E+00 0.  1.
          3   -1    0    0  502    0 -0.00000000000E+00 -0.00000000000E+00 -0.13393668425E+03  0.13393668425E+03  0.00000000000E+00 0. -1.
        -24    2    1    2    0    0  0.18478430956E+02  0.99912889930E+01 -0.78049422401E+02  0.10987176782E+03  0.74423213850E+02 0.  0.
         23    2    1    2    0    0  0.15634073155E+02 -0.29436196364E+02  0.53159001208E+02  0.11528577291E+03  0.96716162697E+02 0.  0.
         11    1    3    3    0    0  0.42357478281E+02 -0.18314868591E+01 -0.70346885413E+02  0.82135221420E+02  0.00000000000E+00 0. -1.
        -12    1    3    3    0    0 -0.23879047325E+02  0.11822775852E+02 -0.77025369886E+01  0.27736546397E+02  0.00000000000E+00 0.  1.
        -13    1    4    4    0    0 -0.40807511693E+02 -0.74623084397E+01  0.25556844156E+02  0.48724648188E+02  0.00000000000E+00 0.  1.
         13    1    4    4    0    0  0.56441584848E+02 -0.21973887924E+02  0.27602157052E+02  0.66561124725E+02  0.00000000000E+00 0. -1.
          4    1    1    2  501    0 -0.34112504111E+02  0.19444907371E+02  0.34333641577E+02  0.52159048145E+02  0.00000000000E+00 0. -1.
<scales pt_clust_5="13000.00000" pt_clust_6="13000.00000" pt_clust_7="13000.00000" pt_clust_8="13000.00000" pt_clust_9="39.26535"></scales>
<clustering>
<clus scale="   39.265">  1  9  2 -1</clus>
<clus scale="   74.423">  5  6 -1 -1</clus>
<clus scale="   76.684">  2  5  1 -1</clus>
<clus scale="   96.716">  7  8 -1 -1</clus>
<clus scale="   39.265">  1  5  2 -1</clus>
</clustering>
</event>
<event>
 9    1  0.1487426E-004  0.9960561E+02  0.7546771E-02  0.1285692E+00
         21   -1    0    0  501  502  0.00000000000E+00  0.00000000000E+00  0.65793831247E+02  0.65793831247E+02  0.00000000000E+00 0.  1.
         -2   -1    0    0    0  501 -0.00000000000E+00 -0.00000000000E+00 -0.27868494767E+03  0.27868494767E+03  0.00000000000E+00 0.  1.
        -24    2    1    2    0    0  0.58496179340E+02 -0.21410200198E+02 -0.15290349952E+03  0.18355144855E+03  0.80196349224E+02 0.  0.
         23    2    1    2    0    0 -0.85537419899E+01 -0.95259008963E+01 -0.32322269773E+02  0.95991509504E+02  0.89474753331E+02 0.  0.
         13    1    3    3    0    0  0.66997769721E+02  0.77036769323E+01 -0.12643460967E+03  0.14329605126E+03  0.00000000000E+00 0. -1.
        -14    1    3    3    0    0 -0.85015903810E+01 -0.29113877130E+02 -0.26468889853E+02  0.40255397285E+02  0.00000000000E+00 0.  1.
        -11    1    4    4    0    0  0.37200540172E+02 -0.20107218739E+02 -0.77560565629E+01  0.42992288237E+02  0.00000000000E+00 0.  1.
         11    1    4    4    0    0 -0.45754282162E+02  0.10581317842E+02 -0.24566213211E+02  0.52999221267E+02  0.00000000000E+00 0. -1.
         -1    1    1    2    0  502 -0.49942437350E+02  0.30936101094E+02 -0.27665347127E+02  0.64935820862E+02  0.00000000000E+00 0.  1.
<scales pt_clust_5="13000.00000" pt_clust_6="13000.00000" pt_clust_7="13000.00000" pt_clust_8="13000.00000" pt_clust_9="58.74768"></scales>
<clustering>
<clus scale="   58.748">  1  9  2 -1</clus>
<clus scale="   80.196">  5  6 -1 -1</clus>
<clus scale="   89.475">  7  8 -1 -1</clus>
<clus scale="   91.362">  2  5  1 -1</clus>
<clus scale="   58.748">  1  5  2 -1</clus>
</clustering>
</event>
<event>
 9    1  0.1487426E-004  0.9675771E+02  0.7546771E-02  0.1293727E+00
          1   -1    0    0  502    0 -0.00000000000E+00  0.00000000000E+00  0.61260384691E+03  0.61260384691E+03  0.00000000000E+00 0. -1.
         21   -1    0    0  501  502  0.00000000000E+00 -0.00000000000E+00 -0.64176219992E+02  0.64176219992E+02  0.00000000000E+00 0.  1.
        -24    2    1    2    0    0 -0.24916025139E+02 -0.16882008072E+02  0.22510363756E+03  0.24053905773E+03  0.79256420242E+02 0.  0.
         23    2    1    2    0    0 -0.47024905378E+01  0.79961618502E+02  0.17449705963E+02  0.12252876687E+03  0.91064991197E+02 0.  0.
         11    1    3    3    0    0 -0.68274117447E+01 -0.48053880638E+02  0.12089611332E+03  0.13027532081E+03  0.00000000000E+00 0. -1.
        -12    1    3    3    0    0 -0.18088613394E+02  0.31171872566E+02  0.10420752423E+03  0.11026373692E+03  0.00000000000E+00 0.  1.
        -13    1    4    4    0    0 -0.37166703542E+02  0.51017529678E+01  0.16355121438E+02  0.40925318970E+02  0.00000000000E+00 0. -1.
         13    1    4    4    0    0  0.32464213005E+02  0.74859865534E+02  0.10945845246E+01  0.81603447899E+02  0.00000000000E+00 0.  1.
          2    1    1    2  501    0  0.29618515677E+02 -0.63079610430E+02  0.30587428340E+03  0.31371224230E+03  0.00000000000E+00 0. -1.
<scales pt_clust_5="13000.00000" pt_clust_6="13000.00000" pt_clust_7="13000.00000" pt_clust_8="13000.00000" pt_clust_9="69.68715"></scales>
<clustering>
<clus scale="   69.687">  2  9  1 -1</clus>
<clus scale="   79.256">  5  6 -1 -1</clus>
<clus scale="   85.737">  1  5  2 -1</clus>
<clus scale="   91.065">  7  8 -1 -1</clus>
<clus scale="   69.687">  2  5  1 -1</clus>
</clustering>
</event>
<event>
 9    1  0.1487426E-004  0.1675739E+03  0.7546771E-02  0.1211215E+00
         -2   -1    0    0    0  501 -0.00000000000E+00  0.00000000000E+00  0.85843235973E+02  0.85843235973E+02  0.00000000000E+00 0.  1.
         21   -1    0    0  501  502  0.00000000000E+00 -0.00000000000E+00 -0.46847747513E+03  0.46847747513E+03  0.00000000000E+00 0.  1.
        -24    2    1    2    0    0  0.19652511478E+02 -0.18790635496E+02 -0.59767091084E+02  0.10423136789E+03  0.80949142591E+02 0.  0.
         23    2    1    2    0    0 -0.32453881939E+02 -0.12924220473E+03 -0.19849480811E+03  0.25632124517E+03  0.92431541933E+02 0.  0.
         13    1    3    3    0    0  0.90813382145E+01  0.18502620606E+02 -0.62067850681E+02  0.65400579211E+02  0.00000000000E+00 0. -1.
        -14    1    3    3    0    0  0.10571173263E+02 -0.37293256102E+02  0.23007595962E+01  0.38830788681E+02  0.00000000000E+00 0.  1.
        -11    1    4    4    0    0 -0.21783369015E+01 -0.13046368838E+03 -0.14685452251E+03  0.19644788093E+03  0.00000000000E+00 0.  1.
         11    1    4    4    0    0 -0.30275545037E+02  0.12214836538E+01 -0.51640285599E+02  0.59873364248E+02  0.00000000000E+00 0. -1.
         -1    1    1    2    0  502  0.12801370461E+02  0.14803284022E+03 -0.12437233996E+03  0.19376809804E+03  0.00000000000E+00 0.  1.
<scales pt_clust_5="13000.00000" pt_clust_6="13000.00000" pt_clust_7="13000.00000" pt_clust_8="13000.00000" pt_clust_9="139.77646"></scales>
<clustering>
<clus scale="   80.949">  5  6 -1 -1</clus>
<clus scale="   85.394">  1  5  2 -1</clus>
<clus scale="   92.432">  7  8 -1 -1</clus>
<clus scale="  139.776">  2  9  1 -1</clus>
<clus scale="  139.776">  2  5  1 -1</clus>
</clustering>
</event>
<event>
 9    1  0.1487426E-004  0.1248218E+03  0.7546771E-02  0.1238916E+00
         -2   -1    0    0    0  501 -0.00000000000E+00  0.00000000000E+00  0.14229041099E+03  0.14229041099E+03  0.00000000000E+00 0.  1.
         21   -1    0    0  501  502  0.00000000000E+00 -0.00000000000E+00 -0.19376896455E+03  0.19376896455E+03  0.00000000000E+00 0. -1.
        -24    2    1    2    0    0  0.10481954096E+03 -0.51538523354E+02  0.96398843293E+01  0.14193599359E+03  0.80059623718E+02 0.  0.
         23    2    1    2    0    0 -0.46614006508E+02 -0.56304347049E+00 -0.51153722532E+02  0.11537217207E+03  0.92308461897E+02 0.  0.
         13    1    3    3    0    0  0.11721040176E+03 -0.43439728646E+02  0.15615088794E+02  0.12597269269E+03  0.00000000000E+00 0. -1.
        -14    1    3    3    0    0 -0.12390860802E+02 -0.80987947082E+01 -0.59752044650E+01  0.15963300898E+02  0.00000000000E+00 0.  1.
        -11    1    4    4    0    0  0.22994449338E+02  0.13448910668E+02  0.19442558850E+01  0.26709511966E+02  0.00000000000E+00 0.  1.
         11    1    4    4    0    0 -0.69608455846E+02 -0.14011954139E+02 -0.53097978417E+02  0.88662660100E+02  0.00000000000E+00 0. -1.
         -1    1    1    2    0  502 -0.58205534452E+02  0.52101566825E+02 -0.99647153547E+01  0.78751209886E+02  0.00000000000E+00 0.  1.
<scales pt_clust_5="13000.00000" pt_clust_6="13000.00000" pt_clust_7="13000.00000" pt_clust_8="13000.00000" pt_clust_9="78.11827"></scales>
<clustering>
<clus scale="   78.118">  2  9  1 -1</clus>
<clus scale="   80.060">  5  6 -1 -1</clus>
<clus scale="   92.308">  7  8 -1 -1</clus>
<clus scale="  116.057">  1  5  2 -1</clus>
<clus scale="   78.118">  2  5  1 -1</clus>
</clustering>
</event>
<event>
 9    1  0.1487426E-004  0.9357406E+02  0.7546771E-02  0.1301456E+00
         -4   -1    0    0    0  501 -0.00000000000E+00  0.00000000000E+00  0.45233781678E+02  0.45233781678E+02  0.00000000000E+00 0.  1.
         21   -1    0    0  501  502  0.00000000000E+00 -0.00000000000E+00 -0.33650723489E+03  0.33650723489E+03  0.00000000000E+00 0.  1.
         23    2    1    2    0    0 -0.62527167396E+00 -0.50704174549E+02 -0.10935208357E+03  0.15093513993E+03  0.90841807572E+02 0.  0.
        -24    2    1    2    0    0  0.57582201794E+01 -0.82439889143E+01 -0.12790561797E+03  0.15068762301E+03  0.79030324350E+02 0.  0.
         13    1    4    4    0    0  0.28038476113E+02 -0.84917249823E+01 -0.12479777964E+03  0.12819029346E+03  0.00000000000E+00 0. -1.
        -14    1    4    4    0    0 -0.22280255933E+02  0.24773606803E+00 -0.31078383345E+01  0.22497329547E+02  0.00000000000E+00 0.  1.
        -13    1    3    3    0    0  0.33416421670E+02 -0.32384322096E+02 -0.10125801090E+03  0.11143871108E+03  0.00000000000E+00 0.  1.
         13    1    3    3    0    0 -0.34041693344E+02 -0.18319852454E+02 -0.80940726670E+01  0.39496428851E+02  0.00000000000E+00 0. -1.
         -3    1    1    2    0  502 -0.51329485054E+01  0.58948163464E+02 -0.54015751673E+02  0.80118253631E+02  0.00000000000E+00 0.  1.
<scales pt_clust_5="13000.00000" pt_clust_6="13000.00000" pt_clust_7="13000.00000" pt_clust_8="13000.00000" pt_clust_9="59.17125"></scales>
<clustering>
<clus scale="   59.171">  2  9  1 -1</clus>
<clus scale="   79.030">  5  6 -1 -1</clus>
<clus scale="   82.156">  2  5  1 -1</clus>
<clus scale="   90.842">  7  8 -1 -1</clus>
<clus scale="   59.171">  2  5  1 -1</clus>
</clustering>
</event>
<event>
 9    1  0.1487426E-004  0.9102432E+02  0.7546771E-02  0.1306782E+00
          1   -1    0    0  502    0 -0.00000000000E+00  0.00000000000E+00  0.62577463120E+03  0.62577463120E+03  0.00000000000E+00 0. -1.
         21   -1    0    0  501  502  0.00000000000E+00 -0.00000000000E+00 -0.70022794206E+02  0.70022794206E+02  0.00000000000E+00 0.  1.
        -24    2    1    2    0    0  0.51727390783E+01 -0.95625136879E+01  0.55057444893E+03  0.55645931248E+03  0.79978395409E+02 0.  0.
         23    2    1    2    0    0 -0.27411665579E+01  0.34812524228E+02  0.32556275484E+02  0.10201413867E+03  0.90152912196E+02 0.  0.
         11    1    3    3    0    0  0.27459181861E+02 -0.35831799297E+02  0.26544795618E+03  0.26925924672E+03  0.00000000000E+00 0. -1.
        -12    1    3    3    0    0 -0.22286442783E+02  0.26269285609E+02  0.28512649276E+03  0.28720006576E+03  0.00000000000E+00 0.  1.
        -13    1    4    4    0    0 -0.38997793264E+02  0.90711688239E+01 -0.91271824708E+01  0.41066037588E+02  0.00000000000E+00 0.  1.
         13    1    4    4    0    0  0.36256626706E+02  0.25741355404E+02  0.41683457955E+02  0.60948101079E+02  0.00000000000E+00 0. -1.
          2    1    1    2  501    0 -0.24315725204E+01 -0.25250010540E+02 -0.27378887427E+02  0.37323974252E+02  0.00000000000E+00 0. -1.
<scales pt_clust_5="13000.00000" pt_clust_6="13000.00000" pt_clust_7="13000.00000" pt_clust_8="13000.00000" pt_clust_9="25.36682"></scales>
<clustering>
<clus scale="   25.367">  2  9  1 -1</clus>
<clus scale="   79.978">  5  6 -1 -1</clus>
<clus scale="   80.959">  1  5  2 -1</clus>
<clus scale="   90.153">  7  8 -1 -1</clus>
<clus scale="   25.367">  2  5  1 -1</clus>
</clustering>
</event>
<event>
 9    1  0.1487426E-004  0.1744595E+03  0.7546771E-02  0.1192840E+00
          1   -1    0    0  502    0 -0.00000000000E+00  0.00000000000E+00  0.11023078449E+04  0.11023078449E+04  0.00000000000E+00 0. -1.
         21   -1    0    0  501  502  0.00000000000E+00 -0.00000000000E+00 -0.61702951488E+02  0.61702951488E+02  0.00000000000E+00 0. -1.
        -24    2    1    2    0    0  0.76173510364E+02 -0.16637130515E+02  0.63903946233E+02  0.12950425438E+03  0.81292310618E+02 0.  0.
         23    2    1    2    0    0 -0.70881831629E+02  0.15779377777E+03  0.64285401158E+03  0.67200553878E+03  0.91689986310E+02 0.  0.
         11    1    3    3    0    0  0.81442660931E+02  0.12877331611E+02  0.50255629779E+02  0.96562730975E+02  0.00000000000E+00 0. -1.
        -12    1    3    3    0    0 -0.52691505668E+01 -0.29514462125E+02  0.13648316454E+02  0.32941523405E+02  0.00000000000E+00 0.  1.
        -13    1    4    4    0    0 -0.19391142203E+01  0.39194639005E+02  0.50395741463E+02  0.63872612663E+02  0.00000000000E+00 0.  1.
         13    1    4    4    0    0 -0.68942717409E+02  0.11859913877E+03  0.59245827012E+03  0.60813292612E+03  0.00000000000E+00 0. -1.
          2    1    1    2  501    0 -0.52916787345E+01 -0.14115664726E+03  0.33384693555E+03  0.36250100318E+03  0.00000000000E+00 0. -1.
<scales pt_clust_5="13000.00000" pt_clust_6="13000.00000" pt_clust_7="13000.00000" pt_clust_8="13000.00000" pt_clust_9="148.42189"></scales>
<clustering>
<clus scale="   81.292">  5  6 -1 -1</clus>
<clus scale="   91.690">  7  8 -1 -1</clus>
<clus scale="  112.639">  1  5  2 -1</clus>
<clus scale="  148.422">  2  9  1 -1</clus>
<clus scale="  148.422">  2  5  1 -1</clus>
</clustering>
</event>
<event>
 9    1  0.1487426E-004  0.1409479E+03  0.7546771E-02  0.1223032E+00
          1   -1    0    0  502    0 -0.00000000000E+00  0.00000000000E+00  0.73182214282E+03  0.73182214282E+03  0.00000000000E+00 0. -1.
         21   -1    0    0  501  502  0.00000000000E+00 -0.00000000000E+00 -0.60027168249E+02  0.60027168249E+02  0.00000000000E+00 0.  1.
        -24    2    1    2    0    0 -0.59335543755E+02  0.50778634227E+02  0.72611938537E+02  0.13334133175E+03  0.80051487731E+02 0.  0.
         23    2    1    2    0    0  0.73032036481E+02  0.66469238919E+02  0.44145404287E+03  0.46149759138E+03  0.91359273267E+02 0.  0.
         13    1    3    3    0    0 -0.58943280957E+02  0.37778296469E+01  0.61034467870E+02  0.84934025190E+02  0.00000000000E+00 0. -1.
        -14    1    3    3    0    0 -0.39226279759E+00  0.47000804580E+02  0.11577470668E+02  0.48407306559E+02  0.00000000000E+00 0.  1.
        -13    1    4    4    0    0  0.56969034335E+02 -0.73184938845E+01  0.22632117681E+03  0.23349583786E+03  0.00000000000E+00 0.  1.
         13    1    4    4    0    0  0.16063002146E+02  0.73787732804E+02  0.21513286606E+03  0.22800175352E+03  0.00000000000E+00 0. -1.
          2    1    1    2  501    0 -0.13696492727E+02 -0.11724787315E+03  0.15772899316E+03  0.19701038794E+03  0.00000000000E+00 0. -1.
<scales pt_clust_5="13000.00000" pt_clust_6="13000.00000" pt_clust_7="13000.00000" pt_clust_8="13000.00000" pt_clust_9="107.33025"></scales>
<clustering>
<clus scale="   80.051">  5  6 -1 -1</clus>
<clus scale="   91.359">  7  8 -1 -1</clus>
<clus scale="  111.837">  1  5  2 -1</clus>
<clus scale="  107.330">  2  9  1 -1</clus>
<clus scale="  107.330">  2  5  1 -1</clus>
</clustering>
</event>
<event>
 9    1  0.1487426E-004  0.1132208E+03  0.7546771E-02  0.1257027E+00
          1   -1    0    0  502    0 -0.00000000000E+00  0.00000000000E+00  0.11127926265E+03  0.11127926265E+03  0.00000000000E+00 0. -1.
         21   -1    0    0  501  502  0.00000000000E+00 -0.00000000000E+00 -0.38218494338E+03  0.38218494338E+03  0.00000000000E+00 0.  1.
        -24    2    1    2    0    0  0.75209218485E+02 -0.22516290835E+02  0.20560204116E+02  0.11373164045E+03  0.79679069705E+02 0.  0.
         23    2    1    2    0    0 -0.56049814576E+02 -0.62156112486E+02 -0.26158223013E+03  0.28792008570E+03  0.86416136196E+02 0.  0.
         11    1    3    3    0    0  0.55548045293E+02  0.23014178385E+02  0.21698568391E+00  0.60127238631E+02  0.00000000000E+00 0. -1.
        -12    1    3    3    0    0  0.19661173192E+02 -0.45530469220E+02  0.20343218432E+02  0.53604401823E+02  0.00000000000E+00 0.  1.
        -11    1    4    4    0    0 -0.18428464712E+02 -0.74522549388E+02 -0.13514996386E+03  0.15543079299E+03  0.00000000000E+00 0. -1.
         11    1    4    4    0    0 -0.37621349864E+02  0.12366436902E+02 -0.12643226628E+03  0.13248929271E+03  0.00000000000E+00 0.  1.
          2    1    1    2  501    0 -0.19159403909E+02  0.84672403321E+02 -0.29883654712E+02  0.91812479877E+02  0.00000000000E+00 0. -1.
<scales pt_clust_5="13000.00000" pt_clust_6="13000.00000" pt_clust_7="13000.00000" pt_clust_8="13000.00000" pt_clust_9="86.81305"></scales>
<clustering>
<clus scale="   79.679">  5  6 -1 -1</clus>
<clus scale="   86.416">  7  8 -1 -1</clus>
<clus scale="   86.813">  2  9  1 -1</clus>
<clus scale="  108.166">  1  5  2 -1</clus>
<clus scale="   86.813">  2  5  1 -1</clus>
</clustering>
</event>
<event>
 9    1  0.1487426E-004  0.1410863E+03  0.7546771E-02  0.1214256E+00
         21   -1    0    0  501  502  0.00000000000E+00  0.00000000000E+00  0.32561159098E+02  0.32561159098E+02  0.00000000000E+00 0.  1.
          1   -1    0    0  502    0 -0.00000000000E+00 -0.00000000000E+00 -0.15994887411E+04  0.15994887411E+04  0.00000000000E+00 0. -1.
        -24    2    1    2    0    0  0.98903535721E+01 -0.10524759149E+03 -0.53855076579E+03  0.55469816058E+03  0.80487560595E+02 0.  0.
         23    2    1    2    0    0 -0.10779533406E+03  0.88854544607E+02 -0.31000010391E+03  0.35214885906E+03  0.91617631328E+02 0.  0.
         11    1    3    3    0    0  0.24354448391E+02  0.82908316755E+00 -0.71647993037E+02  0.75678672303E+02  0.00000000000E+00 0. -1.
        -12    1    3    3    0    0 -0.14464094819E+02 -0.10607667466E+03 -0.46690277275E+03  0.47901948828E+03  0.00000000000E+00 0.  1.
        -13    1    4    4    0    0 -0.57732711115E+02  0.39402076936E+02 -0.25027110352E+03  0.25984844594E+03  0.00000000000E+00 0. -1.
         13    1    4    4    0    0 -0.50062622945E+02  0.49452467672E+02 -0.59729000395E+02  0.92300413126E+02  0.00000000000E+00 0.  1.
          2    1    1    2  501    0  0.97904980488E+02  0.16393046886E+02 -0.71837671230E+03  0.72520288056E+03  0.00000000000E+00 0. -1.
<scales pt_clust_5="13000.00000" pt_clust_6="13000.00000" pt_clust_7="13000.00000" pt_clust_8="13000.00000" pt_clust_9="99.26796"></scales>
<clustering>
<clus scale="   80.488">  5  6 -1 -1</clus>
<clus scale="   91.618">  7  8 -1 -1</clus>
<clus scale="   99.268">  1  9  2 -1</clus>
<clus scale="  134.126">  2  5  1 -1</clus>
<clus scale="   99.268">  1  5  2 -1</clus>
</clustering>
</event>
<event>
 9    1  0.1487426E-004  0.2664356E+03  0.7546771E-02  0.1103812E+00
          1   -1    0    0  502    0 -0.00000000000E+00  0.00000000000E+00  0.69510711062E+03  0.69510711062E+03  0.00000000000E+00 0. -1.
         21   -1    0    0  501  502  0.00000000000E+00 -0.00000000000E+00 -0.14936062785E+03  0.14936062785E+03  0.00000000000E+00 0. -1.
         23    2    1    2    0    0 -0.68582242136E+02 -0.24908074804E+03  0.34127612449E+03  0.43762918016E+03  0.91132668132E+02 0.  0.
        -24    2    1    2    0    0  0.29332379919E+02  0.23394720165E+03  0.60146026475E+02  0.25650862561E+03  0.81163100247E+02 0.  0.
         11    1    4    4    0    0  0.10869691353E+02  0.20218424495E+03  0.76299496939E+02  0.21637521191E+03  0.00000000000E+00 0. -1.
        -12    1    4    4    0    0  0.18462688566E+02  0.31762956701E+02 -0.16153470464E+02  0.40133413704E+02  0.00000000000E+00 0.  1.
        -11    1    3    3    0    0  0.11201166344E+02 -0.73324349819E+02  0.14196788016E+03  0.16017741851E+03  0.00000000000E+00 0.  1.
         11    1    3    3    0    0 -0.79783408480E+02 -0.17575639822E+03  0.19930824433E+03  0.27745176165E+03  0.00000000000E+00 0. -1.
          2    1    1    2  501    0  0.39249862217E+02  0.15133546390E+02  0.14432433181E+03  0.15032993269E+03  0.00000000000E+00 0. -1.
<scales pt_clust_5="13000.00000" pt_clust_6="13000.00000" pt_clust_7="13000.00000" pt_clust_8="13000.00000" pt_clust_9="42.06635"></scales>
<clustering>
<clus scale="   42.066">  2  9  1 -1</clus>
<clus scale="   81.163">  5  6 -1 -1</clus>
<clus scale="   91.133">  7  8 -1 -1</clus>
<clus scale="  263.192">  2  5  1 -1</clus>
<clus scale="   42.066">  2  5  1 -1</clus>
</clustering>
</event>
<event>
 9    1  0.2126909E-004  0.1007696E+03  0.7546771E-02  0.1286837E+00
          1   -1    0    0  502    0 -0.00000000000E+00  0.00000000000E+00  0.26011233782E+03  0.26011233782E+03  0.00000000000E+00 0. -1.
         21   -1    0    0  501  502  0.00000000000E+00 -0.00000000000E+00 -0.19326431746E+03  0.19326431746E+03  0.00000000000E+00 0.  1.
        -24    2    1    2    0    0  0.29697051629E+02 -0.13933809700E+01  0.22417726181E+03  0.24003022805E+03  0.80468685089E+02 0.  0.
         23    2    1    2    0    0 -0.60473188601E+02 -0.25450560956E+00 -0.12294604420E+03  0.16717186292E+03  0.95779072111E+02 0.  0.
         13    1    3    3    0    0  0.48258823040E+02  0.24344775088E+02  0.14100162701E+03  0.15100675777E+03  0.00000000000E+00 0. -1.
        -14    1    3    3    0    0 -0.18561771410E+02 -0.25738156058E+02  0.83175634802E+02  0.89023470275E+02  0.00000000000E+00 0.  1.
        -13    1    4    4    0    0  0.24474098696E+02 -0.10109119519E+02 -0.19117378708E+02  0.32659607669E+02  0.00000000000E+00 0. -1.
         13    1    4    4    0    0 -0.84947287297E+02  0.98546139098E+01 -0.10382866549E+03  0.13451225525E+03  0.00000000000E+00 0.  1.
          2    1    1    2  501    0  0.30776136972E+02  0.16478865796E+01 -0.34383197240E+02  0.46174564314E+02  0.00000000000E+00 0. -1.
<scales pt_clust_5="13000.00000" pt_clust_6="13000.00000" pt_clust_7="13000.00000" pt_clust_8="13000.00000" pt_clust_9="30.82022"></scales>
<clustering>
<clus scale="   30.820">  2  9  1 -1</clus>
<clus scale="   80.469">  5  6 -1 -1</clus>
<clus scale="   86.349">  1  5  2 -1</clus>
<clus scale="   95.779">  7  8 -1 -1</clus>
<clus scale="   30.820">  2  5  1 -1</clus>
</clustering>
</event>
<event>
 9    1  0.1487426E-004  0.1064274E+03  0.7546771E-02  0.1272170E+00
         21   -1    0    0  501  502  0.00000000000E+00  0.00000000000E+00  0.34815552058E+03  0.34815552058E+03  0.00000000000E+00 0.  1.
          1   -1    0    0  502    0 -0.00000000000E+00 -0.00000000000E+00 -0.78031326734E+02  0.78031326734E+02  0.00000000000E+00 0. -1.
        -24    2    1    2    0    0  0.42596618749E+01  0.40780895054E+02  0.28583018420E+02  0.92850420158E+02  0.78249507735E+02 0.  0.
         23    2    1    2    0    0  0.42458034321E+02 -0.10825078190E+03  0.16774678499E+03  0.22297184575E+03  0.89758251213E+02 0.  0.
         11    1    3    3    0    0  0.14859949601E+02  0.54977017202E+02 -0.25743177404E+01  0.57008048856E+02  0.00000000000E+00 0. -1.
        -12    1    3    3    0    0 -0.10600287726E+02 -0.14196122148E+02  0.31157336161E+02  0.35842371302E+02  0.00000000000E+00 0.  1.
        -13    1    4    4    0    0 -0.19530845789E+02 -0.10438144347E+02  0.63169372683E+02  0.66938616955E+02  0.00000000000E+00 0. -1.
         13    1    4    4    0    0  0.61988880110E+02 -0.97812637557E+02  0.10457741231E+03  0.15603322880E+03  0.00000000000E+00 0.  1.
          2    1    1    2  501    0 -0.46717696196E+02  0.67469886850E+02  0.73794390433E+02  0.11036458141E+03  0.00000000000E+00 0. -1.
<scales pt_clust_5="13000.00000" pt_clust_6="13000.00000" pt_clust_7="13000.00000" pt_clust_8="13000.00000" pt_clust_9="82.06539"></scales>
<clustering>
<clus scale="   78.250">  5  6 -1 -1</clus>
<clus scale="   82.065">  1  9  2 -1</clus>
<clus scale="   89.758">  7  8 -1 -1</clus>
<clus scale="   96.919">  2  5  1 -1</clus>
<clus scale="   82.065">  1  5  2 -1</clus>
</clustering>
</event>
<event>
 9    1  0.1487426E-004  0.1071952E+03  0.7546771E-02  0.1271426E+00
         21   -1    0    0  501  502  0.00000000000E+00  0.00000000000E+00  0.56026601500E+02  0.56026601500E+02  0.00000000000E+00 0.  1.
          1   -1    0    0  502    0 -0.00000000000E+00 -0.00000000000E+00 -0.34798479817E+03  0.34798479817E+03  0.00000000000E+00 0. -1.
        -24    2    1    2    0    0  0.43791358932E+02  0.56584254795E+02 -0.98017018547E+02  0.14456678112E+03  0.78566896786E+02 0.  0.
         23    2    1    2    0    0 -0.23544100859E+02 -0.25527852303E+02 -0.48545886788E+02  0.10939715160E+03  0.91678992830E+02 0.  0.
         13    1    3    3    0    0  0.57479122216E+02  0.11099400122E+02 -0.58756570111E+02  0.82942032198E+02  0.00000000000E+00 0. -1.
        -14    1    3    3    0    0 -0.13687763285E+02  0.45484854672E+02 -0.39260448435E+02  0.61624748921E+02  0.00000000000E+00 0.  1.
        -13    1    4    4    0    0 -0.84973842208E+01  0.34253894862E+02 -0.99596644829E+01  0.36670557242E+02  0.00000000000E+00 0. -1.
         13    1    4    4    0    0 -0.15046716638E+02 -0.59781747164E+02 -0.38586222306E+02  0.72726594362E+02  0.00000000000E+00 0.  1.
          2    1    1    2  501    0 -0.20247258073E+02 -0.31056402492E+02 -0.14539529133E+03  0.15004746695E+03  0.00000000000E+00 0. -1.
<scales pt_clust_5="13000.00000" pt_clust_6="13000.00000" pt_clust_7="13000.00000" pt_clust_8="13000.00000" pt_clust_9="37.07362"></scales>
<clustering>
<clus scale="   37.074">  1  9  2 -1</clus>
<clus scale="   78.567">  5  6 -1 -1</clus>
<clus scale="   91.679">  7  8 -1 -1</clus>
<clus scale="   96.221">  2  5  1 -1</clus>
<clus scale="   37.074">  1  5  2 -1</clus>
</clustering>
</event>
<event>
 9    1  0.1487426E-004  0.9404691E+02  0.7546771E-02  0.1301208E+00
          1   -1    0    0  502    0 -0.00000000000E+00  0.00000000000E+00  0.15958500436E+03  0.15958500436E+03  0.00000000000E+00 0. -1.
         21   -1    0    0  501  502  0.00000000000E+00 -0.00000000000E+00 -0.86298941734E+02  0.86298941734E+02  0.00000000000E+00 0.  1.
         23    2    1    2    0    0  0.22068862950E+02  0.37256399338E+02  0.54946393209E+02  0.11418208157E+03  0.90240609608E+02 0.  0.
        -24    2    1    2    0    0  0.14573545415E+02 -0.85967703959E+01 -0.65005996963E+01  0.78965924295E+02  0.76857444117E+02 0.  0.
         13    1    4    4    0    0 -0.27565553461E+02 -0.12893348570E+02  0.12041623745E+02  0.32727646988E+02  0.00000000000E+00 0. -1.
        -14    1    4    4    0    0  0.42139098877E+02  0.42965781739E+01 -0.18542223442E+02  0.46238277307E+02  0.00000000000E+00 0.  1.
        -11    1    3    3    0    0 -0.20953364493E+02  0.24576447000E+02 -0.11269198716E+02  0.34205848483E+02  0.00000000000E+00 0.  1.
         11    1    3    3    0    0  0.43022227442E+02  0.12679952338E+02  0.66215591925E+02  0.79976233091E+02  0.00000000000E+00 0. -1.
          2    1    1    2  501    0 -0.36642408365E+02 -0.28659628943E+02  0.24840269115E+02  0.52735940227E+02  0.00000000000E+00 0. -1.
<scales pt_clust_5="13000.00000" pt_clust_6="13000.00000" pt_clust_7="13000.00000" pt_clust_8="13000.00000" pt_clust_9="46.51927"></scales>
<clustering>
<clus scale="   46.519">  2  9  1 -1</clus>
<clus scale="   76.857">  5  6 -1 -1</clus>
<clus scale="   81.293">  2  5  1 -1</clus>
<clus scale="   90.241">  7  8 -1 -1</clus>
<clus scale="   46.519">  2  5  1 -1</clus>
</clustering>
</event>
<event>
 9    1  0.1487426E-004  0.2059994E+03  0.7546771E-02  0.1146028E+00
         -2   -1    0    0    0  501 -0.00000000000E+00  0.00000000000E+00  0.13313361803E+03  0.13313361803E+03  0.00000000000E+00 0.  1.
         21   -1    0    0  501  502  0.00000000000E+00 -0.00000000000E+00 -0.51467475507E+03  0.51467475507E+03  0.00000000000E+00 0.  1.
        -24    2    1    2    0    0  0.14356606432E+03 -0.32518769304E+01 -0.14394876823E+03  0.21743398430E+03  0.77035706826E+02 0.  0.
         23    2    1    2    0    0 -0.22366397394E+03  0.59462971736E+02 -0.11692995510E+03  0.27502066213E+03  0.91664234861E+02 0.  0.
         11    1    3    3    0    0  0.80017953042E+02  0.27248512334E+02 -0.44472258232E+02  0.95515108677E+02  0.00000000000E+00 0. -1.
        -12    1    3    3    0    0  0.63548111281E+02 -0.30500389264E+02 -0.99476509994E+02  0.12191887562E+03  0.00000000000E+00 0.  1.
        -11    1    4    4    0    0 -0.12972308825E+03  0.46960145523E+02 -0.19900806430E+02  0.13938930013E+03  0.00000000000E+00 0.  1.
         11    1    4    4    0    0 -0.93940885688E+02  0.12502826213E+02 -0.97029148673E+02  0.13563136200E+03  0.00000000000E+00 0. -1.
         -1    1    1    2    0  502  0.80097909617E+02 -0.56211094806E+02 -0.12066241371E+03  0.15535372666E+03  0.00000000000E+00 0.  1.
<scales pt_clust_5="13000.00000" pt_clust_6="13000.00000" pt_clust_7="13000.00000" pt_clust_8="13000.00000" pt_clust_9="97.85378"></scales>
<clustering>
<clus scale="   77.036">  5  6 -1 -1</clus>
<clus scale="   91.664">  7  8 -1 -1</clus>
<clus scale="   97.854">  2  9  1 -1</clus>
<clus scale="  199.920">  1  5  2 -1</clus>
<clus scale="   97.854">  2  5  1 -1</clus>
</clustering>
</event>
<event>
 9    1  0.1487426E-004  0.9394201E+02  0.7546771E-02  0.1299844E+00
         -2   -1    0    0    0  501 -0.00000000000E+00  0.00000000000E+00  0.60025544537E+03  0.60025544537E+03  0.00000000000E+00 0.  1.
         21   -1    0    0  501  502  0.00000000000E+00 -0.00000000000E+00 -0.28262948870E+02  0.28262948870E+02  0.00000000000E+00 0. -1.
         23    2    1    2    0    0 -0.23822426806E+02  0.27780634624E+02  0.17387371996E+03  0.19991702832E+03  0.91626830357E+02 0.  0.
        -24    2    1    2    0    0  0.11706378504E+02  0.84652129379E+01  0.10705478505E+03  0.13503909444E+03  0.81031666019E+02 0.  0.
         11    1    4    4    0    0 -0.31761586037E+02 -0.62527778452E+01  0.24541824117E+02  0.40622613276E+02  0.00000000000E+00 0. -1.
        -12    1    4    4    0    0  0.43467964540E+02  0.14717990783E+02  0.82512960929E+02  0.94416481164E+02  0.00000000000E+00 0.  1.
        -11    1    3    3    0    0 -0.31752265550E+02  0.52497717159E+02  0.71081047935E+02  0.93897454970E+02  0.00000000000E+00 0.  1.
         11    1    3    3    0    0  0.79298387441E+01 -0.24717082535E+02  0.10279267202E+03  0.10601957335E+03  0.00000000000E+00 0. -1.
         -1    1    1    2    0  502  0.12116048302E+02 -0.36245847561E+02  0.29106399150E+03  0.29356227148E+03  0.00000000000E+00 0.  1.
<scales pt_clust_5="13000.00000" pt_clust_6="13000.00000" pt_clust_7="13000.00000" pt_clust_8="13000.00000" pt_clust_9="38.21729"></scales>
<clustering>
<clus scale="   38.217">  2  9  1 -1</clus>
<clus scale="   81.032">  5  6 -1 -1</clus>
<clus scale="   83.641">  2  5  1 -1</clus>
<clus scale="   91.627">  7  8 -1 -1</clus>
<clus scale="   38.217">  2  5  1 -1</clus>
</clustering>
</event>
<event>
 9    1  0.1487426E-004  0.1359031E+03  0.7546771E-02  0.1220846E+00
          1   -1    0    0  502    0 -0.00000000000E+00  0.00000000000E+00  0.70706511024E+03  0.70706511024E+03  0.00000000000E+00 0. -1.
         21   -1    0    0  501  502  0.00000000000E+00 -0.00000000000E+00 -0.57473099448E+02  0.57473099448E+02  0.00000000000E+00 0. -1.
         23    2    1    2    0    0  0.19623120829E+02  0.11472485601E+03  0.53888142373E+03  0.55864124039E+03  0.90221877472E+02 0.  0.
        -24    2    1    2    0    0  0.21572155249E+02 -0.66045761581E+02  0.85406067410E+02  0.13728921667E+03  0.82016657812E+02 0.  0.
         13    1    4    4    0    0  0.33403942564E+02  0.64616556661E+01  0.27236609353E+02  0.43582212676E+02  0.00000000000E+00 0. -1.
        -14    1    4    4    0    0 -0.11831787314E+02 -0.72507417247E+02  0.58169458058E+02  0.93707003994E+02  0.00000000000E+00 0.  1.
        -11    1    3    3    0    0  0.50558576549E+02  0.38672705686E+02  0.19647287741E+03  0.20652684907E+03  0.00000000000E+00 0.  1.
         11    1    3    3    0    0 -0.30935455720E+02  0.76052150322E+02  0.34240854632E+03  0.35211439133E+03  0.00000000000E+00 0. -1.
          2    1    1    2  501    0 -0.41195276078E+02 -0.48679094427E+02  0.25304519659E+02  0.68607752627E+02  0.00000000000E+00 0. -1.
<scales pt_clust_5="13000.00000" pt_clust_6="13000.00000" pt_clust_7="13000.00000" pt_clust_8="13000.00000" pt_clust_9="63.77072"></scales>
<clustering>
<clus scale="   63.771">  2  9  1 -1</clus>
<clus scale="   82.017">  5  6 -1 -1</clus>
<clus scale="   90.222">  7  8 -1 -1</clus>
<clus scale="  130.600">  2  5  1 -1</clus>
<clus scale="   63.771">  2  5  1 -1</clus>
</clustering>
</event>
<event>
 9    1  0.1487426E-004  0.1300012E+03  0.7546771E-02  0.1231517E+00
         -2   -1    0    0    0  501 -0.00000000000E+00  0.00000000000E+00  0.67861234811E+02  0.67861234811E+02  0.00000000000E+00 0.  1.
         21   -1    0    0  501  502  0.00000000000E+00 -0.00000000000E+00 -0.30950613911E+03  0.30950613911E+03  0.00000000000E+00 0. -1.
         23    2    1    2    0    0  0.18820689048E+02  0.76899762063E+02 -0.68956894796E+02  0.14236046222E+03  0.96143934403E+02 0.  0.
        -24    2    1    2    0    0 -0.39304570541E+02 -0.91638805318E+02 -0.11738975716E+03  0.17422265791E+03  0.81428861813E+02 0.  0.
         11    1    4    4    0    0 -0.63782740719E+02 -0.77843023264E+02 -0.92157526567E+02  0.13645799349E+03  0.00000000000E+00 0. -1.
        -12    1    4    4    0    0  0.24478170177E+02 -0.13795782054E+02 -0.25232230592E+02  0.37764664415E+02  0.00000000000E+00 0.  1.
        -13    1    3    3    0    0  0.39802203829E+02 -0.41647785157E+01 -0.29946569245E+02  0.49983575495E+02  0.00000000000E+00 0. -1.
         13    1    3    3    0    0 -0.20981514780E+02  0.81064540579E+02 -0.39010325551E+02  0.92376886727E+02  0.00000000000E+00 0.  1.
         -1    1    1    2    0  502  0.20483881493E+02  0.14739043255E+02 -0.55298252340E+02  0.60784253791E+02  0.00000000000E+00 0.  1.
<scales pt_clust_5="13000.00000" pt_clust_6="13000.00000" pt_clust_7="13000.00000" pt_clust_8="13000.00000" pt_clust_9="25.23547"></scales>
<clustering>
<clus scale="   25.235">  2  9  1 -1</clus>
<clus scale="   81.429">  5  6 -1 -1</clus>
<clus scale="   96.144">  7  8 -1 -1</clus>
<clus scale="  119.530">  2  5  1 -1</clus>
<clus scale="   25.235">  2  5  1 -1</clus>
</clustering>
</event>
<event>
 9    1  0.1487426E-004  0.1108268E+03  0.7546771E-02  0.1262487E+00
         21   -1    0    0  501  502  0.00000000000E+00  0.00000000000E+00  0.66854324890E+02  0.66854324890E+02  0.00000000000E+00 0.  1.
          1   -1    0    0  502    0 -0.00000000000E+00 -0.00000000000E+00 -0.50482427640E+03  0.50482427640E+03  0.00000000000E+00 0. -1.
         23    2    1    2    0    0  0.14949575312E+02  0.63442387510E+02 -0.43434299552E+03  0.44866094882E+03  0.91620865024E+02 0.  0.
        -24    2    1    2    0    0 -0.61114660323E+01 -0.40954837423E+02  0.13386084227E+02  0.93466922829E+02  0.82717771288E+02 0.  0.
         13    1    4    4    0    0 -0.29026029431E+02 -0.29586425862E+02 -0.24205588415E+02  0.47997682135E+02  0.00000000000E+00 0. -1.
        -14    1    4    4    0    0  0.22914563399E+02 -0.11368411561E+02  0.37591672643E+02  0.45469240694E+02  0.00000000000E+00 0.  1.
        -13    1    3    3    0    0 -0.33968928106E+02  0.49624671908E+01 -0.99775439105E+02  0.10551612391E+03  0.00000000000E+00 0.  1.
         13    1    3    3    0    0  0.48918503418E+02  0.58479920319E+02 -0.33456755641E+03  0.34314482491E+03  0.00000000000E+00 0. -1.
          2    1    1    2  501    0 -0.88381092796E+01 -0.22487550087E+02 -0.17013040215E+02  0.29550729634E+02  0.00000000000E+00 0. -1.
<scales pt_clust_5="13000.00000" pt_clust_6="13000.00000" pt_clust_7="13000.00000" pt_clust_8="13000.00000" pt_clust_9="24.16200"></scales>
<clustering>
<clus scale="   24.162">  1  9  2 -1</clus>
<clus scale="   82.718">  5  6 -1 -1</clus>
<clus scale="   91.621">  7  8 -1 -1</clus>
<clus scale="  103.588">  1  5  2 -1</clus>
<clus scale="   24.162">  1  5  2 -1</clus>
</clustering>
</event>
<event>
 9    1  0.1487426E-004  0.1032107E+03  0.7546771E-02  0.1278315E+00
         21   -1    0    0  501  502  0.00000000000E+00  0.00000000000E+00  0.11726989616E+03  0.11726989616E+03  0.00000000000E+00 0. -1.
          1   -1    0    0  502    0 -0.00000000000E+00 -0.00000000000E+00 -0.23235041276E+03  0.23235041276E+03  0.00000000000E+00 0. -1.
        -24    2    1    2    0    0  0.66843397728E+01 -0.53495812850E+02 -0.11193469023E+03  0.14803560236E+03  0.80490262128E+02 0.  0.
         23    2    1    2    0    0 -0.14507077502E+02  0.23683680733E+02  0.72878501215E+02  0.11955022093E+03  0.90606883598E+02 0.  0.
         13    1    3    3    0    0  0.29318951641E+02 -0.63024798619E+02 -0.65512858125E+02  0.95517855640E+02  0.00000000000E+00 0. -1.
        -14    1    3    3    0    0 -0.22634611868E+02  0.95289857691E+01 -0.46421832108E+02  0.52517746720E+02  0.00000000000E+00 0.  1.
        -13    1    4    4    0    0  0.14393092646E+02 -0.26158903081E+02  0.45970630113E+01  0.30208977385E+02  0.00000000000E+00 0.  1.
         13    1    4    4    0    0 -0.28900170147E+02  0.49842583813E+02  0.68281438203E+02  0.89341243549E+02  0.00000000000E+00 0. -1.
          2    1    1    2  501    0  0.78227377287E+01  0.29812132117E+02 -0.76024327584E+02  0.82034485624E+02  0.00000000000E+00 0. -1.
<scales pt_clust_5="13000.00000" pt_clust_6="13000.00000" pt_clust_7="13000.00000" pt_clust_8="13000.00000" pt_clust_9="30.82141"></scales>
<clustering>
<clus scale="   30.821">  1  9  2 -1</clus>
<clus scale="   80.490">  5  6 -1 -1</clus>
<clus scale="   90.607">  7  8 -1 -1</clus>
<clus scale="   94.454">  2  5  1 -1</clus>
<clus scale="   30.821">  1  5  2 -1</clus>
</clustering>
</event>
<event>
 9    1  0.1487426E-004  0.1368447E+03  0.7546771E-02  0.1220011E+00
          1   -1    0    0  502    0 -0.00000000000E+00  0.00000000000E+00  0.46038179162E+03  0.46038179162E+03  0.00000000000E+00 0. -1.
         21   -1    0    0  501  502  0.00000000000E+00 -0.00000000000E+00 -0.63706656805E+02  0.63706656805E+02  0.00000000000E+00 0. -1.
        -24    2    1    2    0    0  0.82948658831E+02 -0.55719631821E+02  0.18559190556E+03  0.22469211607E+03  0.77826950614E+02 0.  0.
         23    2    1    2    0    0 -0.57898681803E+02  0.10043249414E+03  0.19901471542E+03  0.24674283834E+03  0.88522472199E+02 0.  0.
         11    1    3    3    0    0  0.93738898078E+02 -0.58997022002E+02  0.14441035955E+03  0.18199445476E+03  0.00000000000E+00 0. -1.
        -12    1    3    3    0    0 -0.10790239247E+02  0.32773901808E+01  0.41181546015E+02  0.42697661313E+02  0.00000000000E+00 0.  1.
        -13    1    4    4    0    0 -0.24143473289E+02  0.57294433882E+02  0.29921137758E+02  0.68998796664E+02  0.00000000000E+00 0. -1.
         13    1    4    4    0    0 -0.33755208513E+02  0.43138060257E+02  0.16909357766E+03  0.17774404167E+03  0.00000000000E+00 0.  1.
          2    1    1    2  501    0 -0.25049977029E+02 -0.44712862318E+02  0.12068513831E+02  0.52653494014E+02  0.00000000000E+00 0. -1.
<scales pt_clust_5="13000.00000" pt_clust_6="13000.00000" pt_clust_7="13000.00000" pt_clust_8="13000.00000" pt_clust_9="51.25175"></scales>
<clustering>
<clus scale="   51.252">  2  9  1 -1</clus>
<clus scale="   77.827">  5  6 -1 -1</clus>
<clus scale="   88.522">  7  8 -1 -1</clus>
<clus scale="  130.182">  1  5  2 -1</clus>
<clus scale="   51.252">  2  5  1 -1</clus>
</clustering>
</event>
<event>
 9    1  0.1487426E-004  0.1040855E+03  0.7546771E-02  0.1276992E+00
         21   -1    0    0  501  502  0.00000000000E+00  0.00000000000E+00  0.56331000770E+03  0.56331000770E+03  0.00000000000E+00 0.  1.
          1   -1    0    0  502    0 -0.00000000000E+00 -0.00000000000E+00 -0.64958449830E+02  0.64958449830E+02  0.00000000000E+00 0. -1.
         23    2    1    2    0    0 -0.32471613000E+02  0.30529692546E+02  0.93726894238E+02  0.13818792264E+03  0.91239813030E+02 0.  0.
        -24    2    1    2    0    0  0.88635631346E+02  0.61891524588E+01  0.40570632171E+03  0.42296987614E+03  0.80070693080E+02 0.  0.
         13    1    4    4    0    0  0.10024371595E+03 -0.20051334013E+01  0.29996300843E+03  0.31627619192E+03  0.00000000000E+00 0. -1.
        -14    1    4    4    0    0 -0.11608084601E+02  0.81942858601E+01  0.10574331328E+03  0.10669368422E+03  0.00000000000E+00 0.  1.
        -11    1    3    3    0    0  0.94124549375E+01  0.48173150131E+02  0.73638256896E+02  0.88497681214E+02  0.00000000000E+00 0.  1.
         11    1    3    3    0    0 -0.41884067937E+02 -0.17643457585E+02  0.20088637342E+02  0.49690241424E+02  0.00000000000E+00 0. -1.
          2    1    1    2  501    0 -0.56164018346E+02 -0.36718845005E+02 -0.10816580730E+01  0.67110658762E+02  0.00000000000E+00 0. -1.
<scales pt_clust_5="13000.00000" pt_clust_6="13000.00000" pt_clust_7="13000.00000" pt_clust_8="13000.00000" pt_clust_9="67.10197"></scales>
<clustering>
<clus scale="   67.102">  1  9  2 -1</clus>
<clus scale="   80.071">  5  6 -1 -1</clus>
<clus scale="   91.240">  7  8 -1 -1</clus>
<clus scale="   94.448">  1  5  2 -1</clus>
<clus scale="   67.102">  1  5  2 -1</clus>
</clustering>
</event>
<event>
 9    1  0.1610420E-004  0.1093349E+03  0.7546771E-02  0.1266677E+00
         21   -1    0    0  501  502  0.00000000000E+00  0.00000000000E+00  0.52799736226E+03  0.52799736226E+03  0.00000000000E+00 0. -1.
          1   -1    0    0  502    0 -0.00000000000E+00 -0.00000000000E+00 -0.17999615483E+03  0.17999615483E+03  0.00000000000E+00 0. -1.
         23    2    1    2    0    0 -0.51723766170E+01 -0.57755547639E+02 -0.33142822849E+02  0.11449665187E+03  0.92997740946E+02 0.  0.
        -24    2    1    2    0    0 -0.81893735297E+02  0.54134859306E+02  0.45918686980E+03  0.47651694375E+03  0.81108873824E+02 0.  0.
         11    1    4    4    0    0 -0.63679304642E+02  0.32027686666E+01  0.15573122087E+03  0.16827811717E+03  0.00000000000E+00 0. -1.
        -12    1    4    4    0    0 -0.18214430655E+02  0.50932090639E+02  0.30345564893E+03  0.30823882658E+03  0.00000000000E+00 0.  1.
        -11    1    3    3    0    0  0.18774428992E+02 -0.54858685475E+02  0.15658447703E+02  0.60059483352E+02  0.00000000000E+00 0. -1.
         11    1    3    3    0    0 -0.23946805609E+02 -0.28968621640E+01 -0.48801270552E+02  0.54437168522E+02  0.00000000000E+00 0.  1.
          2    1    1    2  501    0  0.87066111914E+02  0.36206883335E+01 -0.78042839510E+02  0.11697992147E+03  0.00000000000E+00 0. -1.
<scales pt_clust_5="13000.00000" pt_clust_6="13000.00000" pt_clust_7="13000.00000" pt_clust_8="13000.00000" pt_clust_9="87.14141"></scales>
<clustering>
<clus scale="   81.109">  5  6 -1 -1</clus>
<clus scale="   87.141">  1  9  2 -1</clus>
<clus scale="   92.998">  7  8 -1 -1</clus>
<clus scale="   99.419">  1  5  2 -1</clus>
<clus scale="   87.141">  1  5  2 -1</clus>
</clustering>
</event>
<event>
 9    1  0.1487426E-004  0.9150268E+02  0.7546771E-02  0.1304228E+00
          1   -1    0    0  502    0 -0.00000000000E+00  0.00000000000E+00  0.81222434316E+02  0.81222434316E+02  0.00000000000E+00 0. -1.
         21   -1    0    0  501  502  0.00000000000E+00 -0.00000000000E+00 -0.24177950545E+03  0.24177950545E+03  0.00000000000E+00 0. -1.
         23    2    1    2    0    0 -0.55391527619E+01 -0.21400845619E+02  0.25112845413E+02  0.96569510829E+02  0.90588834911E+02 0.  0.
        -24    2    1    2    0    0 -0.52148577602E+01 -0.21469413971E+02 -0.12236063074E+03  0.14922120197E+03  0.82502804109E+02 0.  0.
         13    1    4    4    0    0 -0.22194141189E+02  0.11523876452E+02 -0.10557285553E+03  0.10849427384E+03  0.00000000000E+00 0. -1.
        -14    1    4    4    0    0  0.16979283429E+02 -0.32993290423E+02 -0.16787775210E+02  0.40726928134E+02  0.00000000000E+00 0.  1.
        -11    1    3    3    0    0 -0.94527183097E+01 -0.51995721299E+02  0.35905734281E+02  0.63891553989E+02  0.00000000000E+00 0. -1.
         11    1    3    3    0    0  0.39135655478E+01  0.30594875680E+02 -0.10792888868E+02  0.32677956840E+02  0.00000000000E+00 0.  1.
          2    1    1    2  501    0  0.10754010522E+02  0.42870259590E+02 -0.63309285811E+02  0.77211226965E+02  0.00000000000E+00 0. -1.
<scales pt_clust_5="13000.00000" pt_clust_6="13000.00000" pt_clust_7="13000.00000" pt_clust_8="13000.00000" pt_clust_9="44.19851"></scales>
<clustering>
<clus scale="   44.199">  2  9  1 -1</clus>
<clus scale="   82.503">  5  6 -1 -1</clus>
<clus scale="   83.505">  2  5  1 -1</clus>
<clus scale="   90.589">  7  8 -1 -1</clus>
<clus scale="   44.199">  2  5  1 -1</clus>
</clustering>
</event>
<event>
 9    1  0.1487426E-004  0.1088112E+03  0.7546771E-02  0.1265881E+00
         21   -1    0    0  501  502  0.00000000000E+00  0.00000000000E+00  0.12848406968E+03  0.12848406968E+03  0.00000000000E+00 0.  1.
         -2   -1    0    0    0  501 -0.00000000000E+00 -0.00000000000E+00 -0.28648602573E+03  0.28648602573E+03  0.00000000000E+00 0.  1.
         23    2    1    2    0    0 -0.21143305438E+02 -0.23679753686E+02 -0.10145349752E+03  0.13939270835E+03  0.90165097916E+02 0.  0.
        -24    2    1    2    0    0  0.68924916968E+02  0.98845406585E+02 -0.99547483794E+02  0.17667403044E+03  0.82358684556E+02 0.  0.
         13    1    4    4    0    0 -0.89579093063E+01  0.21947142087E+02  0.61814028218E+01  0.24497569793E+02  0.00000000000E+00 0. -1.
        -14    1    4    4    0    0  0.77882826274E+02  0.76898264498E+02 -0.10572888662E+03  0.15217646065E+03  0.00000000000E+00 0.  1.
        -13    1    3    3    0    0 -0.46334463058E+02 -0.15667633083E+02 -0.10181656064E+03  0.11295560727E+03  0.00000000000E+00 0. -1.
         13    1    3    3    0    0  0.25191157620E+02 -0.80121206037E+01  0.36306311554E+00  0.26437101082E+02  0.00000000000E+00 0.  1.
         -1    1    1    2    0  502 -0.47781611530E+02 -0.75165652899E+02  0.42999025264E+02  0.98903356615E+02  0.00000000000E+00 0.  1.
<scales pt_clust_5="13000.00000" pt_clust_6="13000.00000" pt_clust_7="13000.00000" pt_clust_8="13000.00000" pt_clust_9="89.06715"></scales>
<clustering>
<clus scale="   82.359">  5  6 -1 -1</clus>
<clus scale="   89.067">  1  9  2 -1</clus>
<clus scale="   90.165">  7  8 -1 -1</clus>
<clus scale="  102.436">  1  5  2 -1</clus>
<clus scale="   89.067">  1  5  2 -1</clus>
</clustering>
</event>
<event>
 9    1  0.1487426E-004  0.9385849E+02  0.7546771E-02  0.1298900E+00
         21   -1    0    0  501  502  0.00000000000E+00  0.00000000000E+00  0.45240743044E+02  0.45240743044E+02  0.00000000000E+00 0.  1.
          1   -1    0    0  502    0 -0.00000000000E+00 -0.00000000000E+00 -0.41360122575E+03  0.41360122575E+03  0.00000000000E+00 0. -1.
         23    2    1    2    0    0  0.31536472126E+02 -0.10282467047E+02 -0.31272659030E+03  0.32675636008E+03  0.88721589114E+02 0.  0.
        -24    2    1    2    0    0 -0.78159274440E+01  0.33349259444E+02 -0.40781864363E+02  0.95818214419E+02  0.79653674908E+02 0.  0.
         13    1    4    4    0    0 -0.38074476432E+02  0.36516849859E+02 -0.12360410251E+02  0.54184184231E+02  0.00000000000E+00 0. -1.
        -14    1    4    4    0    0  0.30258548988E+02 -0.31675904157E+01 -0.28421454111E+02  0.41634030188E+02  0.00000000000E+00 0.  1.
        -13    1    3    3    0    0  0.98635687393E+01 -0.48592209953E+02 -0.19046425783E+03  0.19681241416E+03  0.00000000000E+00 0.  1.
         13    1    3    3    0    0  0.21672903387E+02  0.38309742906E+02 -0.12226233247E+03  0.12994394593E+03  0.00000000000E+00 0. -1.
          2    1    1    2  501    0 -0.23720544682E+02 -0.23066792396E+02 -0.14852028046E+02  0.36267394289E+02  0.00000000000E+00 0. -1.
<scales pt_clust_5="13000.00000" pt_clust_6="13000.00000" pt_clust_7="13000.00000" pt_clust_8="13000.00000" pt_clust_9="33.08687"></scales>
<clustering>
<clus scale="   33.087">  1  9  2 -1</clus>
<clus scale="   79.654">  5  6 -1 -1</clus>
<clus scale="   85.338">  1  5  2 -1</clus>
<clus scale="   88.722">  7  8 -1 -1</clus>
<clus scale="   33.087">  1  5  2 -1</clus>
</clustering>
</event>
<event>
 9    1  0.1487426E-004  0.9890053E+02  0.7546771E-02  0.1291130E+00
         21   -1    0    0  501  502  0.00000000000E+00  0.00000000000E+00  0.25365369803E+02  0.25365369803E+02  0.00000000000E+00 0.  1.
         -4   -1    0    0    0  501 -0.00000000000E+00 -0.00000000000E+00 -0.76147798172E+03  0.76147798172E+03  0.00000000000E+00 0.  1.
        -24    2    1    2    0    0 -0.43093425286E+02 -0.17192360138E+02 -0.45519291947E+03  0.46372832135E+03  0.75437003807E+02 0.  0.
         23    2    1    2    0    0 -0.48123599571E+01  0.12082991348E+02 -0.10117671788E+03  0.13702739808E+03  0.91491103914E+02 0.  0.
         13    1    3    3    0    0  0.12212806837E+02 -0.27984989403E+02 -0.11952149605E+03  0.12336004338E+03  0.00000000000E+00 0. -1.
        -14    1    3    3    0    0 -0.55306232122E+02  0.10792629265E+02 -0.33567142341E+03  0.34036827798E+03  0.00000000000E+00 0.  1.
        -13    1    4    4    0    0 -0.38184978187E+02  0.91900540708E+01 -0.10935145381E+02  0.40769192505E+02  0.00000000000E+00 0.  1.
         13    1    4    4    0    0  0.33372618230E+02  0.28929372775E+01 -0.90241572498E+02  0.96258205575E+02  0.00000000000E+00 0. -1.
         -3    1    1    2    0  502  0.47905785243E+02  0.51093687895E+01 -0.17974297457E+03  0.18608763208E+03  0.00000000000E+00 0.  1.
<scales pt_clust_5="13000.00000" pt_clust_6="13000.00000" pt_clust_7="13000.00000" pt_clust_8="13000.00000" pt_clust_9="48.17751"></scales>
<clustering>
<clus scale="   48.178">  1  9  2 -1</clus>
<clus scale="   75.437">  5  6 -1 -1</clus>
<clus scale="   84.270">  2  5  1 -1</clus>
<clus scale="   91.491">  7  8 -1 -1</clus>
<clus scale="   48.178">  1  5  2 -1</clus>
</clustering>
</event>
<event>
 9    1  0.1487426E-004  0.9919696E+02  0.7546771E-02  0.1288309E+00
          1   -1    0    0  502    0 -0.00000000000E+00  0.00000000000E+00  0.81874335953E+03  0.81874335953E+03  0.00000000000E+00 0. -1.
         21   -1    0    0  501  502  0.00000000000E+00 -0.00000000000E+00 -0.33080826092E+02  0.33080826092E+02  0.00000000000E+00 0. -1.
        -24    2    1    2    0    0 -0.26043403662E+02  0.28532574450E+02  0.63541325104E+03  0.64186646283E+03  0.82159538876E+02 0.  0.
         23    2    1    2    0    0 -0.17157701256E+02 -0.12685495208E+01  0.98272812970E+02  0.13707963352E+03  0.94006830748E+02 0.  0.
         13    1    3    3    0    0 -0.27979384619E+02 -0.14285637099E+02  0.10186300425E+03  0.10659735938E+03  0.00000000000E+00 0. -1.
        -14    1    3    3    0    0  0.19359809569E+01  0.42818211549E+02  0.53355024678E+03  0.53526910345E+03  0.00000000000E+00 0.  1.
        -13    1    4    4    0    0 -0.30288303565E+01 -0.47044050680E+02  0.41602797029E+02  0.62873756356E+02  0.00000000000E+00 0.  1.
         13    1    4    4    0    0 -0.14128870900E+02  0.45775501159E+02  0.56670015941E+02  0.74205877166E+02  0.00000000000E+00 0. -1.
          2    1    1    2  501    0  0.43201104918E+02 -0.27264024929E+02  0.51976469428E+02  0.72878089270E+02  0.00000000000E+00 0. -1.
<scales pt_clust_5="13000.00000" pt_clust_6="13000.00000" pt_clust_7="13000.00000" pt_clust_8="13000.00000" pt_clust_9="51.08486"></scales>
<clustering>
<clus scale="   51.085">  2  9  1 -1</clus>
<clus scale="   82.160">  5  6 -1 -1</clus>
<clus scale="   88.051">  1  5  2 -1</clus>
<clus scale="   94.007">  7  8 -1 -1</clus>
<clus scale="   51.085">  2  5  1 -1</clus>
</clustering>
</event>
<event>
 9    1  0.1487426E-004  0.2396522E+03  0.7546771E-02  0.1130382E+00
         -4   -1    0    0    0  501 -0.00000000000E+00  0.00000000000E+00  0.30913961446E+03  0.30913961446E+03  0.00000000000E+00 0.  1.
         21   -1    0    0  501  502  0.00000000000E+00 -0.00000000000E+00 -0.93600834133E+03  0.93600834133E+03  0.00000000000E+00 0.  1.
         23    2    1    2    0    0 -0.12473104273E+03 -0.10206928520E+03 -0.17645840433E+03  0.25596030272E+03  0.91663166582E+02 0.  0.
        -24    2    1    2    0    0  0.14484782358E+03 -0.12913730454E+03  0.20514971746E+03  0.29375962800E+03  0.80938106286E+02 0.  0.
         13    1    4    4    0    0  0.83886211791E+02 -0.46112248232E+02  0.51275703877E+02  0.10859297295E+03  0.00000000000E+00 0. -1.
        -14    1    4    4    0    0  0.60961611788E+02 -0.83025056313E+02  0.15387401359E+03  0.18516665506E+03  0.00000000000E+00 0.  1.
        -11    1    3    3    0    0 -0.80574409175E+02 -0.11277981712E+03 -0.14566527486E+03  0.20107186493E+03  0.00000000000E+00 0.  1.
         11    1    3    3    0    0 -0.44156633553E+02  0.10710531923E+02 -0.30793129465E+02  0.54888437790E+02  0.00000000000E+00 0. -1.
         -3    1    1    2    0  502 -0.20116780852E+02  0.23120658974E+03 -0.65556004000E+03  0.69542802508E+03  0.00000000000E+00 0.  1.
<scales pt_clust_5="13000.00000" pt_clust_6="13000.00000" pt_clust_7="13000.00000" pt_clust_8="13000.00000" pt_clust_9="225.57088"></scales>
<clustering>
<clus scale="   80.938">  5  6 -1 -1</clus>
<clus scale="   91.663">  7  8 -1 -1</clus>
<clus scale="  185.413">  1  7  2 -1</clus>
<clus scale="  225.571">  2  9  1 -1</clus>
<clus scale="  225.571">  2  5  1 -1</clus>
</clustering>
</event>
<event>
 9    1  0.1487426E-004  0.9954981E+02  0.7546771E-02  0.1287142E+00
         21   -1    0    0  501  502  0.00000000000E+00  0.00000000000E+00  0.30549373248E+03  0.30549373248E+03  0.00000000000E+00 0.  1.
          1   -1    0    0  502    0 -0.00000000000E+00 -0.00000000000E+00 -0.16031374056E+03  0.16031374056E+03  0.00000000000E+00 0. -1.
         23    2    1    2    0    0 -0.40099457594E+02  0.16227431672E+02 -0.31717209575E+02  0.10604862161E+03  0.91482417563E+02 0.  0.
        -24    2    1    2    0    0 -0.62688965286E+01 -0.39084374979E+02  0.25271536194E+03  0.26799362069E+03  0.79928963059E+02 0.  0.
         13    1    4    4    0    0  0.15311462809E+02 -0.20165216557E+02  0.16907392784E+02  0.30445636517E+02  0.00000000000E+00 0. -1.
        -14    1    4    4    0    0 -0.21580359338E+02 -0.18919158423E+02  0.23580796916E+03  0.23754798417E+03  0.00000000000E+00 0.  1.
        -11    1    3    3    0    0 -0.36546205487E+02 -0.10856331211E+02  0.23259525672E+02  0.44659720077E+02  0.00000000000E+00 0. -1.
         11    1    3    3    0    0 -0.35532521073E+01  0.27083762883E+02 -0.54976735247E+02  0.61388901528E+02  0.00000000000E+00 0.  1.
          2    1    1    2  501    0  0.46368354123E+02  0.22856943307E+02 -0.75818160443E+02  0.91765230749E+02  0.00000000000E+00 0. -1.
<scales pt_clust_5="13000.00000" pt_clust_6="13000.00000" pt_clust_7="13000.00000" pt_clust_8="13000.00000" pt_clust_9="51.69591"></scales>
<clustering>
<clus scale="   51.696">  1  9  2 -1</clus>
<clus scale="   79.929">  5  6 -1 -1</clus>
<clus scale="   89.049">  1  5  2 -1</clus>
<clus scale="   91.482">  7  8 -1 -1</clus>
<clus scale="   51.696">  1  5  2 -1</clus>
</clustering>
</event>
<event>
 9    1  0.1487426E-004  0.1445840E+03  0.7546771E-02  0.1208421E+00
          1   -1    0    0  502    0 -0.00000000000E+00  0.00000000000E+00  0.49864688643E+03  0.49864688643E+03  0.00000000000E+00 0. -1.
         21   -1    0    0  501  502  0.00000000000E+00 -0.00000000000E+00 -0.11588660356E+03  0.11588660356E+03  0.00000000000E+00 0. -1.
         23    2    1    2    0    0  0.92443239001E+02  0.49930041327E+02  0.16485175723E+03  0.21390117211E+03  0.86826540322E+02 0.  0.
        -24    2    1    2    0    0 -0.10872253800E+03 -0.11500474581E+03  0.54530478011E+01  0.17783855045E+03  0.80932888668E+02 0.  0.
         13    1    4    4    0    0 -0.23431628478E+02 -0.83668831149E+02  0.30674765422E+01  0.86942072274E+02  0.00000000000E+00 0. -1.
        -14    1    4    4    0    0 -0.85290909522E+02 -0.31335914662E+02  0.23855712589E+01  0.90896478178E+02  0.00000000000E+00 0.  1.
        -13    1    3    3    0    0  0.39838182571E+02 -0.21460782628E+02  0.75442318850E+02  0.87972663112E+02  0.00000000000E+00 0. -1.
         13    1    3    3    0    0  0.52605056430E+02  0.71390823955E+02  0.89409438383E+02  0.12592850900E+03  0.00000000000E+00 0.  1.
          2    1    1    2  501    0  0.16279298999E+02  0.65074704485E+02  0.21245547784E+03  0.22279376742E+03  0.00000000000E+00 0. -1.
<scales pt_clust_5="13000.00000" pt_clust_6="13000.00000" pt_clust_7="13000.00000" pt_clust_8="13000.00000" pt_clust_9="67.08008"></scales>
<clustering>
<clus scale="   67.080">  2  9  1 -1</clus>
<clus scale="   80.933">  5  6 -1 -1</clus>
<clus scale="   86.827">  7  8 -1 -1</clus>
<clus scale="  141.123">  2  5  1 -1</clus>
<clus scale="   67.080">  2  5  1 -1</clus>
</clustering>
</event>
<event>
 9    1  0.1487426E-004  0.1076642E+03  0.7546771E-02  0.1268668E+00
          1   -1    0    0  502    0 -0.00000000000E+00  0.00000000000E+00  0.18907976348E+03  0.18907976348E+03  0.00000000000E+00 0. -1.
         21   -1    0    0  501  502  0.00000000000E+00 -0.00000000000E+00 -0.16815716758E+03  0.16815716758E+03  0.00000000000E+00 0. -1.
         23    2    1    2    0    0 -0.51934737591E+02 -0.35349598846E+02  0.91361883367E+02  0.14355752890E+03  0.91186398455E+02 0.  0.
        -24    2    1    2    0    0  0.59441129569E+02 -0.40722199529E+02 -0.81622810087E+02  0.13642439840E+03  0.82205765812E+02 0.  0.
         13    1    4    4    0    0  0.22229251636E+02 -0.47369242349E+02 -0.83540561604E+02  0.98574896308E+02  0.00000000000E+00 0. -1.
        -14    1    4    4    0    0  0.37211877934E+02  0.66470428196E+01  0.19177515167E+01  0.37849502090E+02  0.00000000000E+00 0.  1.
        -11    1    3    3    0    0 -0.17494820687E+02  0.13657200187E+02 -0.11143394922E+02  0.24834715988E+02  0.00000000000E+00 0.  1.
         11    1    3    3    0    0 -0.34439916904E+02 -0.49006799033E+02  0.10250527829E+03  0.11872281291E+03  0.00000000000E+00 0. -1.
          2    1    1    2  501    0 -0.75063919788E+01  0.76071798375E+02  0.11183522619E+02  0.77255003765E+02  0.00000000000E+00 0. -1.
<scales pt_clust_5="13000.00000" pt_clust_6="13000.00000" pt_clust_7="13000.00000" pt_clust_8="13000.00000" pt_clust_9="76.44129"></scales>
<clustering>
<clus scale="   76.441">  2  9  1 -1</clus>
<clus scale="   82.206">  5  6 -1 -1</clus>
<clus scale="   91.186">  7  8 -1 -1</clus>
<clus scale="  100.172">  2  5  1 -1</clus>
<clus scale="   76.441">  2  5  1 -1</clus>
</clustering>
</event>
<event>
 9    1  0.1487426E-004  0.1062139E+03  0.7546771E-02  0.1272555E+00
         21   -1    0    0  501  502  0.00000000000E+00  0.00000000000E+00  0.32799655320E+03  0.32799655320E+03  0.00000000000E+00 0.  1.
          1   -1    0    0  502    0 -0.00000000000E+00 -0.00000000000E+00 -0.12078553504E+03  0.12078553504E+03  0.00000000000E+00 0. -1.
        -24    2    1    2    0    0  0.42616945476E+02  0.28204930355E+02 -0.71719399850E+02  0.11994168072E+03  0.81428571901E+02 0.  0.
         23    2    1    2    0    0 -0.23061014589E+02 -0.76010243598E+02  0.20835546772E+03  0.24138409833E+03  0.92438706569E+02 0.  0.
         11    1    3    3    0    0  0.48376635152E+02  0.84883900182E+01 -0.83047536838E+02  0.96484428633E+02  0.00000000000E+00 0. -1.
        -12    1    3    3    0    0 -0.57596896765E+01  0.19716540337E+02  0.11328136988E+02  0.23457252090E+02  0.00000000000E+00 0.  1.
        -11    1    4    4    0    0 -0.66855338831E+01 -0.20085776213E+02 -0.36802705960E+01  0.21486720575E+02  0.00000000000E+00 0. -1.
         11    1    4    4    0    0 -0.16375480706E+02 -0.55924467385E+02  0.21203573831E+03  0.21989737775E+03  0.00000000000E+00 0.  1.
          2    1    1    2  501    0 -0.19555930886E+02  0.47805313243E+02  0.70574950293E+02  0.87456309184E+02  0.00000000000E+00 0. -1.
<scales pt_clust_5="13000.00000" pt_clust_6="13000.00000" pt_clust_7="13000.00000" pt_clust_8="13000.00000" pt_clust_9="51.65058"></scales>
<clustering>
<clus scale="   51.651">  1  9  2 -1</clus>
<clus scale="   81.429">  5  6 -1 -1</clus>
<clus scale="   92.439">  7  8 -1 -1</clus>
<clus scale="   96.784">  2  5  1 -1</clus>
<clus scale="   51.651">  1  5  2 -1</clus>
</clustering>
</event>
<event>
 9    1  0.1487426E-004  0.1482625E+03  0.7546771E-02  0.1223257E+00
         21   -1    0    0  501  502  0.00000000000E+00  0.00000000000E+00  0.37796422636E+02  0.37796422636E+02  0.00000000000E+00 0. -1.
          1   -1    0    0  502    0 -0.00000000000E+00 -0.00000000000E+00 -0.10421963551E+04  0.10421963551E+04  0.00000000000E+00 0. -1.
         23    2    1    2    0    0  0.11013529839E+02 -0.21439919122E+02 -0.42007959233E+03  0.43082864447E+03  0.92549927207E+02 0.  0.
        -24    2    1    2    0    0  0.99650337121E+02  0.77321123525E+02 -0.23521933409E+03  0.27870399659E+03  0.80243608775E+02 0.  0.
         11    1    4    4    0    0  0.75719558923E+02  0.85950159656E+02 -0.22251871656E+03  0.25027077490E+03  0.00000000000E+00 0. -1.
        -12    1    4    4    0    0  0.23930778197E+02 -0.86290361307E+01 -0.12700617531E+02  0.28433221684E+02  0.00000000000E+00 0.  1.
        -11    1    3    3    0    0 -0.40275329622E+02 -0.17825035653E+02 -0.20695625593E+03  0.21159094012E+03  0.00000000000E+00 0. -1.
         11    1    3    3    0    0  0.51288859461E+02 -0.36148834695E+01 -0.21312333640E+03  0.21923770434E+03  0.00000000000E+00 0.  1.
          2    1    1    2  501    0 -0.11066386696E+03 -0.55881204403E+02 -0.34910100600E+03  0.37046013665E+03  0.00000000000E+00 0. -1.
<scales pt_clust_5="13000.00000" pt_clust_6="13000.00000" pt_clust_7="13000.00000" pt_clust_8="13000.00000" pt_clust_9="124.67060"></scales>
<clustering>
<clus scale="   80.244">  5  6 -1 -1</clus>
<clus scale="   92.550">  7  8 -1 -1</clus>
<clus scale="   95.637">  2  7  1 -1</clus>
<clus scale="  124.671">  1  9  2 -1</clus>
<clus scale="  124.671">  1  5  2 -1</clus>
</clustering>
</event>
<event>
 9    1  0.1487426E-004  0.2534474E+03  0.7546771E-02  0.1152887E+00
         21   -1    0    0  501  502  0.00000000000E+00  0.00000000000E+00  0.15082924213E+03  0.15082924213E+03  0.00000000000E+00 0. -1.
          1   -1    0    0  502    0 -0.00000000000E+00 -0.00000000000E+00 -0.88462742750E+03  0.88462742750E+03  0.00000000000E+00 0. -1.
        -24    2    1    2    0    0  0.23532494572E+02 -0.44997573862E+02 -0.18845577569E+03  0.20937669013E+03  0.75792209526E+02 0.  0.
         23    2    1    2    0    0 -0.16414538632E+03  0.18458819304E+03 -0.18944240473E+02  0.26362770701E+03  0.90134204382E+02 0.  0.
         11    1    3    3    0    0 -0.25939355354E+01 -0.39982538301E+02 -0.33711248640E+02  0.52362010613E+02  0.00000000000E+00 0. -1.
        -12    1    3    3    0    0  0.26126430108E+02 -0.50150355603E+01 -0.15474452705E+03  0.15701467952E+03  0.00000000000E+00 0.  1.
        -13    1    4    4    0    0 -0.10357640562E+03  0.49389158420E+02 -0.10833064326E+02  0.11525934259E+03  0.00000000000E+00 0. -1.
         13    1    4    4    0    0 -0.60568980698E+02  0.13519903462E+03 -0.81111761468E+01  0.14836836443E+03  0.00000000000E+00 0.  1.
          2    1    1    2  501    0  0.14061289175E+03 -0.13959061918E+03 -0.52639816920E+03  0.56245227248E+03  0.00000000000E+00 0. -1.
<scales pt_clust_5="13000.00000" pt_clust_6="13000.00000" pt_clust_7="13000.00000" pt_clust_8="13000.00000" pt_clust_9="236.87857"></scales>
<clustering>
<clus scale="   75.792">  5  6 -1 -1</clus>
<clus scale="   90.134">  7  8 -1 -1</clus>
<clus scale="   91.231">  2  5  1 -1</clus>
<clus scale="  236.879">  1  9  2 -1</clus>
<clus scale="  236.879">  1  5  2 -1</clus>
</clustering>
</event>
<event>
 9    1  0.1487426E-004  0.9468920E+02  0.7546771E-02  0.1296464E+00
         21   -1    0    0  501  502  0.00000000000E+00  0.00000000000E+00  0.84286566597E+02  0.84286566597E+02  0.00000000000E+00 0.  1.
          1   -1    0    0  502    0 -0.00000000000E+00 -0.00000000000E+00 -0.38480800880E+03  0.38480800880E+03  0.00000000000E+00 0. -1.
        -24    2    1    2    0    0 -0.22966081604E+02 -0.12488832672E+02 -0.31912189195E+03  0.33092386860E+03  0.83596728655E+02 0.  0.
         23    2    1    2    0    0  0.12337740306E+02 -0.24869013107E+02  0.24653551605E+02  0.98861543458E+02  0.91624884826E+02 0.  0.
         11    1    3    3    0    0 -0.52749482748E+02 -0.91513734959E+01 -0.15241263891E+03  0.16154215569E+03  0.00000000000E+00 0. -1.
        -12    1    3    3    0    0  0.29783401144E+02 -0.33374591762E+01 -0.16670925305E+03  0.16938171291E+03  0.00000000000E+00 0.  1.
        -13    1    4    4    0    0 -0.29975472041E+02  0.16807563246E+02  0.18826422733E+02  0.39184911628E+02  0.00000000000E+00 0. -1.
         13    1    4    4    0    0  0.42313212347E+02 -0.41676576354E+02  0.58271288721E+01  0.59676631830E+02  0.00000000000E+00 0.  1.
          2    1    1    2  501    0  0.10628341298E+02  0.37357845780E+02 -0.60531018531E+01  0.39309163335E+02  0.00000000000E+00 0. -1.
<scales pt_clust_5="13000.00000" pt_clust_6="13000.00000" pt_clust_7="13000.00000" pt_clust_8="13000.00000" pt_clust_9="38.84032"></scales>
<clustering>
<clus scale="   38.840">  1  9  2 -1</clus>
<clus scale="   83.597">  5  6 -1 -1</clus>
<clus scale="   86.944">  2  5  1 -1</clus>
<clus scale="   91.625">  7  8 -1 -1</clus>
<clus scale="   38.840">  1  5  2 -1</clus>
</clustering>
</event>
<event>
 9    1  0.1487426E-004  0.3444355E+03  0.7546771E-02  0.1105141E+00
         21   -1    0    0  501  502  0.00000000000E+00  0.00000000000E+00  0.10474576262E+03  0.10474576262E+03  0.00000000000E+00 0.  1.
          1   -1    0    0  502    0 -0.00000000000E+00 -0.00000000000E+00 -0.21669172753E+04  0.21669172753E+04  0.00000000000E+00 0. -1.
         23    2    1    2    0    0 -0.73003104767E+02  0.24617860983E+02 -0.42712134129E+02  0.12523483515E+03  0.89016544233E+02 0.  0.
        -24    2    1    2    0    0 -0.14623276721E+03  0.28002687497E+03 -0.65947423809E+03  0.73560136543E+03  0.80025153642E+02 0.  0.
         13    1    4    4    0    0 -0.39329003859E+02  0.27489480687E+02 -0.14302062449E+03  0.15085536491E+03  0.00000000000E+00 0. -1.
        -14    1    4    4    0    0 -0.10690376336E+03  0.25253739428E+03 -0.51645361360E+03  0.58474600053E+03  0.00000000000E+00 0.  1.
        -11    1    3    3    0    0  0.18357414701E+02  0.17949876801E+02 -0.13962425222E+02  0.29225709055E+02  0.00000000000E+00 0.  1.
         11    1    3    3    0    0 -0.91360519468E+02  0.66679841822E+01 -0.28749708907E+02  0.96009126091E+02  0.00000000000E+00 0. -1.
          2    1    1    2  501    0  0.21923587198E+03 -0.30464473595E+03 -0.13599851404E+04  0.14108268373E+04  0.00000000000E+00 0. -1.
<scales pt_clust_5="13000.00000" pt_clust_6="13000.00000" pt_clust_7="13000.00000" pt_clust_8="13000.00000" pt_clust_9="335.01035"></scales>
<clustering>
<clus scale="   80.025">  5  6 -1 -1</clus>
<clus scale="   89.017">  7  8 -1 -1</clus>
<clus scale="  117.726">  2  7  1 -1</clus>
<clus scale="  335.010">  1  9  2 -1</clus>
<clus scale="  335.010">  1  5  2 -1</clus>
</clustering>
</event>
<event>
 9    1  0.1487426E-004  0.1049942E+03  0.7546771E-02  0.1276952E+00
         21   -1    0    0  501  502  0.00000000000E+00  0.00000000000E+00  0.21740062316E+03  0.21740062316E+03  0.00000000000E+00 0.  1.
         -2   -1    0    0    0  501 -0.00000000000E+00 -0.00000000000E+00 -0.18488175655E+03  0.18488175655E+03  0.00000000000E+00 0.  1.
         23    2    1    2    0    0 -0.39466970710E+02  0.89607310585E+01 -0.95602500547E+02  0.14026394917E+03  0.94319673700E+02 0.  0.
        -24    2    1    2    0    0  0.44740604290E+02 -0.39520725819E+02 -0.27523989563E+02  0.10331366830E+03  0.79702789246E+02 0.  0.
         13    1    4    4    0    0  0.54973116433E+02 -0.55025707375E+02 -0.32159219227E+02  0.84167020761E+02  0.00000000000E+00 0. -1.
        -14    1    4    4    0    0 -0.10232512142E+02  0.15504981555E+02  0.46352296642E+01  0.19146647535E+02  0.00000000000E+00 0.  1.
        -11    1    3    3    0    0 -0.24397324197E+02 -0.38612167340E+02 -0.71505469589E+02  0.84847870190E+02  0.00000000000E+00 0. -1.
         11    1    3    3    0    0 -0.15069646514E+02  0.47572898399E+02 -0.24097030958E+02  0.55416078976E+02  0.00000000000E+00 0.  1.
         -1    1    1    2    0  502 -0.52736335802E+01  0.30559994761E+02  0.15564535672E+03  0.15870476224E+03  0.00000000000E+00 0.  1.
<scales pt_clust_5="13000.00000" pt_clust_6="13000.00000" pt_clust_7="13000.00000" pt_clust_8="13000.00000" pt_clust_9="31.01168"></scales>
<clustering>
<clus scale="   31.012">  1  9  2 -1</clus>
<clus scale="   79.703">  5  6 -1 -1</clus>
<clus scale="   92.088">  1  5  2 -1</clus>
<clus scale="   94.320">  7  8 -1 -1</clus>
<clus scale="   31.012">  1  5  2 -1</clus>
</clustering>
</event>
<event>
 9    1  0.1487426E-004  0.1250121E+03  0.7546771E-02  0.1238183E+00
         21   -1    0    0  501  502  0.00000000000E+00  0.00000000000E+00  0.23731644691E+03  0.23731644691E+03  0.00000000000E+00 0.  1.
         -4   -1    0    0    0  501 -0.00000000000E+00 -0.00000000000E+00 -0.53844626023E+03  0.53844626023E+03  0.00000000000E+00 0.  1.
        -24    2    1    2    0    0 -0.74877503818E+02 -0.32597167225E+02 -0.41906458829E+03  0.43441350872E+03  0.80191966614E+02 0.  0.
         23    2    1    2    0    0  0.78450301352E+02  0.10568141014E+03 -0.41963189297E+02  0.16550429396E+03  0.91146869572E+02 0.  0.
         13    1    3    3    0    0 -0.33594260302E+02 -0.20634026595E+02 -0.54179555539E+02  0.67005683469E+02  0.00000000000E+00 0. -1.
        -14    1    3    3    0    0 -0.41283243516E+02 -0.11963140630E+02 -0.36488503275E+03  0.36740782525E+03  0.00000000000E+00 0.  1.
        -11    1    4    4    0    0 -0.36773942542E+01  0.70740295619E+02 -0.19426868231E+02  0.73451452417E+02  0.00000000000E+00 0.  1.
         11    1    4    4    0    0  0.82127695606E+02  0.34941114520E+02 -0.22536321066E+02  0.92052841546E+02  0.00000000000E+00 0. -1.
         -3    1    1    2    0  502 -0.35727975337E+01 -0.73084242914E+02  0.15989796428E+03  0.17584490446E+03  0.00000000000E+00 0.  1.
<scales pt_clust_5="13000.00000" pt_clust_6="13000.00000" pt_clust_7="13000.00000" pt_clust_8="13000.00000" pt_clust_9="73.17152"></scales>
<clustering>
<clus scale="   73.172">  1  9  2 -1</clus>
<clus scale="   80.192">  5  6 -1 -1</clus>
<clus scale="   91.147">  7  8 -1 -1</clus>
<clus scale="  117.265">  2  5  1 -1</clus>
<clus scale="   73.172">  1  5  2 -1</clus>
</clustering>
</event>
<event>
 9    1  0.1487426E-004  0.1324631E+03  0.7546771E-02  0.1227723E+00
          1   -1    0    0  502    0 -0.00000000000E+00  0.00000000000E+00  0.57039658973E+03  0.57039658973E+03  0.00000000000E+00 0. -1.
         21   -1    0    0  501  502  0.00000000000E+00 -0.00000000000E+00 -0.41406981353E+02  0.41406981353E+02  0.00000000000E+00 0.  1.
         23    2    1    2    0    0 -0.70250666631E+02  0.65218756197E+02  0.30871782802E+03  0.33702481387E+03  0.95343513177E+02 0.  0.
        -24    2    1    2    0    0  0.77082602694E+02 -0.40200001170E+02  0.11056642439E+03  0.16204953038E+03  0.80481975394E+02 0.  0.
         13    1    4    4    0    0 -0.97652487333E+01 -0.20367519699E+02  0.48424067189E+02  0.53433006884E+02  0.00000000000E+00 0. -1.
        -14    1    4    4    0    0  0.86847851427E+02 -0.19832481471E+02  0.62142357197E+02  0.10861652350E+03  0.00000000000E+00 0.  1.
        -13    1    3    3    0    0 -0.89418671793E+02  0.58487182498E+02  0.20330653421E+03  0.22967367336E+03  0.00000000000E+00 0. -1.
         13    1    3    3    0    0  0.19168005162E+02  0.67315736986E+01  0.10541129381E+03  0.10735114051E+03  0.00000000000E+00 0.  1.
          2    1    1    2  501    0 -0.68319360632E+01 -0.25018755026E+02  0.10970535597E+03  0.11272922684E+03  0.00000000000E+00 0. -1.
<scales pt_clust_5="13000.00000" pt_clust_6="13000.00000" pt_clust_7="13000.00000" pt_clust_8="13000.00000" pt_clust_9="25.93481"></scales>
<clustering>
<clus scale="   25.935">  2  9  1 -1</clus>
<clus scale="   80.482">  5  6 -1 -1</clus>
<clus scale="   95.344">  7  8 -1 -1</clus>
<clus scale="  122.202">  2  5  1 -1</clus>
<clus scale="   25.935">  2  5  1 -1</clus>
</clustering>
</event>
<event>
 9    1  0.1487426E-004  0.1280451E+03  0.7546771E-02  0.1233817E+00
         21   -1    0    0  501  502  0.00000000000E+00  0.00000000000E+00  0.82198296750E+02  0.82198296750E+02  0.00000000000E+00 0. -1.
          1   -1    0    0  502    0 -0.00000000000E+00 -0.00000000000E+00 -0.11060603508E+04  0.11060603508E+04  0.00000000000E+00 0. -1.
        -24    2    1    2    0    0  0.61668595831E+02 -0.60222632818E+02 -0.14194700034E+03  0.18543201704E+03  0.82500308016E+02 0.  0.
         23    2    1    2    0    0  0.80432173328E+02 -0.22415305632E+02 -0.20265900040E+02  0.12563741404E+03  0.91663911492E+02 0.  0.
         13    1    3    3    0    0  0.40380835874E+02 -0.79366205726E+02 -0.93220676803E+02  0.12891741969E+03  0.00000000000E+00 0. -1.
        -14    1    3    3    0    0  0.21287759957E+02  0.19143572907E+02 -0.48726323539E+02  0.56514597346E+02  0.00000000000E+00 0.  1.
        -13    1    4    4    0    0  0.95945604557E+02 -0.10453508526E+01 -0.73269293441E+01  0.96230637979E+02  0.00000000000E+00 0. -1.
         13    1    4    4    0    0 -0.15513431229E+02 -0.21369954780E+02 -0.12938970696E+02  0.29406776064E+02  0.00000000000E+00 0.  1.
          2    1    1    2  501    0 -0.14210076916E+03  0.82637938451E+02 -0.86164915371E+03  0.87718921651E+03  0.00000000000E+00 0. -1.
<scales pt_clust_5="13000.00000" pt_clust_6="13000.00000" pt_clust_7="13000.00000" pt_clust_8="13000.00000" pt_clust_9="89.40510"></scales>
<clustering>
<clus scale="   82.500">  5  6 -1 -1</clus>
<clus scale="   91.664">  7  8 -1 -1</clus>
<clus scale="  119.315">  2  5  1 -1</clus>
<clus scale="   89.405">  1  9  2 -1</clus>
<clus scale="   89.405">  1  5  2 -1</clus>
</clustering>
</event>
<event>
 9    1  0.1487426E-004  0.1439045E+03  0.7546771E-02  0.1210416E+00
         21   -1    0    0  501  502  0.00000000000E+00  0.00000000000E+00  0.51765037349E+02  0.51765037349E+02  0.00000000000E+00 0. -1.
          1   -1    0    0  502    0 -0.00000000000E+00 -0.00000000000E+00 -0.76573864856E+03  0.76573864856E+03  0.00000000000E+00 0. -1.
        -24    2    1    2    0    0  0.99116626021E+02 -0.66144388851E+02 -0.51633916341E+03  0.53587785947E+03  0.79748121426E+02 0.  0.
         23    2    1    2    0    0 -0.45005286126E+02  0.92213478003E+02 -0.16029199471E+03  0.21090034788E+03  0.90866010498E+02 0.  0.
         11    1    3    3    0    0  0.90278601988E+02 -0.37178913952E+02 -0.47321741936E+03  0.48318446126E+03  0.00000000000E+00 0. -1.
        -12    1    3    3    0    0  0.88380240324E+01 -0.28965474899E+02 -0.43121744048E+02  0.52693398208E+02  0.00000000000E+00 0.  1.
        -11    1    4    4    0    0  0.21636543858E+02  0.29400676449E+01 -0.10516304024E+02  0.24235855219E+02  0.00000000000E+00 0. -1.
         11    1    4    4    0    0 -0.66641829984E+02  0.89273410359E+02 -0.14977569069E+03  0.18666449266E+03  0.00000000000E+00 0.  1.
          2    1    1    2  501    0 -0.54111339895E+02 -0.26069089152E+02 -0.37342453099E+02  0.70725478562E+02  0.00000000000E+00 0. -1.
<scales pt_clust_5="13000.00000" pt_clust_6="13000.00000" pt_clust_7="13000.00000" pt_clust_8="13000.00000" pt_clust_9="60.06359"></scales>
<clustering>
<clus scale="   60.064">  1  9  2 -1</clus>
<clus scale="   79.748">  5  6 -1 -1</clus>
<clus scale="   90.866">  7  8 -1 -1</clus>
<clus scale="  137.155">  2  5  1 -1</clus>
<clus scale="   60.064">  1  5  2 -1</clus>
</clustering>
</event>
<event>
 9    1  0.1487426E-004  0.9148554E+02  0.7546771E-02  0.1307481E+00
         21   -1    0    0  501  502  0.00000000000E+00  0.00000000000E+00  0.12362982365E+03  0.12362982365E+03  0.00000000000E+00 0.  1.
          1   -1    0    0  502    0 -0.00000000000E+00 -0.00000000000E+00 -0.20384247465E+03  0.20384247465E+03  0.00000000000E+00 0. -1.
        -24    2    1    2    0    0 -0.62244239170E+01  0.18052339270E+02 -0.52814556204E+02  0.96136650895E+02  0.78027225326E+02 0.  0.
         23    2    1    2    0    0 -0.10022378428E+02  0.26042758678E+02  0.73410001867E+02  0.12011240972E+03  0.90880631849E+02 0.  0.
         13    1    3    3    0    0  0.31138157733E+01  0.45397340713E+02 -0.49198525331E+02  0.67015739101E+02  0.00000000000E+00 0. -1.
        -14    1    3    3    0    0 -0.93382396903E+01 -0.27345001443E+02 -0.36160308733E+01  0.29120911794E+02  0.00000000000E+00 0.  1.
        -13    1    4    4    0    0 -0.28391453591E+02  0.51129852443E+02  0.27406773778E+02  0.64586900350E+02  0.00000000000E+00 0.  1.
         13    1    4    4    0    0  0.18369075163E+02 -0.25087093765E+02  0.46003228089E+02  0.55525509368E+02  0.00000000000E+00 0. -1.
          2    1    1    2  501    0  0.16246802345E+02 -0.44095097948E+02 -0.10080809666E+03  0.11122323769E+03  0.00000000000E+00 0. -1.
<scales pt_clust_5="13000.00000" pt_clust_6="13000.00000" pt_clust_7="13000.00000" pt_clust_8="13000.00000" pt_clust_9="46.99296"></scales>
<clustering>
<clus scale="   46.993">  1  9  2 -1</clus>
<clus scale="   78.027">  5  6 -1 -1</clus>
<clus scale="   78.731">  2  5  1 -1</clus>
<clus scale="   90.881">  7  8 -1 -1</clus>
<clus scale="   46.993">  1  5  2 -1</clus>
</clustering>
</event>
<event>
 9    1  0.1487426E-004  0.9901381E+02  0.7546771E-02  0.1292595E+00
         21   -1    0    0  501  502  0.00000000000E+00  0.00000000000E+00  0.10729742445E+03  0.10729742445E+03  0.00000000000E+00 0. -1.
          1   -1    0    0  502    0 -0.00000000000E+00 -0.00000000000E+00 -0.28021220106E+03  0.28021220106E+03  0.00000000000E+00 0. -1.
         23    2    1    2    0    0  0.35972831213E+02  0.11766795295E+02 -0.20902957494E+03  0.23285239265E+03  0.95364414256E+02 0.  0.
        -24    2    1    2    0    0 -0.78103658857E+00  0.11192678289E+00 -0.26651410837E+02  0.81724637527E+02  0.77252806638E+02 0.  0.
         13    1    4    4    0    0 -0.20568073634E+02  0.32829985087E+02 -0.99373518594E+01  0.39995056392E+02  0.00000000000E+00 0. -1.
        -14    1    4    4    0    0  0.19787037045E+02 -0.32718058304E+02 -0.16714058978E+02  0.41729581135E+02  0.00000000000E+00 0.  1.
        -13    1    3    3    0    0  0.28725326241E+01  0.45235090432E+02 -0.15352008594E+03  0.16007148915E+03  0.00000000000E+00 0. -1.
         13    1    3    3    0    0  0.33100298589E+02 -0.33468295136E+02 -0.55509488999E+02  0.72780903505E+02  0.00000000000E+00 0.  1.
          2    1    1    2  501    0 -0.35191794625E+02 -0.11878722078E+02  0.62766209176E+02  0.72932595329E+02  0.00000000000E+00 0. -1.
<scales pt_clust_5="13000.00000" pt_clust_6="13000.00000" pt_clust_7="13000.00000" pt_clust_8="13000.00000" pt_clust_9="37.14252"></scales>
<clustering>
<clus scale="   37.143">  1  9  2 -1</clus>
<clus scale="   77.253">  5  6 -1 -1</clus>
<clus scale="   81.715">  1  5  2 -1</clus>
<clus scale="   95.364">  7  8 -1 -1</clus>
<clus scale="   37.143">  1  5  2 -1</clus>
</clustering>
</event>
<event>
 9    1  0.1487426E-004  0.1087238E+03  0.7546771E-02  0.1268181E+00
         21   -1    0    0  501  502  0.00000000000E+00  0.00000000000E+00  0.12641311607E+03  0.12641311607E+03  0.00000000000E+00 0. -1.
          3   -1    0    0  502    0 -0.00000000000E+00 -0.00000000000E+00 -0.48180413066E+03  0.48180413066E+03  0.00000000000E+00 0. -1.
        -24    2    1    2    0    0  0.25570039086E+02  0.45932898440E+02 -0.38652930870E+03  0.39831247992E+03  0.80524947163E+02 0.  0.
         23    2    1    2    0    0 -0.69091273984E+02 -0.88616716223E+02  0.29855378390E+02  0.14893221512E+03  0.93074886771E+02 0.  0.
         13    1    3    3    0    0  0.48424590848E+02  0.68244015696E+01 -0.16032595875E+03  0.16761839548E+03  0.00000000000E+00 0. -1.
        -14    1    3    3    0    0 -0.22854551762E+02  0.39108496871E+02 -0.22620334995E+03  0.23069408443E+03  0.00000000000E+00 0.  1.
        -13    1    4    4    0    0 -0.34012781487E+02  0.13260279688E+02 -0.20408201525E+01  0.36563222899E+02  0.00000000000E+00 0.  1.
         13    1    4    4    0    0 -0.35078492497E+02 -0.10187699591E+03  0.31896198543E+02  0.11236899222E+03  0.00000000000E+00 0. -1.
          4    1    1    2  501    0  0.43521234898E+02  0.42683817783E+02  0.12829157169E+01  0.60972551696E+02  0.00000000000E+00 0. -1.
<scales pt_clust_5="13000.00000" pt_clust_6="13000.00000" pt_clust_7="13000.00000" pt_clust_8="13000.00000" pt_clust_9="60.95905"></scales>
<clustering>
<clus scale="   60.959">  1  9  2 -1</clus>
<clus scale="   80.525">  5  6 -1 -1</clus>
<clus scale="   93.075">  7  8 -1 -1</clus>
<clus scale="   98.195">  2  5  1 -1</clus>
<clus scale="   60.959">  1  5  2 -1</clus>
</clustering>
</event>
<event>
 9    1  0.1487426E-004  0.1087458E+03  0.7546771E-02  0.1266849E+00
          1   -1    0    0  502    0 -0.00000000000E+00  0.00000000000E+00  0.96998635703E+02  0.96998635703E+02  0.00000000000E+00 0. -1.
         21   -1    0    0  501  502  0.00000000000E+00 -0.00000000000E+00 -0.15166292235E+03  0.15166292235E+03  0.00000000000E+00 0.  1.
        -24    2    1    2    0    0  0.11177882930E+02  0.58308604160E+02  0.86394224116E+01  0.10310813505E+03  0.83855885347E+02 0.  0.
         23    2    1    2    0    0  0.97394148718E+01 -0.51278363544E+02 -0.42085336956E+02  0.11494007714E+03  0.93358015062E+02 0.  0.
         11    1    3    3    0    0  0.90002873431E+01  0.45836578425E+02  0.44844267485E+02  0.64753420144E+02  0.00000000000E+00 0. -1.
        -12    1    3    3    0    0  0.21775955872E+01  0.12472025734E+02 -0.36204845074E+02  0.38354714903E+02  0.00000000000E+00 0.  1.
        -13    1    4    4    0    0  0.45081523752E+02 -0.20311015852E+02 -0.46329291394E+02  0.67759017037E+02  0.00000000000E+00 0.  1.
         13    1    4    4    0    0 -0.35342108880E+02 -0.30967347692E+02  0.42439544378E+01  0.47181060103E+02  0.00000000000E+00 0. -1.
          2    1    1    2  501    0 -0.20917297802E+02 -0.70302406153E+01 -0.21218372098E+02  0.30613345863E+02  0.00000000000E+00 0. -1.
<scales pt_clust_5="13000.00000" pt_clust_6="13000.00000" pt_clust_7="13000.00000" pt_clust_8="13000.00000" pt_clust_9="22.06712"></scales>
<clustering>
<clus scale="   22.067">  2  9  1 -1</clus>
<clus scale="   83.856">  5  6 -1 -1</clus>
<clus scale="   93.358">  7  8 -1 -1</clus>
<clus scale="  100.706">  1  5  2 -1</clus>
<clus scale="   22.067">  2  5  1 -1</clus>
</clustering>
</event>
<event>
 9    1  0.1487426E-004  0.1055247E+03  0.7546771E-02  0.1273628E+00
         21   -1    0    0  501  502  0.00000000000E+00  0.00000000000E+00  0.12437746391E+03  0.12437746391E+03  0.00000000000E+00 0. -1.
         -4   -1    0    0    0  501 -0.00000000000E+00 -0.00000000000E+00 -0.14700081110E+03  0.14700081110E+03  0.00000000000E+00 0.  1.
        -24    2    1    2    0    0 -0.18888450149E+02 -0.46338229027E+02 -0.73450318761E+02  0.11964701468E+03  0.80102770091E+02 0.  0.
         23    2    1    2    0    0  0.41911126423E+02  0.57686691637E+02  0.51008546426E+02  0.12606291026E+03  0.90585256111E+02 0.  0.
         11    1    3    3    0    0  0.31480211224E+02 -0.14898596706E+02 -0.31362220946E+02  0.46867481106E+02  0.00000000000E+00 0. -1.
        -12    1    3    3    0    0 -0.50368661373E+02 -0.31439632321E+02 -0.42088097815E+02  0.72779533570E+02  0.00000000000E+00 0.  1.
        -13    1    4    4    0    0 -0.21696793097E+02  0.44793806718E+02  0.15760728069E+02  0.52207628755E+02  0.00000000000E+00 0.  1.
         13    1    4    4    0    0  0.63607919520E+02  0.12892884919E+02  0.35247818357E+02  0.73855281505E+02  0.00000000000E+00 0. -1.
         -3    1    1    2    0  502 -0.23022676274E+02 -0.11348462610E+02 -0.18157485314E+00  0.25668350080E+02  0.00000000000E+00 0.  1.
<scales pt_clust_5="13000.00000" pt_clust_6="13000.00000" pt_clust_7="13000.00000" pt_clust_8="13000.00000" pt_clust_9="25.66771"></scales>
<clustering>
<clus scale="   25.668">  1  9  2 -1</clus>
<clus scale="   80.103">  5  6 -1 -1</clus>
<clus scale="   90.585">  7  8 -1 -1</clus>
<clus scale="   96.676">  2  5  1 -1</clus>
<clus scale="   25.668">  1  5  2 -1</clus>
</clustering>
</event>
<event>
 9    1  0.1487426E-004  0.3114618E+03  0.7546771E-02  0.1103444E+00
          1   -1    0    0  502    0 -0.00000000000E+00  0.00000000000E+00  0.83179026163E+03  0.83179026163E+03  0.00000000000E+00 0. -1.
         21   -1    0    0  501  502  0.00000000000E+00 -0.00000000000E+00 -0.76665721298E+03  0.76665721298E+03  0.00000000000E+00 0. -1.
        -24    2    1    2    0    0  0.71961117051E+02 -0.12605279047E+03  0.69136724113E+03  0.71109294959E+03  0.81220763918E+02 0.  0.
         23    2    1    2    0    0  0.26419614096E+03  0.60346184236E+02 -0.27502571722E+03  0.39677685196E+03  0.91386335255E+02 0.  0.
         13    1    3    3    0    0  0.45290619707E+02 -0.11000706943E+03  0.64053092694E+03  0.65148496830E+03  0.00000000000E+00 0. -1.
        -14    1    3    3    0    0  0.26670497344E+02 -0.16045721046E+02  0.50836314194E+02  0.59607981289E+02  0.00000000000E+00 0.  1.
        -13    1    4    4    0    0  0.15003677087E+02 -0.17949116359E+02 -0.34607278249E+02  0.41772536576E+02  0.00000000000E+00 0.  1.
         13    1    4    4    0    0  0.24919246387E+03  0.78295300594E+02 -0.24041843897E+03  0.35500431539E+03  0.00000000000E+00 0. -1.
          2    1    1    2  501    0 -0.33615725801E+03  0.65706606238E+02 -0.35120847526E+03  0.49057767306E+03  0.00000000000E+00 0. -1.
<scales pt_clust_5="13000.00000" pt_clust_6="13000.00000" pt_clust_7="13000.00000" pt_clust_8="13000.00000" pt_clust_9="297.75335"></scales>
<clustering>
<clus scale="   81.221">  5  6 -1 -1</clus>
<clus scale="   91.386">  7  8 -1 -1</clus>
<clus scale="  166.327">  1  5  2 -1</clus>
<clus scale="  297.753">  2  9  1 -1</clus>
<clus scale="  297.753">  2  5  1 -1</clus>
</clustering>
</event>
<event>
 9    1  0.1487426E-004  0.1136026E+03  0.7546771E-02  0.1260685E+00
         21   -1    0    0  501  502  0.00000000000E+00  0.00000000000E+00  0.28133398551E+02  0.28133398551E+02  0.00000000000E+00 0. -1.
         -2   -1    0    0    0  501 -0.00000000000E+00 -0.00000000000E+00 -0.65571163187E+03  0.65571163187E+03  0.00000000000E+00 0.  1.
        -24    2    1    2    0    0  0.44327762951E+02  0.35081428096E+02 -0.16172086678E+03  0.18613381947E+03  0.72777076278E+02 0.  0.
         23    2    1    2    0    0 -0.73970183043E+02 -0.37500660547E+02 -0.23826030179E+03  0.26817918784E+03  0.90962727854E+02 0.  0.
         13    1    3    3    0    0  0.32676109751E+02 -0.12982434002E+02 -0.10575751798E+03  0.11144920076E+03  0.00000000000E+00 0. -1.
        -14    1    3    3    0    0  0.11651653200E+02  0.48063862098E+02 -0.55963348798E+02  0.74684618703E+02  0.00000000000E+00 0.  1.
        -13    1    4    4    0    0 -0.49626999654E+02 -0.63747986647E+02 -0.20041515097E+03  0.21608534804E+03  0.00000000000E+00 0. -1.
         13    1    4    4    0    0 -0.24343183388E+02  0.26247326100E+02 -0.37845150820E+02  0.52093839803E+02  0.00000000000E+00 0.  1.
         -1    1    1    2    0  502  0.29642420092E+02  0.24192324513E+01 -0.22759706474E+03  0.22953202311E+03  0.00000000000E+00 0.  1.
<scales pt_clust_5="13000.00000" pt_clust_6="13000.00000" pt_clust_7="13000.00000" pt_clust_8="13000.00000" pt_clust_9="29.74099"></scales>
<clustering>
<clus scale="   29.741">  1  9  2 -1</clus>
<clus scale="   72.777">  5  6 -1 -1</clus>
<clus scale="   90.963">  7  8 -1 -1</clus>
<clus scale="   99.639">  2  5  1 -1</clus>
<clus scale="   29.741">  1  5  2 -1</clus>
</clustering>
</event>
<event>
 9    1  0.1487426E-004  0.1424770E+03  0.7546771E-02  0.1211028E+00
          1   -1    0    0  502    0 -0.00000000000E+00  0.00000000000E+00  0.62889168128E+03  0.62889168128E+03  0.00000000000E+00 0. -1.
         21   -1    0    0  501  502  0.00000000000E+00 -0.00000000000E+00 -0.63020465863E+02  0.63020465863E+02  0.00000000000E+00 0.  1.
        -24    2    1    2    0    0  0.37723199488E+02 -0.88416504685E+02  0.21219017097E+03  0.24608922255E+03  0.79339263417E+02 0.  0.
         23    2    1    2    0    0 -0.42854326676E+02  0.15422039014E+03  0.16131032599E+03  0.24244403403E+03  0.84484710540E+02 0.  0.
         13    1    3    3    0    0  0.57845605965E+02 -0.41375339803E+02  0.99255166449E+02  0.12210495870E+03  0.00000000000E+00 0. -1.
        -14    1    3    3    0    0 -0.20122406476E+02 -0.47041164882E+02  0.11293500452E+03  0.12398426385E+03  0.00000000000E+00 0.  1.
        -11    1    4    4    0    0 -0.44406815043E+00  0.35839331621E+02  0.92275222337E+02  0.98991775138E+02  0.00000000000E+00 0. -1.
         11    1    4    4    0    0 -0.42410258525E+02  0.11838105852E+03  0.69035103651E+02  0.14345225889E+03  0.00000000000E+00 0.  1.
          2    1    1    2  501    0  0.51311271877E+01 -0.65803885454E+02  0.19237071846E+03  0.20337889057E+03  0.00000000000E+00 0. -1.
<scales pt_clust_5="13000.00000" pt_clust_6="13000.00000" pt_clust_7="13000.00000" pt_clust_8="13000.00000" pt_clust_9="66.00367"></scales>
<clustering>
<clus scale="   66.004">  2  9  1 -1</clus>
<clus scale="   79.339">  5  6 -1 -1</clus>
<clus scale="   84.485">  7  8 -1 -1</clus>
<clus scale="  139.487">  1  5  2 -1</clus>
<clus scale="   66.004">  2  5  1 -1</clus>
</clustering>
</event>
<event>
 9    1  0.1487426E-004  0.1227341E+03  0.7546771E-02  0.1250913E+00
         -2   -1    0    0    0  501 -0.00000000000E+00  0.00000000000E+00  0.96919917162E+03  0.96919917162E+03  0.00000000000E+00 0.  1.
         21   -1    0    0  501  502  0.00000000000E+00 -0.00000000000E+00 -0.31614959104E+02  0.31614959104E+02  0.00000000000E+00 0.  1.
         23    2    1    2    0    0  0.19038530249E+02  0.15907917958E+02  0.26385487787E+03  0.28073165580E+03  0.92603123631E+02 0.  0.
        -24    2    1    2    0    0  0.10897669252E+02  0.86089331455E+02  0.18427135682E+03  0.21921450131E+03  0.81048950986E+02 0.  0.
         13    1    4    4    0    0 -0.18793950547E+02  0.36106727646E+02  0.14095600541E+03  0.14671572451E+03  0.00000000000E+00 0. -1.
        -14    1    4    4    0    0  0.29691619799E+02  0.49982603809E+02  0.43315351415E+02  0.72498776803E+02  0.00000000000E+00 0.  1.
        -11    1    3    3    0    0  0.10947676471E+01  0.45428600394E+02  0.22131085593E+03  0.22592797791E+03  0.00000000000E+00 0.  1.
         11    1    3    3    0    0  0.17943762602E+02 -0.29520682436E+02  0.42544021940E+02  0.54803677893E+02  0.00000000000E+00 0. -1.
         -1    1    1    2    0  502 -0.29936199501E+02 -0.10199724941E+03  0.48945797783E+03  0.50086797361E+03  0.00000000000E+00 0.  1.
<scales pt_clust_5="13000.00000" pt_clust_6="13000.00000" pt_clust_7="13000.00000" pt_clust_8="13000.00000" pt_clust_9="92.16692"></scales>
<clustering>
<clus scale="   81.049">  5  6 -1 -1</clus>
<clus scale="   92.603">  7  8 -1 -1</clus>
<clus scale="   95.869">  1  7  2 -1</clus>
<clus scale="   92.167">  2  9  1 -1</clus>
<clus scale="   92.167">  2  5  1 -1</clus>
</clustering>
</event>
<event>
 9    1  0.1487426E-004  0.1089124E+03  0.7546771E-02  0.1270280E+00
          1   -1    0    0  502    0 -0.00000000000E+00  0.00000000000E+00  0.55221233911E+03  0.55221233911E+03  0.00000000000E+00 0. -1.
         21   -1    0    0  501  502  0.00000000000E+00 -0.00000000000E+00 -0.28317584345E+02  0.28317584345E+02  0.00000000000E+00 0.  1.
         23    2    1    2    0    0  0.33526561687E+02 -0.36494133833E+02  0.36371505125E+03  0.38001855198E+03  0.98334171066E+02 0.  0.
        -24    2    1    2    0    0 -0.42477316883E+02  0.16184795442E+02  0.14888711744E+03  0.17560940881E+03  0.81271278259E+02 0.  0.
         13    1    4    4    0    0 -0.25116599405E+02  0.22953517852E+02  0.15282279888E+03  0.15656473231E+03  0.00000000000E+00 0. -1.
        -14    1    4    4    0    0 -0.17360717478E+02 -0.67687224109E+01 -0.39356814393E+01  0.19044676496E+02  0.00000000000E+00 0.  1.
        -11    1    3    3    0    0 -0.26843190024E+02 -0.39695453130E+02  0.12804265101E+03  0.13671578668E+03  0.00000000000E+00 0.  1.
         11    1    3    3    0    0  0.60369751712E+02  0.32013192972E+01  0.23567240024E+03  0.24330276530E+03  0.00000000000E+00 0. -1.
          2    1    1    2  501    0  0.89507551962E+01  0.20309338392E+02  0.11292586081E+02  0.24901962672E+02  0.00000000000E+00 0. -1.
<scales pt_clust_5="13000.00000" pt_clust_6="13000.00000" pt_clust_7="13000.00000" pt_clust_8="13000.00000" pt_clust_9="22.19426"></scales>
<clustering>
<clus scale="   22.194">  2  9  1 -1</clus>
<clus scale="   81.271">  5  6 -1 -1</clus>
<clus scale="   93.794">  2  5  1 -1</clus>
<clus scale="   98.334">  7  8 -1 -1</clus>
<clus scale="   22.194">  2  5  1 -1</clus>
</clustering>
</event>
<event>
 9    1  0.1487426E-004  0.9231866E+02  0.7546771E-02  0.1304779E+00
         -2   -1    0    0    0  501 -0.00000000000E+00  0.00000000000E+00  0.13847210655E+03  0.13847210655E+03  0.00000000000E+00 0.  1.
         21   -1    0    0  501  502  0.00000000000E+00 -0.00000000000E+00 -0.21666386833E+03  0.21666386833E+03  0.00000000000E+00 0.  1.
         23    2    1    2    0    0 -0.51355230699E+01  0.16238800355E+02  0.10156195655E+03  0.13766622050E+03  0.91362382919E+02 0.  0.
        -24    2    1    2    0    0 -0.24949969163E+01  0.49612347539E+01 -0.71801025068E+02  0.10719078854E+03  0.79395460114E+02 0.  0.
         13    1    4    4    0    0  0.22674236370E+02  0.22424018432E+02 -0.31868306159E+01  0.32048611311E+02  0.00000000000E+00 0. -1.
        -14    1    4    4    0    0 -0.25169233286E+02 -0.17462783678E+02 -0.68614194452E+02  0.75142177226E+02  0.00000000000E+00 0.  1.
        -11    1    3    3    0    0 -0.31688264184E+02  0.20969271231E+02  0.10386480575E+03  0.11059726171E+03  0.00000000000E+00 0.  1.
         11    1    3    3    0    0  0.26552741115E+02 -0.47304708760E+01 -0.23028492013E+01  0.27068958788E+02  0.00000000000E+00 0. -1.
         -1    1    1    2    0  502  0.76305199862E+01 -0.21200035109E+02 -0.10795269327E+03  0.11027896585E+03  0.00000000000E+00 0.  1.
<scales pt_clust_5="13000.00000" pt_clust_6="13000.00000" pt_clust_7="13000.00000" pt_clust_8="13000.00000" pt_clust_9="22.53145"></scales>
<clustering>
<clus scale="   22.531">  2  9  1 -1</clus>
<clus scale="   79.395">  5  6 -1 -1</clus>
<clus scale="   80.494">  2  5  1 -1</clus>
<clus scale="   91.362">  7  8 -1 -1</clus>
<clus scale="   22.531">  2  5  1 -1</clus>
</clustering>
</event>
<event>
 9    1  0.1487426E-004  0.9081348E+02  0.7546771E-02  0.1307184E+00
          1   -1    0    0  502    0 -0.00000000000E+00  0.00000000000E+00  0.38232510205E+03  0.38232510205E+03  0.00000000000E+00 0. -1.
         21   -1    0    0  501  502  0.00000000000E+00 -0.00000000000E+00 -0.27549321944E+02  0.27549321944E+02  0.00000000000E+00 0.  1.
         23    2    1    2    0    0  0.35555622111E+01  0.19656931654E+02  0.20872202330E+03  0.22823779126E+03  0.90158578973E+02 0.  0.
        -24    2    1    2    0    0  0.81386923235E+01  0.26338815028E+01  0.94282312596E+02  0.12406998983E+03  0.80193717104E+02 0.  0.
         13    1    4    4    0    0  0.44041361470E+02 -0.36028523843E+01  0.50299299569E+02  0.66952532458E+02  0.00000000000E+00 0. -1.
        -14    1    4    4    0    0 -0.35902669147E+02  0.62367338871E+01  0.43983013028E+02  0.57117457370E+02  0.00000000000E+00 0.  1.
        -11    1    3    3    0    0  0.27802082504E+02 -0.27543383665E+02  0.82310832053E+02  0.91140917532E+02  0.00000000000E+00 0. -1.
         11    1    3    3    0    0 -0.24246520293E+02  0.47200315319E+02  0.12641119125E+03  0.13709687373E+03  0.00000000000E+00 0.  1.
          2    1    1    2  501    0 -0.11694254535E+02 -0.22290813157E+02  0.51771444211E+02  0.57566642911E+02  0.00000000000E+00 0. -1.
<scales pt_clust_5="13000.00000" pt_clust_6="13000.00000" pt_clust_7="13000.00000" pt_clust_8="13000.00000" pt_clust_9="25.17214"></scales>
<clustering>
<clus scale="   25.172">  2  9  1 -1</clus>
<clus scale="   80.194">  5  6 -1 -1</clus>
<clus scale="   80.929">  2  5  1 -1</clus>
<clus scale="   90.159">  7  8 -1 -1</clus>
<clus scale="   25.172">  2  5  1 -1</clus>
</clustering>
</event>
<event>
 9    1  0.1487426E-004  0.1022343E+03  0.7546771E-02  0.1278647E+00
         21   -1    0    0  501  502  0.00000000000E+00  0.00000000000E+00  0.10258605117E+03  0.10258605117E+03  0.00000000000E+00 0. -1.
          1   -1    0    0  502    0 -0.00000000000E+00 -0.00000000000E+00 -0.44786619743E+03  0.44786619743E+03  0.00000000000E+00 0. -1.
        -24    2    1    2    0    0 -0.25286677810E+02 -0.41077918614E+02 -0.36841147374E+03  0.38135232341E+03  0.85882298011E+02 0.  0.
         23    2    1    2    0    0  0.34077178030E+02  0.24059404333E+01 -0.29996011762E+02  0.10280279882E+03  0.92204187058E+02 0.  0.
         13    1    3    3    0    0 -0.50726495741E+02 -0.12555840715E+02 -0.28293593193E+03  0.28772133756E+03  0.00000000000E+00 0. -1.
        -14    1    3    3    0    0  0.25439817931E+02 -0.28522077899E+02 -0.85475541806E+02  0.93630985850E+02  0.00000000000E+00 0.  1.
        -13    1    4    4    0    0  0.63790170455E+02 -0.11184885167E+02 -0.26378805291E+02  0.69929456394E+02  0.00000000000E+00 0. -1.
         13    1    4    4    0    0 -0.29712992425E+02  0.13590825601E+02 -0.36172064709E+01  0.32873342423E+02  0.00000000000E+00 0.  1.
          2    1    1    2  501    0 -0.87905002197E+01  0.38671978181E+02  0.53127339245E+02  0.66297126377E+02  0.00000000000E+00 0. -1.
<scales pt_clust_5="13000.00000" pt_clust_6="13000.00000" pt_clust_7="13000.00000" pt_clust_8="13000.00000" pt_clust_9="39.65848"></scales>
<clustering>
<clus scale="   39.658">  1  9  2 -1</clus>
<clus scale="   85.882">  5  6 -1 -1</clus>
<clus scale="   92.204">  7  8 -1 -1</clus>
<clus scale="   96.571">  2  5  1 -1</clus>
<clus scale="   39.658">  1  5  2 -1</clus>
</clustering>
</event>
<event>
 9    1  0.1487426E-004  0.1290783E+03  0.7546771E-02  0.1253080E+00
         21   -1    0    0  501  502  0.00000000000E+00  0.00000000000E+00  0.24743222224E+03  0.24743222224E+03  0.00000000000E+00 0.  1.
          3   -1    0    0  502    0 -0.00000000000E+00 -0.00000000000E+00 -0.14839150649E+03  0.14839150649E+03  0.00000000000E+00 0. -1.
        -24    2    1    2    0    0 -0.31565094985E+01  0.31179277710E+01  0.12746278865E+03  0.14992558229E+03  0.78811374234E+02 0.  0.
         23    2    1    2    0    0 -0.81904244788E+02 -0.38475336921E+02  0.35837620960E+02  0.13358257959E+03  0.91494883076E+02 0.  0.
         11    1    3    3    0    0 -0.12043470936E+02  0.28838378777E+02  0.11644730186E+03  0.12056811931E+03  0.00000000000E+00 0. -1.
        -12    1    3    3    0    0  0.88869614372E+01 -0.25720451006E+02  0.11015486790E+02  0.29357462983E+02  0.00000000000E+00 0.  1.
        -11    1    4    4    0    0 -0.25515551603E+02  0.19197964804E+02 -0.17953284981E+02  0.36632303611E+02  0.00000000000E+00 0. -1.
         11    1    4    4    0    0 -0.56388693185E+02 -0.57673301725E+02  0.53790905941E+02  0.96950275982E+02  0.00000000000E+00 0.  1.
          4    1    1    2  501    0  0.85060754287E+02  0.35357409150E+02 -0.64259693861E+02  0.11231556685E+03  0.00000000000E+00 0. -1.
<scales pt_clust_5="13000.00000" pt_clust_6="13000.00000" pt_clust_7="13000.00000" pt_clust_8="13000.00000" pt_clust_9="91.04896"></scales>
<clustering>
<clus scale="   78.811">  5  6 -1 -1</clus>
<clus scale="   78.936">  2  5  1 -1</clus>
<clus scale="   91.049">  1  9  2 -1</clus>
<clus scale="   91.495">  7  8 -1 -1</clus>
<clus scale="   91.049">  1  5  2 -1</clus>
</clustering>
</event>
<event>
 9    1  0.1487426E-004  0.2197797E+03  0.7546771E-02  0.1156734E+00
         21   -1    0    0  501  502  0.00000000000E+00  0.00000000000E+00  0.23560027091E+03  0.23560027091E+03  0.00000000000E+00 0. -1.
          1   -1    0    0  502    0 -0.00000000000E+00 -0.00000000000E+00 -0.47422567603E+03  0.47422567603E+03  0.00000000000E+00 0. -1.
         23    2    1    2    0    0 -0.87822106950E+02  0.18205737816E+02 -0.87595000354E+02  0.15495265633E+03  0.91067394042E+02 0.  0.
        -24    2    1    2    0    0 -0.17677249874E+03 -0.74825732939E+02  0.58637568131E+02  0.21256233831E+03  0.69978401330E+02 0.  0.
         11    1    4    4    0    0 -0.17906299930E+03 -0.81712621019E+02  0.54608088865E+02  0.20426099364E+03  0.00000000000E+00 0. -1.
        -12    1    4    4    0    0  0.22905005633E+01  0.68868880797E+01  0.40294792663E+01  0.83013446748E+01  0.00000000000E+00 0.  1.
        -13    1    3    3    0    0 -0.38816904406E+02  0.48975480421E+02 -0.71356286769E+02  0.94852882990E+02  0.00000000000E+00 0. -1.
         13    1    3    3    0    0 -0.49005202544E+02 -0.30769742605E+02 -0.16238713585E+02  0.60099773337E+02  0.00000000000E+00 0.  1.
          2    1    1    2  501    0  0.26459460569E+03  0.56619995123E+02 -0.20966797289E+03  0.34231095230E+03  0.00000000000E+00 0. -1.
<scales pt_clust_5="13000.00000" pt_clust_6="13000.00000" pt_clust_7="13000.00000" pt_clust_8="13000.00000" pt_clust_9="208.34154"></scales>
<clustering>
<clus scale="   69.978">  5  6 -1 -1</clus>
<clus scale="   91.067">  7  8 -1 -1</clus>
<clus scale="  127.818">  2  7  1 -1</clus>
<clus scale="  208.342">  1  9  2 -1</clus>
<clus scale="  208.342">  1  5  2 -1</clus>
</clustering>
</event>
<event>
 9    1  0.1487426E-004  0.3412809E+03  0.7546771E-02  0.1066252E+00
          1   -1    0    0  502    0 -0.00000000000E+00  0.00000000000E+00  0.12973881827E+03  0.12973881827E+03  0.00000000000E+00 0. -1.
         21   -1    0    0  501  502  0.00000000000E+00 -0.00000000000E+00 -0.76261364345E+03  0.76261364345E+03  0.00000000000E+00 0. -1.
        -24    2    1    2    0    0  0.61324546281E+02  0.18767823565E+03 -0.20079908236E+03  0.29308199200E+03  0.81197059350E+02 0.  0.
         23    2    1    2    0    0  0.10803197043E+01  0.89666135117E+02 -0.97096735354E+02  0.15992413396E+03  0.90037601757E+02 0.  0.
         13    1    3    3    0    0  0.74919154240E+02  0.16235003534E+03 -0.19341987618E+03  0.26340399038E+03  0.00000000000E+00 0. -1.
        -14    1    3    3    0    0 -0.13594607959E+02  0.25328200308E+02 -0.73792061790E+01  0.29678001621E+02  0.00000000000E+00 0.  1.
        -11    1    4    4    0    0 -0.26487467204E+02  0.91770237619E+02 -0.57037981376E+02  0.11125058989E+03  0.00000000000E+00 0.  1.
         11    1    4    4    0    0  0.27567786908E+02 -0.21041025019E+01 -0.40058753979E+02  0.48673544074E+02  0.00000000000E+00 0. -1.
          2    1    1    2  501    0 -0.62404865985E+02 -0.27734437076E+03 -0.33497900747E+03  0.43934633575E+03  0.00000000000E+00 0. -1.
<scales pt_clust_5="13000.00000" pt_clust_6="13000.00000" pt_clust_7="13000.00000" pt_clust_8="13000.00000" pt_clust_9="284.27850"></scales>
<clustering>
<clus scale="   81.197">  5  6 -1 -1</clus>
<clus scale="   90.038">  7  8 -1 -1</clus>
<clus scale="   95.819">  5  7 -1 -1</clus>
<clus scale="  284.279">  2  9  1 -1</clus>
<clus scale="  284.279">  2  5  1 -1</clus>
</clustering>
</event>
<event>
 9    1  0.1501443E-004  0.9137974E+02  0.7546771E-02  0.1305705E+00
         21   -1    0    0  501  502  0.00000000000E+00  0.00000000000E+00  0.97108605321E+02  0.97108605321E+02  0.00000000000E+00 0. -1.
          1   -1    0    0  502    0 -0.00000000000E+00 -0.00000000000E+00 -0.29399877167E+03  0.29399877167E+03  0.00000000000E+00 0. -1.
        -24    2    1    2    0    0 -0.62785777596E+01  0.13708992217E+02 -0.74430965448E+02  0.11027122880E+03  0.79952600188E+02 0.  0.
         23    2    1    2    0    0  0.49686220083E+02  0.19922553088E+02  0.37937625526E+02  0.11130017508E+03  0.89904599185E+02 0.  0.
         13    1    3    3    0    0  0.14673792309E+02  0.41811113195E+02 -0.29282956363E+02  0.53112907100E+02  0.00000000000E+00 0. -1.
        -14    1    3    3    0    0 -0.20952370068E+02 -0.28102120978E+02 -0.45148009085E+02  0.57158321698E+02  0.00000000000E+00 0.  1.
        -11    1    4    4    0    0  0.69049957633E+02  0.10542997384E+02  0.50675647443E+02  0.86296423372E+02  0.00000000000E+00 0. -1.
         11    1    4    4    0    0 -0.19363737550E+02  0.93795557044E+01 -0.12738021917E+02  0.25003751708E+02  0.00000000000E+00 0.  1.
          2    1    1    2  501    0 -0.43407642324E+02 -0.33631545305E+02 -0.16039682642E+03  0.16953597311E+03  0.00000000000E+00 0. -1.
<scales pt_clust_5="13000.00000" pt_clust_6="13000.00000" pt_clust_7="13000.00000" pt_clust_8="13000.00000" pt_clust_9="54.91181"></scales>
<clustering>
<clus scale="   54.912">  1  9  2 -1</clus>
<clus scale="   79.953">  5  6 -1 -1</clus>
<clus scale="   81.608">  2  5  1 -1</clus>
<clus scale="   89.905">  7  8 -1 -1</clus>
<clus scale="   54.912">  1  5  2 -1</clus>
</clustering>
</event>
<event>
 9    1  0.1487426E-004  0.1307037E+03  0.7546771E-02  0.1244366E+00
         -2   -1    0    0    0  501 -0.00000000000E+00  0.00000000000E+00  0.88070155885E+03  0.88070155885E+03  0.00000000000E+00 0.  1.
         21   -1    0    0  501  502  0.00000000000E+00 -0.00000000000E+00 -0.42893755649E+03  0.42893755649E+03  0.00000000000E+00 0. -1.
        -24    2    1    2    0    0 -0.78031949025E+00 -0.48552089072E+02  0.21327347042E+03  0.23168756644E+03  0.76391367345E+02 0.  0.
         23    2    1    2    0    0  0.91877035341E+02 -0.17058067480E+02 -0.40458775209E+03  0.42514760922E+03  0.91251702444E+02 0.  0.
         13    1    3    3    0    0 -0.19756259229E+02 -0.51233432880E+02  0.79930974504E+02  0.96974919998E+02  0.00000000000E+00 0. -1.
        -14    1    3    3    0    0  0.18975939739E+02  0.26813438080E+01  0.13334249592E+03  0.13471264644E+03  0.00000000000E+00 0.  1.
        -13    1    4    4    0    0  0.61601500105E+02  0.17097916668E+02 -0.34060917440E+03  0.34655691200E+03  0.00000000000E+00 0. -1.
         13    1    4    4    0    0  0.30275535236E+02 -0.34155984148E+02 -0.63978577686E+02  0.78590697221E+02  0.00000000000E+00 0.  1.
         -1    1    1    2    0  502 -0.91096715851E+02  0.65610156552E+02  0.64307828402E+03  0.65280393968E+03  0.00000000000E+00 0.  1.
<scales pt_clust_5="13000.00000" pt_clust_6="13000.00000" pt_clust_7="13000.00000" pt_clust_8="13000.00000" pt_clust_9="93.57661"></scales>
<clustering>
<clus scale="   76.391">  5  6 -1 -1</clus>
<clus scale="   90.518">  1  5  2 -1</clus>
<clus scale="   91.252">  7  8 -1 -1</clus>
<clus scale="   93.577">  2  9  1 -1</clus>
<clus scale="   93.577">  2  5  1 -1</clus>
</clustering>
</event>
<event>
 9    1  0.1487426E-004  0.1030845E+03  0.7546771E-02  0.1275759E+00
         21   -1    0    0  501  502  0.00000000000E+00  0.00000000000E+00  0.29455570388E+03  0.29455570388E+03  0.00000000000E+00 0. -1.
          3   -1    0    0  502    0 -0.00000000000E+00 -0.00000000000E+00 -0.13607486032E+03  0.13607486032E+03  0.00000000000E+00 0. -1.
        -24    2    1    2    0    0 -0.12814922376E+02 -0.50892522936E+02  0.54076827444E+02  0.11739171819E+03  0.90012449730E+02 0.  0.
         23    2    1    2    0    0  0.60720143829E+02 -0.92050588727E+01  0.17565709916E+03  0.20843602437E+03  0.93906819741E+02 0.  0.
         11    1    3    3    0    0  0.46335745431E+01  0.25127895462E+02  0.19151751223E+02  0.31932283325E+02  0.00000000000E+00 0. -1.
        -12    1    3    3    0    0 -0.17448496919E+02 -0.76020418398E+02  0.34925076221E+02  0.85459434863E+02  0.00000000000E+00 0.  1.
        -13    1    4    4    0    0  0.39237299057E+02  0.33315711136E+02  0.41652004743E+02  0.66214739634E+02  0.00000000000E+00 0.  1.
         13    1    4    4    0    0  0.21482844773E+02 -0.42520770009E+02  0.13400509442E+03  0.14222128473E+03  0.00000000000E+00 0. -1.
          4    1    1    2  501    0 -0.47905221454E+02  0.60097581808E+02 -0.71253083045E+02  0.10480282165E+03  0.00000000000E+00 0. -1.
<scales pt_clust_5="13000.00000" pt_clust_6="13000.00000" pt_clust_7="13000.00000" pt_clust_8="13000.00000" pt_clust_9="76.85464"></scales>
<clustering>
<clus scale="   76.855">  1  9  2 -1</clus>
<clus scale="   90.012">  5  6 -1 -1</clus>
<clus scale="   93.907">  7  8 -1 -1</clus>
<clus scale="   99.550">  2  5  1 -1</clus>
<clus scale="   76.855">  1  5  2 -1</clus>
</clustering>
</event>
<event>
 9    1  0.1487426E-004  0.1031646E+03  0.7546771E-02  0.1278926E+00
          3   -1    0    0  502    0 -0.00000000000E+00  0.00000000000E+00  0.47552425913E+02  0.47552425913E+02  0.00000000000E+00 0. -1.
         21   -1    0    0  501  502  0.00000000000E+00 -0.00000000000E+00 -0.33412030811E+03  0.33412030811E+03  0.00000000000E+00 0.  1.
         23    2    1    2    0    0 -0.56322124580E+02  0.30521364003E+02 -0.97283922678E+02  0.14870396132E+03  0.92439012995E+02 0.  0.
        -24    2    1    2    0    0  0.84602043545E+01 -0.31905511810E+02 -0.12128325371E+03  0.14980162015E+03  0.81494546000E+02 0.  0.
         13    1    4    4    0    0  0.32455996064E+02 -0.31775934343E+02 -0.27723606757E+02  0.53213720557E+02  0.00000000000E+00 0. -1.
        -14    1    4    4    0    0 -0.23995791709E+02 -0.12957746717E+00 -0.93559646950E+02  0.96587899591E+02  0.00000000000E+00 0.  1.
        -11    1    3    3    0    0 -0.74019429693E+01  0.56460489210E+02 -0.45467476308E+02  0.72868834239E+02  0.00000000000E+00 0. -1.
         11    1    3    3    0    0 -0.48920181611E+02 -0.25939125207E+02 -0.51816446370E+02  0.75835127084E+02  0.00000000000E+00 0.  1.
          4    1    1    2  501    0  0.47861920226E+02  0.13841478072E+01 -0.68000705810E+02  0.83167152551E+02  0.00000000000E+00 0. -1.
<scales pt_clust_5="13000.00000" pt_clust_6="13000.00000" pt_clust_7="13000.00000" pt_clust_8="13000.00000" pt_clust_9="47.88193"></scales>
<clustering>
<clus scale="   47.882">  2  9  1 -1</clus>
<clus scale="   81.495">  5  6 -1 -1</clus>
<clus scale="   92.439">  7  8 -1 -1</clus>
<clus scale="   93.484">  2  5  1 -1</clus>
<clus scale="   47.882">  2  5  1 -1</clus>
</clustering>
</event>
<event>
 9    1  0.1487426E-004  0.4025466E+03  0.7546771E-02  0.1042937E+00
          1   -1    0    0  502    0 -0.00000000000E+00  0.00000000000E+00  0.19118219755E+04  0.19118219755E+04  0.00000000000E+00 0. -1.
         21   -1    0    0  501  502  0.00000000000E+00 -0.00000000000E+00 -0.11757591866E+03  0.11757591866E+03  0.00000000000E+00 0.  1.
         23    2    1    2    0    0  0.37864763937E+03  0.20837627175E+03  0.10136261112E+04  0.11056753378E+04  0.91023918941E+02 0.  0.
        -24    2    1    2    0    0 -0.34340705574E+03 -0.92479433898E+02  0.64460471998E+03  0.74158492336E+03  0.89174558611E+02 0.  0.
         11    1    4    4    0    0 -0.62274185286E+02 -0.48081118927E+02  0.10150366430E+03  0.12842453822E+03  0.00000000000E+00 0. -1.
        -12    1    4    4    0    0 -0.28113287045E+03 -0.44398314971E+02  0.54310105569E+03  0.61316038514E+03  0.00000000000E+00 0.  1.
        -13    1    3    3    0    0  0.85163747334E+02  0.42582596532E+02  0.14032486232E+03  0.16957950458E+03  0.00000000000E+00 0.  1.
         13    1    3    3    0    0  0.29348389203E+03  0.16579367522E+03  0.87330124892E+03  0.93609583323E+03  0.00000000000E+00 0. -1.
          2    1    1    2  501    0 -0.35240583632E+02 -0.11589683785E+03  0.13601522563E+03  0.18213763301E+03  0.00000000000E+00 0. -1.
<scales pt_clust_5="13000.00000" pt_clust_6="13000.00000" pt_clust_7="13000.00000" pt_clust_8="13000.00000" pt_clust_9="121.13619"></scales>
<clustering>
<clus scale="   89.175">  5  6 -1 -1</clus>
<clus scale="   91.024">  7  8 -1 -1</clus>
<clus scale="  121.136">  2  9  1 -1</clus>
<clus scale="  402.133">  2  5  1 -1</clus>
<clus scale="  121.136">  2  5  1 -1</clus>
</clustering>
</event>
<event>
 9    1  0.1487426E-004  0.1079056E+03  0.7546771E-02  0.1271971E+00
          3   -1    0    0  502    0 -0.00000000000E+00  0.00000000000E+00  0.13961981225E+03  0.13961981225E+03  0.00000000000E+00 0. -1.
         21   -1    0    0  501  502  0.00000000000E+00 -0.00000000000E+00 -0.38179961337E+03  0.38179961337E+03  0.00000000000E+00 0. -1.
        -24    2    1    2    0    0  0.30123006607E+02 -0.15853767682E+02  0.42027857646E+02  0.97486032342E+02  0.81107633467E+02 0.  0.
         23    2    1    2    0    0 -0.53465096375E+02  0.45210155402E+02  0.16253764296E+02  0.12114020082E+03  0.97510454410E+02 0.  0.
         11    1    3    3    0    0 -0.27167307366E+02 -0.10513398105E+02  0.22204377425E+02  0.36628247380E+02  0.00000000000E+00 0. -1.
        -12    1    3    3    0    0  0.57290313974E+02 -0.53403695765E+01  0.19823480221E+02  0.60857784962E+02  0.00000000000E+00 0.  1.
        -13    1    4    4    0    0 -0.13010820729E+02  0.40297613226E+02  0.51910390104E+02  0.66991549382E+02  0.00000000000E+00 0.  1.
         13    1    4    4    0    0 -0.40454275645E+02  0.49125421762E+01 -0.35656625808E+02  0.54148651439E+02  0.00000000000E+00 0. -1.
          4    1    1    2  501    0  0.23342089767E+02 -0.29356387721E+02 -0.30046142306E+03  0.30279319246E+03  0.00000000000E+00 0. -1.
<scales pt_clust_5="13000.00000" pt_clust_6="13000.00000" pt_clust_7="13000.00000" pt_clust_8="13000.00000" pt_clust_9="37.50534"></scales>
<clustering>
<clus scale="   37.505">  2  9  1 -1</clus>
<clus scale="   81.108">  5  6 -1 -1</clus>
<clus scale="   93.348">  1  5  2 -1</clus>
<clus scale="   97.510">  7  8 -1 -1</clus>
<clus scale="   37.505">  2  5  1 -1</clus>
</clustering>
</event>
<event>
 9    1  0.1487426E-004  0.1833630E+03  0.7546771E-02  0.1188110E+00
         -4   -1    0    0    0  501 -0.00000000000E+00  0.00000000000E+00  0.54936710619E+03  0.54936710619E+03  0.00000000000E+00 0.  1.
         21   -1    0    0  501  502  0.00000000000E+00 -0.00000000000E+00 -0.96781138875E+02  0.96781138875E+02  0.00000000000E+00 0. -1.
        -24    2    1    2    0    0 -0.71929916992E+02 -0.33930960801E+01  0.98402017902E+02  0.14587901386E+03  0.80076859945E+02 0.  0.
         23    2    1    2    0    0  0.24929658462E+01 -0.15265470366E+03  0.22363048059E+03  0.28528873393E+03  0.89829819255E+02 0.  0.
         13    1    3    3    0    0 -0.50258770073E+02  0.49373437843E+01  0.62957248114E+01  0.50891624888E+02  0.00000000000E+00 0. -1.
        -14    1    3    3    0    0 -0.21671146919E+02 -0.83304398644E+01  0.92106293090E+02  0.94987388973E+02  0.00000000000E+00 0.  1.
        -11    1    4    4    0    0 -0.16009218841E+02 -0.67610220256E+02  0.35548795579E+02  0.78045844464E+02  0.00000000000E+00 0.  1.
         11    1    4    4    0    0  0.18502184688E+02 -0.85044483405E+02  0.18808168501E+03  0.20724288946E+03  0.00000000000E+00 0. -1.
         -3    1    1    2    0  502  0.69436951146E+02  0.15604779974E+03  0.13055346883E+03  0.21498049728E+03  0.00000000000E+00 0.  1.
<scales pt_clust_5="13000.00000" pt_clust_6="13000.00000" pt_clust_7="13000.00000" pt_clust_8="13000.00000" pt_clust_9="159.85183"></scales>
<clustering>
<clus scale="   80.077">  5  6 -1 -1</clus>
<clus scale="   89.830">  7  8 -1 -1</clus>
<clus scale="  107.693">  1  5  2 -1</clus>
<clus scale="  159.852">  2  9  1 -1</clus>
<clus scale="  159.852">  2  5  1 -1</clus>
</clustering>
</event>
<event>
 9    1  0.1487426E-004  0.9693052E+02  0.7546771E-02  0.1289811E+00
         21   -1    0    0  501  502  0.00000000000E+00  0.00000000000E+00  0.33157296169E+03  0.33157296169E+03  0.00000000000E+00 0. -1.
         -2   -1    0    0    0  501 -0.00000000000E+00 -0.00000000000E+00 -0.18651633673E+03  0.18651633673E+03  0.00000000000E+00 0.  1.
         23    2    1    2    0    0  0.35636270320E+02 -0.16439289421E+02 -0.68687302450E+02  0.11955951861E+03  0.89645629972E+02 0.  0.
        -24    2    1    2    0    0 -0.37615851870E+02 -0.75289466499E+02  0.26834143136E+03  0.29176381687E+03  0.77688769931E+02 0.  0.
         11    1    4    4    0    0 -0.31525001204E+02 -0.65821082427E+02  0.27061068725E+03  0.28027911918E+03  0.00000000000E+00 0. -1.
        -12    1    4    4    0    0 -0.60908506667E+01 -0.94683840717E+01 -0.22692558925E+01  0.11484697692E+02  0.00000000000E+00 0.  1.
        -13    1    3    3    0    0  0.33494649333E+02  0.31352051401E+02 -0.50888871597E+02  0.68516566708E+02  0.00000000000E+00 0. -1.
         13    1    3    3    0    0  0.21416209868E+01 -0.47791340821E+02 -0.17798430853E+02  0.51042951901E+02  0.00000000000E+00 0.  1.
         -1    1    1    2    0  502  0.19795815506E+01  0.91728755920E+02 -0.54597503948E+02  0.10676596294E+03  0.00000000000E+00 0.  1.
<scales pt_clust_5="13000.00000" pt_clust_6="13000.00000" pt_clust_7="13000.00000" pt_clust_8="13000.00000" pt_clust_9="91.75016"></scales>
<clustering>
<clus scale="   77.689">  5  6 -1 -1</clus>
<clus scale="   89.646">  7  8 -1 -1</clus>
<clus scale="   91.750">  1  9  2 -1</clus>
<clus scale="   91.750">  1  5  2 -1</clus>
<clus scale="   91.750">  1  5  2 -1</clus>
</clustering>
</event>
<event>
 9    1  0.1487426E-004  0.1020901E+03  0.7546771E-02  0.1282809E+00
          1   -1    0    0  502    0 -0.00000000000E+00  0.00000000000E+00  0.70259468184E+02  0.70259468184E+02  0.00000000000E+00 0. -1.
         21   -1    0    0  501  502  0.00000000000E+00 -0.00000000000E+00 -0.44097618788E+03  0.44097618788E+03  0.00000000000E+00 0. -1.
        -24    2    1    2    0    0 -0.12348243340E+02 -0.38379206441E+02 -0.13924787288E+02  0.91025529297E+02  0.80413336470E+02 0.  0.
         23    2    1    2    0    0 -0.25027666695E+02  0.41490975777E+02 -0.36648753974E+03  0.38147194714E+03  0.94126746995E+02 0.  0.
         13    1    3    3    0    0  0.22275211326E+02 -0.40573019924E+02 -0.27422787478E+02  0.53799296077E+02  0.00000000000E+00 0. -1.
        -14    1    3    3    0    0 -0.34623454666E+02  0.21938134829E+01  0.13498000190E+02  0.37226233220E+02  0.00000000000E+00 0.  1.
        -11    1    4    4    0    0 -0.51620354123E+02  0.47428585728E+02 -0.31999379351E+03  0.32758229437E+03  0.00000000000E+00 0. -1.
         11    1    4    4    0    0  0.26592687428E+02 -0.59376099511E+01 -0.46493746229E+02  0.53889652764E+02  0.00000000000E+00 0.  1.
          2    1    1    2  501    0  0.37375910035E+02 -0.31117693361E+01  0.96956073297E+01  0.38738179627E+02  0.00000000000E+00 0. -1.
<scales pt_clust_5="13000.00000" pt_clust_6="13000.00000" pt_clust_7="13000.00000" pt_clust_8="13000.00000" pt_clust_9="37.50524"></scales>
<clustering>
<clus scale="   37.505">  2  9  1 -1</clus>
<clus scale="   80.413">  5  6 -1 -1</clus>
<clus scale="   89.604">  1  5  2 -1</clus>
<clus scale="   94.127">  7  8 -1 -1</clus>
<clus scale="   37.505">  2  5  1 -1</clus>
</clustering>
</event>
<event>
 9    1  0.1487426E-004  0.1804901E+03  0.7546771E-02  0.1200057E+00
          1   -1    0    0  502    0 -0.00000000000E+00  0.00000000000E+00  0.29710056739E+03  0.29710056739E+03  0.00000000000E+00 0. -1.
         21   -1    0    0  501  502  0.00000000000E+00 -0.00000000000E+00 -0.35814102697E+03  0.35814102697E+03  0.00000000000E+00 0.  1.
        -24    2    1    2    0    0 -0.24285054151E+02 -0.25607439368E+02  0.19490938262E+03  0.21339622577E+03  0.79390030453E+02 0.  0.
         23    2    1    2    0    0 -0.10725899199E+03 -0.75532643107E+02 -0.31834101094E+02  0.16298874275E+03  0.91335911510E+02 0.  0.
         13    1    3    3    0    0 -0.52066892529E+02 -0.69609235424E+01  0.10375357752E+03  0.11629368255E+03  0.00000000000E+00 0. -1.
        -14    1    3    3    0    0  0.27781838378E+02 -0.18646515826E+02  0.91155805104E+02  0.97102543222E+02  0.00000000000E+00 0.  1.
        -13    1    4    4    0    0 -0.71413836477E+02  0.30661816970E+01 -0.17088672597E+01  0.71500054111E+02  0.00000000000E+00 0.  1.
         13    1    4    4    0    0 -0.35845155516E+02 -0.78598824804E+02 -0.30125233834E+02  0.91488688635E+02  0.00000000000E+00 0. -1.
          2    1    1    2  501    0  0.13154404614E+03  0.10114008248E+03 -0.22411574111E+03  0.27885662583E+03  0.00000000000E+00 0. -1.
<scales pt_clust_5="13000.00000" pt_clust_6="13000.00000" pt_clust_7="13000.00000" pt_clust_8="13000.00000" pt_clust_9="155.67409"></scales>
<clustering>
<clus scale="   79.390">  5  6 -1 -1</clus>
<clus scale="   86.881">  1  5  2 -1</clus>
<clus scale="   91.336">  7  8 -1 -1</clus>
<clus scale="  155.674">  2  9  1 -1</clus>
<clus scale="  155.674">  2  5  1 -1</clus>
</clustering>
</event>
<event>
 9    1  0.1487426E-004  0.9586036E+02  0.7546771E-02  0.1291387E+00
          3   -1    0    0  502    0 -0.00000000000E+00  0.00000000000E+00  0.12835422873E+03  0.12835422873E+03  0.00000000000E+00 0. -1.
         21   -1    0    0  501  502  0.00000000000E+00 -0.00000000000E+00 -0.19374841155E+03  0.19374841155E+03  0.00000000000E+00 0. -1.
         23    2    1    2    0    0 -0.39389283904E+02  0.16724152163E+01  0.66094847392E+02  0.11752848315E+03  0.88826250855E+02 0.  0.
        -24    2    1    2    0    0  0.14737558008E+02 -0.48110237790E+00 -0.15054577880E+03  0.17339264847E+03  0.84755837286E+02 0.  0.
         13    1    4    4    0    0 -0.35073679103E+02  0.64433340483E+01 -0.58844507757E+02  0.68806653840E+02  0.00000000000E+00 0. -1.
        -14    1    4    4    0    0  0.49811237111E+02 -0.69244364262E+01 -0.91701271039E+02  0.10458599463E+03  0.00000000000E+00 0.  1.
        -11    1    3    3    0    0 -0.32641116948E+02  0.36956434006E+02  0.65003409996E+02  0.81588380553E+02  0.00000000000E+00 0. -1.
         11    1    3    3    0    0 -0.67481669557E+01 -0.35284018790E+02  0.10914373959E+01  0.35940102599E+02  0.00000000000E+00 0.  1.
          4    1    1    2  501    0  0.24651725896E+02 -0.11913128384E+01  0.19056748578E+02  0.31181508660E+02  0.00000000000E+00 0. -1.
<scales pt_clust_5="13000.00000" pt_clust_6="13000.00000" pt_clust_7="13000.00000" pt_clust_8="13000.00000" pt_clust_9="24.68051"></scales>
<clustering>
<clus scale="   24.681">  2  9  1 -1</clus>
<clus scale="   84.756">  5  6 -1 -1</clus>
<clus scale="   88.826">  7  8 -1 -1</clus>
<clus scale="   92.101">  2  5  1 -1</clus>
<clus scale="   24.681">  2  5  1 -1</clus>
</clustering>
</event>
<event>
 9    1  0.1991660E-004  0.1689748E+03  0.7546771E-02  0.1180441E+00
         21   -1    0    0  501  502  0.00000000000E+00  0.00000000000E+00  0.64524041992E+02  0.64524041992E+02  0.00000000000E+00 0. -1.
          3   -1    0    0  502    0 -0.00000000000E+00 -0.00000000000E+00 -0.57389479023E+03  0.57389479023E+03  0.00000000000E+00 0. -1.
        -24    2    1    2    0    0 -0.10764320125E+02  0.14764747464E+03 -0.24024998037E+03  0.29357745512E+03  0.80944559612E+02 0.  0.
         23    2    1    2    0    0  0.29882725693E+02 -0.13086090147E+03 -0.14424161249E+03  0.21739685615E+03  0.91859661792E+02 0.  0.
         11    1    3    3    0    0  0.23374492590E+02  0.12632509499E+03 -0.18376235953E+03  0.22421641623E+03  0.00000000000E+00 0. -1.
        -12    1    3    3    0    0 -0.34138812715E+02  0.21322379660E+02 -0.56487620841E+02  0.69361038892E+02  0.00000000000E+00 0.  1.
        -13    1    4    4    0    0 -0.26087809250E+02 -0.94403885485E+01 -0.35525246996E+02  0.45074803400E+02  0.00000000000E+00 0.  1.
         13    1    4    4    0    0  0.55970534943E+02 -0.12142051292E+03 -0.10871636549E+03  0.17232205275E+03  0.00000000000E+00 0. -1.
          4    1    1    2  501    0 -0.19118405568E+02 -0.16786573176E+02 -0.12487915538E+03  0.12744452095E+03  0.00000000000E+00 0. -1.
<scales pt_clust_5="13000.00000" pt_clust_6="13000.00000" pt_clust_7="13000.00000" pt_clust_8="13000.00000" pt_clust_9="25.44215"></scales>
<clustering>
<clus scale="   25.442">  1  9  2 -1</clus>
<clus scale="   80.945">  5  6 -1 -1</clus>
<clus scale="   91.860">  7  8 -1 -1</clus>
<clus scale="  163.298">  2  5  1 -1</clus>
<clus scale="   25.442">  1  5  2 -1</clus>
</clustering>
</event>
<event>
 9    1  0.1487426E-004  0.1643700E+03  0.7546771E-02  0.1185582E+00
         21   -1    0    0  501  502  0.00000000000E+00  0.00000000000E+00  0.48709872838E+02  0.48709872838E+02  0.00000000000E+00 0.  1.
          1   -1    0    0  502    0 -0.00000000000E+00 -0.00000000000E+00 -0.14290710328E+04  0.14290710328E+04  0.00000000000E+00 0. -1.
        -24    2    1    2    0    0  0.59988098265E+02  0.13765343738E+03 -0.36473489170E+03  0.40264428375E+03  0.80893987767E+02 0.  0.
         23    2    1    2    0    0 -0.14488506866E+03 -0.40326646406E+02 -0.30119490529E+03  0.34912548408E+03  0.92478706351E+02 0.  0.
         13    1    3    3    0    0  0.40511337499E+02  0.26263581120E+02 -0.17715764873E+03  0.18361856296E+03  0.00000000000E+00 0. -1.
        -14    1    3    3    0    0  0.19476760766E+02  0.11138985626E+03 -0.18757724297E+03  0.21902572079E+03  0.00000000000E+00 0.  1.
        -11    1    4    4    0    0 -0.10291894077E+03 -0.70595748602E+02 -0.21192131016E+03  0.24594045985E+03  0.00000000000E+00 0.  1.
         11    1    4    4    0    0 -0.41966127889E+02  0.30269102196E+02 -0.89273595127E+02  0.10318502423E+03  0.00000000000E+00 0. -1.
          2    1    1    2  501    0  0.84896970397E+02 -0.97326790977E+02 -0.71443136298E+03  0.72601113782E+03  0.00000000000E+00 0. -1.
<scales pt_clust_5="13000.00000" pt_clust_6="13000.00000" pt_clust_7="13000.00000" pt_clust_8="13000.00000" pt_clust_9="129.15114"></scales>
<clustering>
<clus scale="   80.894">  5  6 -1 -1</clus>
<clus scale="   92.479">  7  8 -1 -1</clus>
<clus scale="  129.151">  1  9  2 -1</clus>
<clus scale="  158.142">  2  5  1 -1</clus>
<clus scale="  129.151">  1  5  2 -1</clus>
</clustering>
</event>
<event>
 9    1  0.1487426E-004  0.9867375E+02  0.7546771E-02  0.1288987E+00
          3   -1    0    0  502    0 -0.00000000000E+00  0.00000000000E+00  0.10622793264E+03  0.10622793264E+03  0.00000000000E+00 0. -1.
         21   -1    0    0  501  502  0.00000000000E+00 -0.00000000000E+00 -0.14576122711E+03  0.14576122711E+03  0.00000000000E+00 0. -1.
        -24    2    1    2    0    0  0.30105270826E+02 -0.14460128597E+02  0.20113354337E+02  0.88281701614E+02  0.79206623250E+02 0.  0.
         23    2    1    2    0    0 -0.33586703959E+02  0.50225208950E+02 -0.65821756836E+02  0.12724661189E+03  0.90601094186E+02 0.  0.
         11    1    3    3    0    0  0.47098646579E+02 -0.24000236350E+02  0.35309361078E+02  0.63569212943E+02  0.00000000000E+00 0. -1.
        -12    1    3    3    0    0 -0.16993375754E+02  0.95401077530E+01 -0.15196006740E+02  0.24712488671E+02  0.00000000000E+00 0.  1.
        -11    1    4    4    0    0 -0.58879300916E+02  0.78071771939E+01 -0.32971164862E+02  0.67932479746E+02  0.00000000000E+00 0.  1.
         11    1    4    4    0    0  0.25292596957E+02  0.42418031756E+02 -0.32850591974E+02  0.59314132144E+02  0.00000000000E+00 0. -1.
          4    1    1    2  501    0  0.34814331333E+01 -0.35765080353E+02  0.61751080257E+01  0.36460846239E+02  0.00000000000E+00 0. -1.
<scales pt_clust_5="13000.00000" pt_clust_6="13000.00000" pt_clust_7="13000.00000" pt_clust_8="13000.00000" pt_clust_9="35.93414"></scales>
<clustering>
<clus scale="   35.934">  2  9  1 -1</clus>
<clus scale="   79.207">  5  6 -1 -1</clus>
<clus scale="   88.327">  1  5  2 -1</clus>
<clus scale="   90.601">  7  8 -1 -1</clus>
<clus scale="   35.934">  2  5  1 -1</clus>
</clustering>
</event>
<event>
 9    1  0.1487426E-004  0.1144683E+03  0.7546771E-02  0.1257061E+00
          3   -1    0    0  502    0 -0.00000000000E+00  0.00000000000E+00  0.36792307906E+03  0.36792307906E+03  0.00000000000E+00 0. -1.
         21   -1    0    0  501  502  0.00000000000E+00 -0.00000000000E+00 -0.18717790889E+03  0.18717790889E+03  0.00000000000E+00 0. -1.
        -24    2    1    2    0    0  0.21336055375E+02 -0.69126990840E+02  0.29699721663E+03  0.31614752696E+03  0.80673068577E+02 0.  0.
         23    2    1    2    0    0  0.65313364281E+01  0.42837236707E+02  0.13570838534E+02  0.10359569740E+03  0.93113982067E+02 0.  0.
         11    1    3    3    0    0 -0.92838474074E+00 -0.81260543287E+02  0.24804549899E+03  0.26101859582E+03  0.00000000000E+00 0. -1.
        -12    1    3    3    0    0  0.22264440116E+02  0.12133552447E+02  0.48951717640E+02  0.55128931139E+02  0.00000000000E+00 0.  1.
        -11    1    4    4    0    0  0.45023952315E+02  0.56972340915E+00  0.88266590183E+00  0.45036207278E+02  0.00000000000E+00 0. -1.
         11    1    4    4    0    0 -0.38492615887E+02  0.42267513298E+02  0.12688172632E+02  0.58559490119E+02  0.00000000000E+00 0.  1.
          4    1    1    2  501    0 -0.27867391803E+02  0.26289754133E+02 -0.12982288499E+03  0.13535776359E+03  0.00000000000E+00 0. -1.
<scales pt_clust_5="13000.00000" pt_clust_6="13000.00000" pt_clust_7="13000.00000" pt_clust_8="13000.00000" pt_clust_9="38.31113"></scales>
<clustering>
<clus scale="   38.311">  2  9  1 -1</clus>
<clus scale="   80.673">  5  6 -1 -1</clus>
<clus scale="   93.114">  7  8 -1 -1</clus>
<clus scale="  104.599">  1  5  2 -1</clus>
<clus scale="   38.311">  2  5  1 -1</clus>
</clustering>
</event>
<event>
 9    1  0.1487426E-004  0.2044803E+03  0.7546771E-02  0.1164002E+00
         21   -1    0    0  501  502  0.00000000000E+00  0.00000000000E+00  0.24856062457E+03  0.24856062457E+03  0.00000000000E+00 0. -1.
          3   -1    0    0  502    0 -0.00000000000E+00 -0.00000000000E+00 -0.52936119300E+03  0.52936119300E+03  0.00000000000E+00 0. -1.
        -24    2    1    2    0    0  0.36765964825E+02 -0.99104487090E+02 -0.56007887183E+02  0.14525190889E+03  0.82388094275E+02 0.  0.
         23    2    1    2    0    0 -0.18157048172E+03  0.65113418273E+02  0.12905493941E+03  0.24883155792E+03  0.89746140636E+02 0.  0.
         11    1    3    3    0    0  0.36308752025E+02 -0.10995221106E+03 -0.33949760781E+02  0.12066648436E+03  0.00000000000E+00 0. -1.
        -12    1    3    3    0    0  0.45721280057E+00  0.10847723971E+02 -0.22058126402E+02  0.24585424529E+02  0.00000000000E+00 0.  1.
        -11    1    4    4    0    0 -0.51615530590E+02  0.36772037495E+02  0.90246829795E+02  0.11027618069E+03  0.00000000000E+00 0. -1.
         11    1    4    4    0    0 -0.12995495113E+03  0.28341380779E+02  0.38808109620E+02  0.13855537723E+03  0.00000000000E+00 0.  1.
          4    1    1    2  501    0  0.14480451689E+03  0.33991068817E+02 -0.35384762066E+03  0.38383835076E+03  0.00000000000E+00 0. -1.
<scales pt_clust_5="13000.00000" pt_clust_6="13000.00000" pt_clust_7="13000.00000" pt_clust_8="13000.00000" pt_clust_9="183.73308"></scales>
<clustering>
<clus scale="   82.388">  5  6 -1 -1</clus>
<clus scale="   89.746">  7  8 -1 -1</clus>
<clus scale="  134.020">  2  5  1 -1</clus>
<clus scale="  183.733">  1  9  2 -1</clus>
<clus scale="  183.733">  1  5  2 -1</clus>
</clustering>
</event>
<event>
 9    1  0.1487426E-004  0.1343577E+03  0.7546771E-02  0.1223588E+00
          1   -1    0    0  502    0 -0.00000000000E+00  0.00000000000E+00  0.60234495397E+03  0.60234495397E+03  0.00000000000E+00 0. -1.
         21   -1    0    0  501  502  0.00000000000E+00 -0.00000000000E+00 -0.45793085469E+03  0.45793085469E+03  0.00000000000E+00 0. -1.
         23    2    1    2    0    0 -0.20336566139E+02  0.10291246951E+03  0.56325357523E+03  0.58002001159E+03  0.90355251834E+02 0.  0.
        -24    2    1    2    0    0 -0.62298105450E+01 -0.50057667123E+02 -0.50530132587E+02  0.10722607316E+03  0.79997224263E+02 0.  0.
         13    1    4    4    0    0 -0.42996895958E+02 -0.23287466173E+02 -0.29613704107E+02  0.57166516544E+02  0.00000000000E+00 0. -1.
        -14    1    4    4    0    0  0.36767085413E+02 -0.26770200950E+02 -0.20916428480E+02  0.50059556621E+02  0.00000000000E+00 0.  1.
        -11    1    3    3    0    0  0.31441026446E+02  0.16728654509E+02  0.19819084864E+03  0.20136533592E+03  0.00000000000E+00 0.  1.
         11    1    3    3    0    0 -0.51777592585E+02  0.86183815003E+02  0.36506272659E+03  0.37865467567E+03  0.00000000000E+00 0. -1.
          2    1    1    2  501    0  0.26566376684E+02 -0.52854802388E+02 -0.36830934337E+03  0.37302972391E+03  0.00000000000E+00 0. -1.
<scales pt_clust_5="13000.00000" pt_clust_6="13000.00000" pt_clust_7="13000.00000" pt_clust_8="13000.00000" pt_clust_9="59.15575"></scales>
<clustering>
<clus scale="   59.156">  2  9  1 -1</clus>
<clus scale="   79.997">  5  6 -1 -1</clus>
<clus scale="   90.355">  7  8 -1 -1</clus>
<clus scale="  127.622">  2  5  1 -1</clus>
<clus scale="   59.156">  2  5  1 -1</clus>
</clustering>
</event>
<event>
 9    1  0.1487426E-004  0.9735157E+02  0.7546771E-02  0.1291785E+00
          1   -1    0    0  502    0 -0.00000000000E+00  0.00000000000E+00  0.74231041955E+03  0.74231041955E+03  0.00000000000E+00 0. -1.
         21   -1    0    0  501  502  0.00000000000E+00 -0.00000000000E+00 -0.20414709265E+02  0.20414709265E+02  0.00000000000E+00 0. -1.
         23    2    1    2    0    0 -0.33520145729E+02 -0.18456642032E+02  0.52996587934E+03  0.53915413024E+03  0.91428086978E+02 0.  0.
        -24    2    1    2    0    0  0.13925298010E+02  0.12021995075E+02  0.10201659364E+03  0.13132267620E+03  0.80621446374E+02 0.  0.
         13    1    4    4    0    0  0.32581448142E+02 -0.15844059357E+02  0.17175843942E+02  0.40094820052E+02  0.00000000000E+00 0. -1.
        -14    1    4    4    0    0 -0.18656150131E+02  0.27866054432E+02  0.84840749700E+02  0.91227856146E+02  0.00000000000E+00 0.  1.
        -13    1    3    3    0    0 -0.43990816683E+01  0.36570680625E+02  0.20233721462E+03  0.20566262426E+03  0.00000000000E+00 0.  1.
         13    1    3    3    0    0 -0.29121064060E+02 -0.55027322656E+02  0.32762866472E+03  0.33349150598E+03  0.00000000000E+00 0. -1.
          2    1    1    2  501    0  0.19594847718E+02  0.64346469568E+01  0.89913237302E+02  0.92248322373E+02  0.00000000000E+00 0. -1.
<scales pt_clust_5="13000.00000" pt_clust_6="13000.00000" pt_clust_7="13000.00000" pt_clust_8="13000.00000" pt_clust_9="20.62433"></scales>
<clustering>
<clus scale="   20.624">  2  9  1 -1</clus>
<clus scale="   80.621">  5  6 -1 -1</clus>
<clus scale="   87.281">  2  5  1 -1</clus>
<clus scale="   91.428">  7  8 -1 -1</clus>
<clus scale="   20.624">  2  5  1 -1</clus>
</clustering>
</event>
<event>
 9    1  0.1487426E-004  0.4455869E+03  0.7546771E-02  0.1075928E+00
         -4   -1    0    0    0  501 -0.00000000000E+00  0.00000000000E+00  0.90476823214E+03  0.90476823214E+03  0.00000000000E+00 0.  1.
         21   -1    0    0  501  502  0.00000000000E+00 -0.00000000000E+00 -0.52638774086E+03  0.52638774086E+03  0.00000000000E+00 0.  1.
         23    2    1    2    0    0 -0.43024016811E+02  0.59370697131E+02  0.86540667442E+02  0.14603525965E+03  0.91984043390E+02 0.  0.
        -24    2    1    2    0    0  0.21780817124E+03 -0.45009739391E+03  0.57940083377E+03  0.76945785193E+03  0.79573841596E+02 0.  0.
         13    1    4    4    0    0 -0.25301982197E+01 -0.44409359521E+02  0.56846427323E+02  0.72181087658E+02  0.00000000000E+00 0. -1.
        -14    1    4    4    0    0  0.22033836946E+03 -0.40568803439E+03  0.52255440644E+03  0.69727676428E+03  0.00000000000E+00 0.  1.
        -11    1    3    3    0    0 -0.83497180316E+01  0.55363095814E+02  0.94861423833E+02  0.11015207624E+03  0.00000000000E+00 0.  1.
         11    1    3    3    0    0 -0.34674298780E+02  0.40076013175E+01 -0.83207563910E+01  0.35883183403E+02  0.00000000000E+00 0. -1.
         -3    1    1    2    0  502 -0.17478415443E+03  0.39072669678E+03 -0.28756100994E+03  0.51566286142E+03  0.00000000000E+00 0.  1.
<scales pt_clust_5="13000.00000" pt_clust_6="13000.00000" pt_clust_7="13000.00000" pt_clust_8="13000.00000" pt_clust_9="438.42414"></scales>
<clustering>
<clus scale="   79.574">  5  6 -1 -1</clus>
<clus scale="   91.984">  7  8 -1 -1</clus>
<clus scale="  117.631">  1  7  2 -1</clus>
<clus scale="  438.424">  2  9  1 -1</clus>
<clus scale="  438.424">  2  5  1 -1</clus>
</clustering>
</event>
<event>
 9    1  0.1487426E-004  0.1048920E+03  0.7546771E-02  0.1277288E+00
         21   -1    0    0  501  502  0.00000000000E+00  0.00000000000E+00  0.51471130325E+03  0.51471130325E+03  0.00000000000E+00 0. -1.
         -2   -1    0    0    0  501 -0.00000000000E+00 -0.00000000000E+00 -0.65519974410E+02  0.65519974410E+02  0.00000000000E+00 0.  1.
        -24    2    1    2    0    0 -0.78823183899E+02 -0.28583977045E+02  0.45501794318E+02  0.12221620844E+03  0.76395354941E+02 0.  0.
         23    2    1    2    0    0  0.68312621452E+01 -0.39150859782E+02  0.11252175182E+03  0.15052600827E+03  0.91746817759E+02 0.  0.
         11    1    3    3    0    0 -0.78003449753E+01 -0.26496285435E+02  0.43014789941E+02  0.51119181109E+02  0.00000000000E+00 0. -1.
        -12    1    3    3    0    0 -0.71022838924E+02 -0.20876916097E+01  0.24870043764E+01  0.71097027335E+02  0.00000000000E+00 0.  1.
        -13    1    4    4    0    0 -0.26328746854E+02 -0.15846809168E+02  0.10487075272E+03  0.10928036900E+03  0.00000000000E+00 0. -1.
         13    1    4    4    0    0  0.33160008999E+02 -0.23304050614E+02  0.76509990983E+01  0.41245639273E+02  0.00000000000E+00 0.  1.
         -1    1    1    2    0  502  0.71991921754E+02  0.67734836827E+02  0.29116778270E+03  0.30748906095E+03  0.00000000000E+00 0.  1.
<scales pt_clust_5="13000.00000" pt_clust_6="13000.00000" pt_clust_7="13000.00000" pt_clust_8="13000.00000" pt_clust_9="98.84758"></scales>
<clustering>
<clus scale="   76.395">  5  6 -1 -1</clus>
<clus scale="   91.747">  7  8 -1 -1</clus>
<clus scale="   98.848">  1  9  2 -1</clus>
<clus scale="   91.767">  2  5  1 -1</clus>
<clus scale="   98.848">  1  5  2 -1</clus>
</clustering>
</event>
<event>
 9    1  0.1487426E-004  0.1737960E+03  0.7546771E-02  0.1175025E+00
         21   -1    0    0  501  502  0.00000000000E+00  0.00000000000E+00  0.20272479249E+03  0.20272479249E+03  0.00000000000E+00 0. -1.
          3   -1    0    0  502    0 -0.00000000000E+00 -0.00000000000E+00 -0.37112534006E+03  0.37112534006E+03  0.00000000000E+00 0. -1.
        -24    2    1    2    0    0  0.99669263820E+02  0.12675294991E+03 -0.25301900681E+03  0.31098090193E+03  0.81793832867E+02 0.  0.
         23    2    1    2    0    0 -0.26026117121E+02 -0.12131513820E+03  0.38568214042E+01  0.15343740254E+03  0.90185585873E+02 0.  0.
         13    1    3    3    0    0  0.90805260010E+02  0.68832280308E+02 -0.11922422593E+03  0.16491784048E+03  0.00000000000E+00 0. -1.
        -14    1    3    3    0    0  0.88640038092E+01  0.57920669605E+02 -0.13379478088E+03  0.14606306145E+03  0.00000000000E+00 0.  1.
        -11    1    4    4    0    0 -0.23806894548E+02  0.65175653854E+01  0.66211465281E+01  0.25555556498E+02  0.00000000000E+00 0. -1.
         11    1    4    4    0    0 -0.22192225729E+01 -0.12783270358E+03 -0.27643251239E+01  0.12788184605E+03  0.00000000000E+00 0.  1.
          4    1    1    2  501    0 -0.73643146699E+02 -0.54378117139E+01  0.80761637835E+02  0.10943182808E+03  0.00000000000E+00 0. -1.
<scales pt_clust_5="13000.00000" pt_clust_6="13000.00000" pt_clust_7="13000.00000" pt_clust_8="13000.00000" pt_clust_9="73.84364"></scales>
<clustering>
<clus scale="   73.844">  1  9  2 -1</clus>
<clus scale="   81.794">  5  6 -1 -1</clus>
<clus scale="   90.186">  7  8 -1 -1</clus>
<clus scale="  169.593">  2  5  1 -1</clus>
<clus scale="   73.844">  1  5  2 -1</clus>
</clustering>
</event>
<event>
 9    1  0.1487426E-004  0.3276643E+03  0.7546771E-02  0.1115737E+00
         21   -1    0    0  501  502  0.00000000000E+00  0.00000000000E+00  0.10066159311E+04  0.10066159311E+04  0.00000000000E+00 0. -1.
          1   -1    0    0  502    0 -0.00000000000E+00 -0.00000000000E+00 -0.17607084778E+03  0.17607084778E+03  0.00000000000E+00 0. -1.
         23    2    1    2    0    0  0.28434765052E+02 -0.42621003818E+02 -0.13245519805E+02  0.10525868959E+03  0.90988252591E+02 0.  0.
        -24    2    1    2    0    0  0.24180096997E+03 -0.15594232842E+03  0.22572493059E+03  0.37424964469E+03  0.79531964583E+02 0.  0.
         13    1    4    4    0    0  0.17005023052E+03 -0.11628176469E+03  0.11329876969E+03  0.23510665859E+03  0.00000000000E+00 0. -1.
        -14    1    4    4    0    0  0.71750739444E+02 -0.39660563726E+02  0.11242616090E+03  0.13914298610E+03  0.00000000000E+00 0.  1.
        -13    1    3    3    0    0 -0.24577696314E+02  0.71913871856E+01 -0.19585932254E+02  0.32239540133E+02  0.00000000000E+00 0.  1.
         13    1    3    3    0    0  0.53012461366E+02 -0.49812391004E+02  0.63404124497E+01  0.73019149458E+02  0.00000000000E+00 0. -1.
          2    1    1    2  501    0 -0.27023573502E+03  0.19856333223E+03  0.61806567254E+03  0.70317844461E+03  0.00000000000E+00 0. -1.
<scales pt_clust_5="13000.00000" pt_clust_6="13000.00000" pt_clust_7="13000.00000" pt_clust_8="13000.00000" pt_clust_9="317.86564"></scales>
<clustering>
<clus scale="   79.532">  5  6 -1 -1</clus>
<clus scale="   90.988">  7  8 -1 -1</clus>
<clus scale="  104.422">  2  7  1 -1</clus>
<clus scale="  317.866">  1  9  2 -1</clus>
<clus scale="  317.866">  1  5  2 -1</clus>
</clustering>
</event>
<event>
 9    1  0.1487426E-004  0.1715577E+03  0.7546771E-02  0.1177676E+00
          1   -1    0    0  502    0 -0.00000000000E+00  0.00000000000E+00  0.25547652681E+03  0.25547652681E+03  0.00000000000E+00 0. -1.
         21   -1    0    0  501  502  0.00000000000E+00 -0.00000000000E+00 -0.17034833675E+03  0.17034833675E+03  0.00000000000E+00 0. -1.
         23    2    1    2    0    0 -0.11619239534E+03 -0.82262949626E+02  0.98256827804E+02  0.19618696441E+03  0.92558387950E+02 0.  0.
        -24    2    1    2    0    0  0.90105779479E+02  0.12536373486E+03 -0.28250768531E+02  0.17703687202E+03  0.81907451550E+02 0.  0.
         13    1    4    4    0    0  0.72740414023E+02  0.13596500964E+03 -0.22058276465E+02  0.15576976356E+03  0.00000000000E+00 0. -1.
        -14    1    4    4    0    0  0.17365365456E+02 -0.10601274780E+02 -0.61924920668E+01  0.21267108463E+02  0.00000000000E+00 0.  1.
        -11    1    3    3    0    0 -0.10111630149E+03 -0.17067045225E+02  0.53299629592E+02  0.11557093482E+03  0.00000000000E+00 0. -1.
         11    1    3    3    0    0 -0.15076093844E+02 -0.65195904401E+02  0.44957198212E+02  0.80616029593E+02  0.00000000000E+00 0.  1.
          2    1    1    2  501    0  0.26086615858E+02 -0.43100785235E+02  0.15122130791E+02  0.52601027123E+02  0.00000000000E+00 0. -1.
<scales pt_clust_5="13000.00000" pt_clust_6="13000.00000" pt_clust_7="13000.00000" pt_clust_8="13000.00000" pt_clust_9="50.38047"></scales>
<clustering>
<clus scale="   50.380">  2  9  1 -1</clus>
<clus scale="   81.907">  5  6 -1 -1</clus>
<clus scale="   92.558">  7  8 -1 -1</clus>
<clus scale="  166.054">  2  5  1 -1</clus>
<clus scale="   50.380">  2  5  1 -1</clus>
</clustering>
</event>
<event>
 9    1  0.1487426E-004  0.9745502E+02  0.7546771E-02  0.1291702E+00
         21   -1    0    0  501  502  0.00000000000E+00  0.00000000000E+00  0.27243373309E+03  0.27243373309E+03  0.00000000000E+00 0.  1.
         -4   -1    0    0    0  501 -0.00000000000E+00 -0.00000000000E+00 -0.20602237763E+03  0.20602237763E+03  0.00000000000E+00 0.  1.
        -24    2    1    2    0    0  0.48428860569E+02 -0.37612833522E+01 -0.10480850870E+03  0.14145003507E+03  0.81632022733E+02 0.  0.
         23    2    1    2    0    0  0.17009753191E+02 -0.50248471759E+02 -0.36392622998E+02  0.11272453240E+03  0.92564337514E+02 0.  0.
         13    1    3    3    0    0  0.20157678636E+02  0.33736988075E+02 -0.19047103064E+02  0.43672743301E+02  0.00000000000E+00 0. -1.
        -14    1    3    3    0    0  0.28271181934E+02 -0.37498271427E+02 -0.85761405638E+02  0.97777291765E+02  0.00000000000E+00 0.  1.
        -13    1    4    4    0    0  0.47657824017E+02 -0.60668302788E+01 -0.44563509774E+00  0.48044491987E+02  0.00000000000E+00 0.  1.
         13    1    4    4    0    0 -0.30648070827E+02 -0.44181641480E+02 -0.35946987900E+02  0.64680040417E+02  0.00000000000E+00 0. -1.
         -3    1    1    2    0  502 -0.65438613760E+02  0.54009755111E+02  0.20761248716E+03  0.22428154325E+03  0.00000000000E+00 0.  1.
<scales pt_clust_5="13000.00000" pt_clust_6="13000.00000" pt_clust_7="13000.00000" pt_clust_8="13000.00000" pt_clust_9="84.84849"></scales>
<clustering>
<clus scale="   81.632">  5  6 -1 -1</clus>
<clus scale="   84.848">  1  9  2 -1</clus>
<clus scale="   87.138">  2  5  1 -1</clus>
<clus scale="   92.564">  7  8 -1 -1</clus>
<clus scale="   84.848">  1  5  2 -1</clus>
</clustering>
</event>
<event>
 9    1  0.1487426E-004  0.1203179E+03  0.7546771E-02  0.1246026E+00
         21   -1    0    0  501  502  0.00000000000E+00  0.00000000000E+00  0.13733369568E+03  0.13733369568E+03  0.00000000000E+00 0. -1.
          1   -1    0    0  502    0 -0.00000000000E+00 -0.00000000000E+00 -0.23141702984E+03  0.23141702984E+03  0.00000000000E+00 0. -1.
        -24    2    1    2    0    0 -0.57531650449E+02 -0.74065191794E+02 -0.31870599453E+02  0.12781875989E+03  0.80785870244E+02 0.  0.
         23    2    1    2    0    0  0.27913512241E+02  0.41174772908E+02  0.53359205140E+02  0.11717459395E+03  0.91695990127E+02 0.  0.
         13    1    3    3    0    0  0.18200641577E+02 -0.32333536905E+02 -0.12989808472E+02  0.39312289259E+02  0.00000000000E+00 0. -1.
        -14    1    3    3    0    0 -0.75732292026E+02 -0.41731654889E+02 -0.18880790981E+02  0.88506470630E+02  0.00000000000E+00 0.  1.
        -11    1    4    4    0    0 -0.32374373991E+02  0.18696199310E+02  0.32496695278E+02  0.49534666285E+02  0.00000000000E+00 0.  1.
         11    1    4    4    0    0  0.60287886232E+02  0.22478573598E+02  0.20862509863E+02  0.67639927669E+02  0.00000000000E+00 0. -1.
          2    1    1    2  501    0  0.29618138208E+02  0.32890418885E+02 -0.11557193984E+03  0.12375737168E+03  0.00000000000E+00 0. -1.
<scales pt_clust_5="13000.00000" pt_clust_6="13000.00000" pt_clust_7="13000.00000" pt_clust_8="13000.00000" pt_clust_9="44.26077"></scales>
<clustering>
<clus scale="   44.261">  1  9  2 -1</clus>
<clus scale="   80.786">  5  6 -1 -1</clus>
<clus scale="   91.696">  7  8 -1 -1</clus>
<clus scale="  112.226">  2  5  1 -1</clus>
<clus scale="   44.261">  1  5  2 -1</clus>
</clustering>
</event>
<event>
 9    1  0.1487426E-004  0.1055456E+03  0.7546771E-02  0.1273755E+00
         21   -1    0    0  501  502  0.00000000000E+00  0.00000000000E+00  0.65116603224E+03  0.65116603224E+03  0.00000000000E+00 0. -1.
         -4   -1    0    0    0  501 -0.00000000000E+00 -0.00000000000E+00 -0.36298323177E+03  0.36298323177E+03  0.00000000000E+00 0.  1.
        -24    2    1    2    0    0  0.25918744041E+02  0.41103511464E+02 -0.34676297065E+03  0.36005919768E+03  0.83885565323E+02 0.  0.
         23    2    1    2    0    0 -0.73661276740E+01  0.99776790227E+01  0.29834782153E+03  0.31313307892E+03  0.94271356118E+02 0.  0.
         11    1    3    3    0    0  0.55315263571E+02  0.36471208028E+02 -0.21501125645E+03  0.22498837259E+03  0.00000000000E+00 0. -1.
        -12    1    3    3    0    0 -0.29396519530E+02  0.46323034354E+01 -0.13175171420E+03  0.13507082509E+03  0.00000000000E+00 0.  1.
        -13    1    4    4    0    0  0.22265063930E+02  0.40756361403E+02  0.10031089529E+03  0.11053999177E+03  0.00000000000E+00 0. -1.
         13    1    4    4    0    0 -0.29631191604E+02 -0.30778682381E+02  0.19803692624E+03  0.20259308715E+03  0.00000000000E+00 0.  1.
         -3    1    1    2    0  502 -0.18552616367E+02 -0.51081190486E+02  0.33659794959E+03  0.34095698741E+03  0.00000000000E+00 0.  1.
<scales pt_clust_5="13000.00000" pt_clust_6="13000.00000" pt_clust_7="13000.00000" pt_clust_8="13000.00000" pt_clust_9="54.34600"></scales>
<clustering>
<clus scale="   54.346">  1  9  2 -1</clus>
<clus scale="   83.886">  5  6 -1 -1</clus>
<clus scale="   94.271">  7  8 -1 -1</clus>
<clus scale="   96.382">  2  5  1 -1</clus>
<clus scale="   54.346">  1  5  2 -1</clus>
</clustering>
</event>
<event>
 9    1  0.1487426E-004  0.1472669E+03  0.7546771E-02  0.1220084E+00
          1   -1    0    0  502    0 -0.00000000000E+00  0.00000000000E+00  0.90136246004E+03  0.90136246004E+03  0.00000000000E+00 0. -1.
         21   -1    0    0  501  502  0.00000000000E+00 -0.00000000000E+00 -0.50770808803E+02  0.50770808803E+02  0.00000000000E+00 0. -1.
         23    2    1    2    0    0 -0.12354260749E+02 -0.45412601651E+02  0.28755077933E+03  0.30588030528E+03  0.93071898659E+02 0.  0.
        -24    2    1    2    0    0  0.22720650838E+02 -0.11132037253E+03  0.14441004133E+03  0.19912383283E+03  0.76730616112E+02 0.  0.
         11    1    4    4    0    0  0.11323506957E+02 -0.49196204091E+02  0.11216771201E+02  0.51713675783E+02  0.00000000000E+00 0. -1.
        -12    1    4    4    0    0  0.11397143882E+02 -0.62124168439E+02  0.13319327013E+03  0.14741015705E+03  0.00000000000E+00 0.  1.
        -13    1    3    3    0    0 -0.29216112944E+02 -0.66806211857E+02  0.24259292748E+03  0.25331399421E+03  0.00000000000E+00 0.  1.
         13    1    3    3    0    0  0.16861852195E+02  0.21393610206E+02  0.44957851842E+02  0.52566311068E+02  0.00000000000E+00 0. -1.
          2    1    1    2  501    0 -0.10366390089E+02  0.15673297418E+03  0.41863083058E+03  0.44712913074E+03  0.00000000000E+00 0. -1.
<scales pt_clust_5="13000.00000" pt_clust_6="13000.00000" pt_clust_7="13000.00000" pt_clust_8="13000.00000" pt_clust_9="125.69790"></scales>
<clustering>
<clus scale="   76.731">  5  6 -1 -1</clus>
<clus scale="   93.072">  7  8 -1 -1</clus>
<clus scale="  104.294">  1  7  2 -1</clus>
<clus scale="  125.698">  2  9  1 -1</clus>
<clus scale="  125.698">  2  5  1 -1</clus>
</clustering>
</event>
<event>
 9    1  0.1487426E-004  0.9577324E+02  0.7546771E-02  0.1294381E+00
          1   -1    0    0  502    0 -0.00000000000E+00  0.00000000000E+00  0.55804050396E+03  0.55804050396E+03  0.00000000000E+00 0. -1.
         21   -1    0    0  501  502  0.00000000000E+00 -0.00000000000E+00 -0.66607330260E+02  0.66607330260E+02  0.00000000000E+00 0. -1.
         23    2    1    2    0    0  0.24410680471E+02 -0.26141590281E+01  0.22900911852E+03  0.24738378287E+03  0.90282027635E+02 0.  0.
        -24    2    1    2    0    0 -0.66583430999E+02 -0.67517781417E+02  0.26667870908E+02  0.12770842953E+03  0.81278924353E+02 0.  0.
         11    1    4    4    0    0 -0.27465942345E+02  0.50249062386E+01 -0.18723176867E+02  0.33618224575E+02  0.00000000000E+00 0. -1.
        -12    1    4    4    0    0 -0.39117488654E+02 -0.72542687655E+02  0.45391047775E+02  0.94090204957E+02  0.00000000000E+00 0.  1.
        -11    1    3    3    0    0 -0.22913689136E+02  0.19857424666E+02  0.14681700262E+03  0.14991526514E+03  0.00000000000E+00 0.  1.
         11    1    3    3    0    0  0.47324369607E+02 -0.22471583694E+02  0.82192115904E+02  0.97468517733E+02  0.00000000000E+00 0. -1.
          2    1    1    2  501    0  0.42172750528E+02  0.70131940445E+02  0.23575618427E+03  0.24955562181E+03  0.00000000000E+00 0. -1.
<scales pt_clust_5="13000.00000" pt_clust_6="13000.00000" pt_clust_7="13000.00000" pt_clust_8="13000.00000" pt_clust_9="81.83542"></scales>
<clustering>
<clus scale="   81.279">  5  6 -1 -1</clus>
<clus scale="   81.835">  2  9  1 -1</clus>
<clus scale="   87.338">  2  5  1 -1</clus>
<clus scale="   90.282">  7  8 -1 -1</clus>
<clus scale="   81.835">  2  5  1 -1</clus>
</clustering>
</event>
<event>
 9    1  0.1487426E-004  0.1328709E+03  0.7546771E-02  0.1239751E+00
          3   -1    0    0  502    0 -0.00000000000E+00  0.00000000000E+00  0.44653624067E+03  0.44653624067E+03  0.00000000000E+00 0. -1.
         21   -1    0    0  501  502  0.00000000000E+00 -0.00000000000E+00 -0.44848700968E+02  0.44848700968E+02  0.00000000000E+00 0.  1.
        -24    2    1    2    0    0 -0.27241537878E+02 -0.40910548605E+02  0.18513572211E+03  0.20743343492E+03  0.79609169996E+02 0.  0.
         23    2    1    2    0    0  0.11487200989E+02  0.55705771659E+02  0.22353380858E+03  0.26123926434E+03  0.12265195014E+03 0.  0.
         13    1    3    3    0    0  0.25582864537E+02  0.17303086488E+01  0.48395972320E+02  0.54769033794E+02  0.00000000000E+00 0. -1.
        -14    1    3    3    0    0 -0.52824402415E+02 -0.42640857253E+02  0.13673974979E+03  0.15266440112E+03  0.00000000000E+00 0.  1.
        -11    1    4    4    0    0 -0.49249655423E+02  0.48500204087E+02  0.15294226218E+03  0.16783662865E+03  0.00000000000E+00 0. -1.
         11    1    4    4    0    0  0.60736856412E+02  0.72055675717E+01  0.70591546398E+02  0.93402635690E+02  0.00000000000E+00 0.  1.
          4    1    1    2  501    0  0.15754336889E+02 -0.14795223054E+02 -0.69819909838E+01  0.22712242384E+02  0.00000000000E+00 0. -1.
<scales pt_clust_5="13000.00000" pt_clust_6="13000.00000" pt_clust_7="13000.00000" pt_clust_8="13000.00000" pt_clust_9="21.61244"></scales>
<clustering>
<clus scale="   21.612">  2  9  1 -1</clus>
<clus scale="   79.609">  5  6 -1 -1</clus>
<clus scale="   94.598">  1  5  2 -1</clus>
<clus scale="  122.652">  7  8 -1 -1</clus>
<clus scale="   21.612">  2  5  1 -1</clus>
</clustering>
</event>
<event>
 9    1  0.1487426E-004  0.1445231E+03  0.7546771E-02  0.1209926E+00
         21   -1    0    0  501  502  0.00000000000E+00  0.00000000000E+00  0.37435762870E+03  0.37435762870E+03  0.00000000000E+00 0. -1.
          3   -1    0    0  502    0 -0.00000000000E+00 -0.00000000000E+00 -0.13967913607E+03  0.13967913607E+03  0.00000000000E+00 0. -1.
         23    2    1    2    0    0  0.94859432442E+02  0.37010042344E+02  0.56750457495E+01  0.13741560146E+03  0.92102042445E+02 0.  0.
        -24    2    1    2    0    0 -0.15492910509E+03 -0.43847100200E+01  0.25037159831E+03  0.30500150276E+03  0.79484125218E+02 0.  0.
         11    1    4    4    0    0 -0.98300073931E+02  0.21472926826E+02  0.20370239292E+03  0.22719739435E+03  0.00000000000E+00 0. -1.
        -12    1    4    4    0    0 -0.56629031161E+02 -0.25857636846E+02  0.46669205393E+02  0.77804108410E+02  0.00000000000E+00 0.  1.
        -13    1    3    3    0    0  0.52291029007E+02 -0.16898732284E+02  0.32303863387E+02  0.63745262233E+02  0.00000000000E+00 0.  1.
         13    1    3    3    0    0  0.42568403435E+02  0.53908774628E+02 -0.26628817637E+02  0.73670339226E+02  0.00000000000E+00 0. -1.
          4    1    1    2  501    0  0.60069672650E+02 -0.32625332324E+02 -0.21368151427E+02  0.71619660548E+02  0.00000000000E+00 0. -1.
<scales pt_clust_5="13000.00000" pt_clust_6="13000.00000" pt_clust_7="13000.00000" pt_clust_8="13000.00000" pt_clust_9="68.35775"></scales>
<clustering>
<clus scale="   68.358">  1  9  2 -1</clus>
<clus scale="   79.484">  5  6 -1 -1</clus>
<clus scale="   92.102">  7  8 -1 -1</clus>
<clus scale="  136.828">  1  5  2 -1</clus>
<clus scale="   68.358">  1  5  2 -1</clus>
</clustering>
</event>
<event>
 9    1  0.1487426E-004  0.1446295E+03  0.7546771E-02  0.1209170E+00
         21   -1    0    0  501  502  0.00000000000E+00  0.00000000000E+00  0.62808006268E+02  0.62808006268E+02  0.00000000000E+00 0.  1.
          1   -1    0    0  502    0 -0.00000000000E+00 -0.00000000000E+00 -0.43638141982E+03  0.43638141982E+03  0.00000000000E+00 0. -1.
        -24    2    1    2    0    0 -0.17145267624E+02 -0.12095159852E+03 -0.19968693047E+03  0.24745592107E+03  0.80226637005E+02 0.  0.
         23    2    1    2    0    0  0.24583506836E+02  0.96575162502E+02 -0.84218432914E+02  0.15851388661E+03  0.90015537471E+02 0.  0.
         13    1    3    3    0    0 -0.44745943203E+02 -0.10207462140E+03 -0.16638379651E+03  0.20026231674E+03  0.00000000000E+00 0. -1.
        -14    1    3    3    0    0  0.27600675579E+02 -0.18876977119E+02 -0.33303133966E+02  0.47193604328E+02  0.00000000000E+00 0.  1.
        -11    1    4    4    0    0 -0.40202249647E+01  0.42430755069E+02 -0.87355212088E+02  0.97198067180E+02  0.00000000000E+00 0. -1.
         11    1    4    4    0    0  0.28603731801E+02  0.54144407433E+02  0.31367791748E+01  0.61315819434E+02  0.00000000000E+00 0.  1.
          2    1    1    2  501    0 -0.74382392116E+01  0.24376436013E+02 -0.89668050164E+02  0.93219618404E+02  0.00000000000E+00 0. -1.
<scales pt_clust_5="13000.00000" pt_clust_6="13000.00000" pt_clust_7="13000.00000" pt_clust_8="13000.00000" pt_clust_9="25.48605"></scales>
<clustering>
<clus scale="   25.486">  1  9  2 -1</clus>
<clus scale="   80.227">  5  6 -1 -1</clus>
<clus scale="   90.016">  7  8 -1 -1</clus>
<clus scale="  138.749">  2  5  1 -1</clus>
<clus scale="   25.486">  1  5  2 -1</clus>
</clustering>
</event>
<event>
 9    1  0.1487426E-004  0.9187441E+02  0.7546771E-02  0.1300512E+00
          3   -1    0    0  502    0 -0.00000000000E+00  0.00000000000E+00  0.29464754727E+03  0.29464754727E+03  0.00000000000E+00 0. -1.
         21   -1    0    0  501  502  0.00000000000E+00 -0.00000000000E+00 -0.39934522072E+03  0.39934522072E+03  0.00000000000E+00 0. -1.
        -24    2    1    2    0    0  0.26980284238E+02 -0.42810628955E+02  0.20954412865E+03  0.23009512185E+03  0.80463268402E+02 0.  0.
         23    2    1    2    0    0  0.32242087654E+02  0.11432691777E+02  0.42827455352E+02  0.10059292708E+03  0.84347420764E+02 0.  0.
         13    1    3    3    0    0  0.46690449758E+02 -0.47891387460E+02  0.11201259936E+03  0.13046227619E+03  0.00000000000E+00 0. -1.
        -14    1    3    3    0    0 -0.19710165519E+02  0.50807585053E+01  0.97531529281E+02  0.99632845667E+02  0.00000000000E+00 0.  1.
        -13    1    4    4    0    0  0.46358979599E+02  0.38647150993E+02  0.27797105327E+02  0.66448749679E+02  0.00000000000E+00 0.  1.
         13    1    4    4    0    0 -0.14116891946E+02 -0.27214459216E+02  0.15030350025E+02  0.34144177403E+02  0.00000000000E+00 0. -1.
          4    1    1    2  501    0 -0.59222371892E+02  0.31377937178E+02 -0.35706925745E+03  0.36330471906E+03  0.00000000000E+00 0. -1.
<scales pt_clust_5="13000.00000" pt_clust_6="13000.00000" pt_clust_7="13000.00000" pt_clust_8="13000.00000" pt_clust_9="67.02137"></scales>
<clustering>
<clus scale="   67.021">  2  9  1 -1</clus>
<clus scale="   80.463">  5  6 -1 -1</clus>
<clus scale="   84.347">  7  8 -1 -1</clus>
<clus scale="   88.322">  1  5  2 -1</clus>
<clus scale="   67.021">  2  5  1 -1</clus>
</clustering>
</event>
<event>
 9    1  0.1487426E-004  0.1187033E+03  0.7546771E-02  0.1249009E+00
         21   -1    0    0  501  502  0.00000000000E+00  0.00000000000E+00  0.11331233523E+03  0.11331233523E+03  0.00000000000E+00 0.  1.
         -2   -1    0    0    0  501 -0.00000000000E+00 -0.00000000000E+00 -0.15127381269E+03  0.15127381269E+03  0.00000000000E+00 0.  1.
         23    2    1    2    0    0 -0.54431101826E+02 -0.42403458848E+02 -0.15996940934E+02  0.11378855214E+03  0.89056916126E+02 0.  0.
        -24    2    1    2    0    0  0.52751393307E+02  0.72955888701E+02 -0.17287491665E+02  0.11984364387E+03  0.77190481379E+02 0.  0.
         11    1    4    4    0    0  0.40629385483E+02 -0.35624284445E+01 -0.17137216155E+01  0.40821253079E+02  0.00000000000E+00 0. -1.
        -12    1    4    4    0    0  0.12122007824E+02  0.76518317145E+02 -0.15573770050E+02  0.79022390789E+02  0.00000000000E+00 0.  1.
        -13    1    3    3    0    0  0.45599390731E+01 -0.51861894807E+02 -0.48947722943E+00  0.52064275327E+02  0.00000000000E+00 0.  1.
         13    1    3    3    0    0 -0.58991040900E+02  0.94584359587E+01 -0.15507463704E+02  0.61724276810E+02  0.00000000000E+00 0. -1.
         -1    1    1    2    0  502  0.16797085196E+01 -0.30552429852E+02 -0.46770448529E+01  0.30953951915E+02  0.00000000000E+00 0.  1.
<scales pt_clust_5="13000.00000" pt_clust_6="13000.00000" pt_clust_7="13000.00000" pt_clust_8="13000.00000" pt_clust_9="30.59858"></scales>
<clustering>
<clus scale="   30.599">  1  9  2 -1</clus>
<clus scale="   77.190">  5  6 -1 -1</clus>
<clus scale="   89.057">  7  8 -1 -1</clus>
<clus scale="  110.080">  1  5  2 -1</clus>
<clus scale="   30.599">  1  5  2 -1</clus>
</clustering>
</event>
<event>
 9    1  0.1487426E-004  0.1264059E+03  0.7546771E-02  0.1235289E+00
          1   -1    0    0  502    0 -0.00000000000E+00  0.00000000000E+00  0.56703578447E+02  0.56703578447E+02  0.00000000000E+00 0. -1.
         21   -1    0    0  501  502  0.00000000000E+00 -0.00000000000E+00 -0.53092660434E+03  0.53092660434E+03  0.00000000000E+00 0.  1.
        -24    2    1    2    0    0 -0.69665995247E+02  0.98978289992E+02 -0.13671430339E+03  0.19936833234E+03  0.80042978479E+02 0.  0.
         23    2    1    2    0    0  0.55229037487E+02 -0.15926580557E+02 -0.21356574216E+03  0.23836897348E+03  0.88913096587E+02 0.  0.
         13    1    3    3    0    0  0.11920286890E+02  0.32157299592E+02 -0.59458203011E+02  0.68640098062E+02  0.00000000000E+00 0. -1.
        -14    1    3    3    0    0 -0.81586282137E+02  0.66820990400E+02 -0.77256100381E+02  0.13072823428E+03  0.00000000000E+00 0.  1.
        -13    1    4    4    0    0  0.66136358797E+01  0.24433558358E+02 -0.13594784768E+03  0.13828433115E+03  0.00000000000E+00 0.  1.
         13    1    4    4    0    0  0.48615401608E+02 -0.40360138915E+02 -0.77617894479E+02  0.10008464233E+03  0.00000000000E+00 0. -1.
          2    1    1    2  501    0  0.14436957759E+02 -0.83051709435E+02 -0.12394298034E+03  0.14989287697E+03  0.00000000000E+00 0. -1.
<scales pt_clust_5="13000.00000" pt_clust_6="13000.00000" pt_clust_7="13000.00000" pt_clust_8="13000.00000" pt_clust_9="84.29717"></scales>
<clustering>
<clus scale="   80.043">  5  6 -1 -1</clus>
<clus scale="   84.297">  2  9  1 -1</clus>
<clus scale="   88.913">  7  8 -1 -1</clus>
<clus scale="  120.332">  1  5  2 -1</clus>
<clus scale="   84.297">  2  5  1 -1</clus>
</clustering>
</event>
<event>
 9    1  0.1487426E-004  0.1142972E+03  0.7546771E-02  0.1255619E+00
         21   -1    0    0  501  502  0.00000000000E+00  0.00000000000E+00  0.71482075706E+03  0.71482075706E+03  0.00000000000E+00 0.  1.
          1   -1    0    0  502    0 -0.00000000000E+00 -0.00000000000E+00 -0.42405194049E+02  0.42405194049E+02  0.00000000000E+00 0. -1.
         23    2    1    2    0    0 -0.16304197108E+02  0.59834824880E+02  0.98194662751E+02  0.14763576332E+03  0.91148744958E+02 0.  0.
        -24    2    1    2    0    0  0.77871064608E+02 -0.72638281011E+02  0.45693956214E+03  0.47651381898E+03  0.83255232036E+02 0.  0.
         13    1    4    4    0    0  0.94877088713E+02 -0.53235709537E+02  0.35073462716E+03  0.36721993603E+03  0.00000000000E+00 0. -1.
        -14    1    4    4    0    0 -0.17006024105E+02 -0.19402571474E+02  0.10620493498E+03  0.10929388295E+03  0.00000000000E+00 0.  1.
        -13    1    3    3    0    0  0.31434836647E+02  0.31206712798E+02  0.13536986859E+02  0.46316928783E+02  0.00000000000E+00 0.  1.
         13    1    3    3    0    0 -0.47739033755E+02  0.28628112082E+02  0.84657675891E+02  0.10131883454E+03  0.00000000000E+00 0. -1.
          2    1    1    2  501    0 -0.61566867500E+02  0.12803456131E+02  0.11728133812E+03  0.13307636880E+03  0.00000000000E+00 0. -1.
<scales pt_clust_5="13000.00000" pt_clust_6="13000.00000" pt_clust_7="13000.00000" pt_clust_8="13000.00000" pt_clust_9="62.88411"></scales>
<clustering>
<clus scale="   62.884">  1  9  2 -1</clus>
<clus scale="   83.255">  5  6 -1 -1</clus>
<clus scale="   91.149">  7  8 -1 -1</clus>
<clus scale="  108.107">  1  5  2 -1</clus>
<clus scale="   62.884">  1  5  2 -1</clus>
</clustering>
</event>
<event>
 9    1  0.1487426E-004  0.1110506E+03  0.7546771E-02  0.1263682E+00
          1   -1    0    0  502    0 -0.00000000000E+00  0.00000000000E+00  0.70659678206E+03  0.70659678206E+03  0.00000000000E+00 0. -1.
         21   -1    0    0  501  502  0.00000000000E+00 -0.00000000000E+00 -0.24438084854E+02  0.24438084854E+02  0.00000000000E+00 0.  1.
         23    2    1    2    0    0  0.45945809980E+02  0.15417313605E+02  0.27229429549E+03  0.29202578422E+03  0.93734541557E+02 0.  0.
        -24    2    1    2    0    0 -0.75891314402E+02 -0.15928416533E+01  0.22153175372E+03  0.24781014033E+03  0.81064906072E+02 0.  0.
         11    1    4    4    0    0 -0.29966745656E+02 -0.12890783437E+02  0.18552041712E+03  0.18836667250E+03  0.00000000000E+00 0. -1.
        -12    1    4    4    0    0 -0.45924568746E+02  0.11297941784E+02  0.36011336608E+02  0.59443467828E+02  0.00000000000E+00 0.  1.
        -11    1    3    3    0    0 -0.22538747313E+02  0.12377337439E+02  0.14674032193E+03  0.14897622526E+03  0.00000000000E+00 0.  1.
         11    1    3    3    0    0  0.68484557293E+02  0.30399761659E+01  0.12555397356E+03  0.14304955896E+03  0.00000000000E+00 0. -1.
          2    1    1    2  501    0  0.29945504422E+02 -0.13824471952E+02  0.18833264800E+03  0.19119894236E+03  0.00000000000E+00 0. -1.
<scales pt_clust_5="13000.00000" pt_clust_6="13000.00000" pt_clust_7="13000.00000" pt_clust_8="13000.00000" pt_clust_9="32.98258"></scales>
<clustering>
<clus scale="   32.983">  2  9  1 -1</clus>
<clus scale="   81.065">  5  6 -1 -1</clus>
<clus scale="   93.735">  7  8 -1 -1</clus>
<clus scale="  100.586">  2  5  1 -1</clus>
<clus scale="   32.983">  2  5  1 -1</clus>
</clustering>
</event>
<event>
 9    1  0.1487426E-004  0.9540450E+02  0.7546771E-02  0.1297314E+00
         21   -1    0    0  501  502  0.00000000000E+00  0.00000000000E+00  0.10110596159E+03  0.10110596159E+03  0.00000000000E+00 0. -1.
          3   -1    0    0  502    0 -0.00000000000E+00 -0.00000000000E+00 -0.31745884381E+03  0.31745884381E+03  0.00000000000E+00 0. -1.
        -24    2    1    2    0    0 -0.19593812831E+02  0.24622368840E+02 -0.21236233810E+03  0.22930243439E+03  0.80570870835E+02 0.  0.
         23    2    1    2    0    0 -0.19537722945E+02 -0.77837299306E+01 -0.64784292180E+02  0.11502830434E+03  0.92694105619E+02 0.  0.
         13    1    3    3    0    0  0.27144651565E+02  0.27268238532E+02 -0.11509894545E+03  0.12135961513E+03  0.00000000000E+00 0. -1.
        -14    1    3    3    0    0 -0.46738464396E+02 -0.26458696925E+01 -0.97263392648E+02  0.10794281926E+03  0.00000000000E+00 0.  1.
        -11    1    4    4    0    0 -0.14580758767E+02  0.42222517267E+02 -0.33488073019E+02  0.55828223374E+02  0.00000000000E+00 0. -1.
         11    1    4    4    0    0 -0.49569641778E+01 -0.50006247197E+02 -0.31296219162E+02  0.59200080966E+02  0.00000000000E+00 0.  1.
          4    1    1    2  501    0  0.39131535776E+02 -0.16838638909E+02  0.60793748058E+02  0.74234066677E+02  0.00000000000E+00 0. -1.
<scales pt_clust_5="13000.00000" pt_clust_6="13000.00000" pt_clust_7="13000.00000" pt_clust_8="13000.00000" pt_clust_9="42.60067"></scales>
<clustering>
<clus scale="   42.601">  1  9  2 -1</clus>
<clus scale="   80.571">  5  6 -1 -1</clus>
<clus scale="   83.675">  2  5  1 -1</clus>
<clus scale="   92.694">  7  8 -1 -1</clus>
<clus scale="   42.601">  1  5  2 -1</clus>
</clustering>
</event>
<event>
 9    1  0.1487426E-004  0.1171801E+03  0.7546771E-02  0.1251398E+00
         21   -1    0    0  501  502  0.00000000000E+00  0.00000000000E+00  0.34571501188E+02  0.34571501188E+02  0.00000000000E+00 0.  1.
          3   -1    0    0  502    0 -0.00000000000E+00 -0.00000000000E+00 -0.80724223274E+03  0.80724223274E+03  0.00000000000E+00 0. -1.
         23    2    1    2    0    0  0.78613664031E+02  0.34528809028E+02 -0.50409687156E+03  0.51930002669E+03  0.90479362173E+02 0.  0.
        -24    2    1    2    0    0 -0.47816601433E+02  0.13264021250E+02 -0.73306691377E+02  0.11913750207E+03  0.79734006332E+02 0.  0.
         13    1    4    4    0    0 -0.30966695992E+02 -0.29041456230E+02 -0.56333830829E+02  0.70539655063E+02  0.00000000000E+00 0. -1.
        -14    1    4    4    0    0 -0.16849905442E+02  0.42305477480E+02 -0.16972860548E+02  0.48597847004E+02  0.00000000000E+00 0.  1.
        -11    1    3    3    0    0 -0.11010077465E+02  0.32256028877E+02 -0.11129516966E+03  0.11639711334E+03  0.00000000000E+00 0.  1.
         11    1    3    3    0    0  0.89623741496E+02  0.22727801512E+01 -0.39280170190E+03  0.40290291335E+03  0.00000000000E+00 0. -1.
          4    1    1    2  501    0 -0.30797062597E+02 -0.47792830279E+02 -0.19526716861E+03  0.20337620517E+03  0.00000000000E+00 0. -1.
<scales pt_clust_5="13000.00000" pt_clust_6="13000.00000" pt_clust_7="13000.00000" pt_clust_8="13000.00000" pt_clust_9="56.85611"></scales>
<clustering>
<clus scale="   56.856">  1  9  2 -1</clus>
<clus scale="   79.734">  5  6 -1 -1</clus>
<clus scale="   90.479">  7  8 -1 -1</clus>
<clus scale="  109.097">  1  5  2 -1</clus>
<clus scale="   56.856">  1  5  2 -1</clus>
</clustering>
</event>
<event>
 9    1  0.1487426E-004  0.9969923E+02  0.7546771E-02  0.1286527E+00
         -2   -1    0    0    0  501 -0.00000000000E+00  0.00000000000E+00  0.61839660029E+02  0.61839660029E+02  0.00000000000E+00 0.  1.
         21   -1    0    0  501  502  0.00000000000E+00 -0.00000000000E+00 -0.27927359212E+03  0.27927359212E+03  0.00000000000E+00 0.  1.
        -24    2    1    2    0    0 -0.30227175274E+02  0.20739539942E+02 -0.14705075016E+02  0.88900985537E+02  0.79645058580E+02 0.  0.
         23    2    1    2    0    0  0.50759335139E+02 -0.32321110970E+02 -0.20095675551E+03  0.22857241213E+03  0.90777561560E+02 0.  0.
         13    1    3    3    0    0 -0.47865908498E+02  0.35837595938E+02 -0.23255811915E+02  0.64158485539E+02  0.00000000000E+00 0. -1.
        -14    1    3    3    0    0  0.17638733224E+02 -0.15098055996E+02  0.85507368992E+01  0.24742499997E+02  0.00000000000E+00 0.  1.
        -11    1    4    4    0    0  0.67630886759E+02 -0.20699933735E+02 -0.83890593409E+02  0.10972718789E+03  0.00000000000E+00 0. -1.
         11    1    4    4    0    0 -0.16871551620E+02 -0.11621177235E+02 -0.11706616210E+03  0.11884522424E+03  0.00000000000E+00 0.  1.
         -1    1    1    2    0  502 -0.20532159865E+02  0.11581571028E+02 -0.17721015683E+01  0.23639854487E+02  0.00000000000E+00 0.  1.
<scales pt_clust_5="13000.00000" pt_clust_6="13000.00000" pt_clust_7="13000.00000" pt_clust_8="13000.00000" pt_clust_9="23.57335"></scales>
<clustering>
<clus scale="   23.573">  2  9  1 -1</clus>
<clus scale="   79.645">  5  6 -1 -1</clus>
<clus scale="   89.681">  1  5  2 -1</clus>
<clus scale="   90.778">  7  8 -1 -1</clus>
<clus scale="   23.573">  2  5  1 -1</clus>
</clustering>
</event>
<event>
 9    1  0.1487426E-004  0.1245710E+03  0.7546771E-02  0.1236762E+00
         21   -1    0    0  501  502  0.00000000000E+00  0.00000000000E+00  0.20339149811E+03  0.20339149811E+03  0.00000000000E+00 0.  1.
         -4   -1    0    0    0  501 -0.00000000000E+00 -0.00000000000E+00 -0.27950352753E+03  0.27950352753E+03  0.00000000000E+00 0.  1.
        -24    2    1    2    0    0  0.86712583078E+02 -0.25965729518E+02 -0.12141090348E+03  0.17456423269E+03  0.86826105953E+02 0.  0.
         23    2    1    2    0    0 -0.75688360207E+02 -0.76488655392E+02  0.11693753846E+03  0.18282966661E+03  0.90404960125E+02 0.  0.
         11    1    3    3    0    0  0.95569160370E+02 -0.12333531043E+02 -0.65947601741E+02  0.11676757503E+03  0.00000000000E+00 0. -1.
        -12    1    3    3    0    0 -0.88565772921E+01 -0.13632198474E+02 -0.55463301743E+02  0.57796657661E+02  0.00000000000E+00 0.  1.
        -13    1    4    4    0    0 -0.47347612587E+02 -0.30563095789E+02  0.11587576101E+03  0.12885298301E+03  0.00000000000E+00 0.  1.
         13    1    4    4    0    0 -0.28340747620E+02 -0.45925559602E+02  0.10617774549E+01  0.53976683594E+02  0.00000000000E+00 0. -1.
         -3    1    1    2    0  502 -0.11024222871E+02  0.10245438491E+03 -0.71638664397E+02  0.12550112634E+03  0.00000000000E+00 0.  1.
<scales pt_clust_5="13000.00000" pt_clust_6="13000.00000" pt_clust_7="13000.00000" pt_clust_8="13000.00000" pt_clust_9="103.04584"></scales>
<clustering>
<clus scale="   86.826">  5  6 -1 -1</clus>
<clus scale="   90.405">  7  8 -1 -1</clus>
<clus scale="  103.046">  1  9  2 -1</clus>
<clus scale="  121.999">  2  5  1 -1</clus>
<clus scale="  103.046">  1  5  2 -1</clus>
</clustering>
</event>
<event>
 9    1  0.1487426E-004  0.2409153E+03  0.7546771E-02  0.1119797E+00
         21   -1    0    0  501  502  0.00000000000E+00  0.00000000000E+00  0.69795624646E+02  0.69795624646E+02  0.00000000000E+00 0.  1.
          1   -1    0    0  502    0 -0.00000000000E+00 -0.00000000000E+00 -0.98257495575E+03  0.98257495575E+03  0.00000000000E+00 0. -1.
         23    2    1    2    0    0  0.20560507533E+03  0.73471169978E+02 -0.45082319346E+03  0.50923718442E+03  0.91703317356E+02 0.  0.
        -24    2    1    2    0    0 -0.20435869893E+03 -0.10153190227E+03 -0.45283127803E+03  0.51360000447E+03  0.81594075904E+02 0.  0.
         11    1    4    4    0    0 -0.38985335114E+02 -0.10725215270E+02 -0.29255563804E+02  0.49907660835E+02  0.00000000000E+00 0. -1.
        -12    1    4    4    0    0 -0.16537336381E+03 -0.90806686998E+02 -0.42357571423E+03  0.46369234364E+03  0.00000000000E+00 0.  1.
        -13    1    3    3    0    0  0.10269706567E+02  0.22934732910E+02 -0.11288798670E+03  0.11565105442E+03  0.00000000000E+00 0.  1.
         13    1    3    3    0    0  0.19533536877E+03  0.50536437068E+02 -0.33793520676E+03  0.39358613000E+03  0.00000000000E+00 0. -1.
          2    1    1    2  501    0 -0.12463764067E+01  0.28060732290E+02 -0.91248596113E+01  0.29533391504E+02  0.00000000000E+00 0. -1.
<scales pt_clust_5="13000.00000" pt_clust_6="13000.00000" pt_clust_7="13000.00000" pt_clust_8="13000.00000" pt_clust_9="28.08840"></scales>
<clustering>
<clus scale="   28.088">  1  9  2 -1</clus>
<clus scale="   81.594">  5  6 -1 -1</clus>
<clus scale="   91.703">  7  8 -1 -1</clus>
<clus scale="  237.252">  1  5  2 -1</clus>
<clus scale="   28.088">  1  5  2 -1</clus>
</clustering>
</event>
<event>
 9    1  0.1487426E-004  0.1373760E+03  0.7546771E-02  0.1219469E+00
         21   -1    0    0  501  502  0.00000000000E+00  0.00000000000E+00  0.70304240404E+03  0.70304240404E+03  0.00000000000E+00 0.  1.
          3   -1    0    0  502    0 -0.00000000000E+00 -0.00000000000E+00 -0.32458060892E+02  0.32458060892E+02  0.00000000000E+00 0. -1.
        -24    2    1    2    0    0  0.87291268005E+02 -0.36829550770E+02  0.26520613330E+03  0.29293127375E+03  0.80611765411E+02 0.  0.
         23    2    1    2    0    0 -0.96208141075E+02  0.60101252269E+02  0.37971773434E+03  0.40679849480E+03  0.91822059806E+02 0.  0.
         13    1    3    3    0    0  0.70856377534E+02 -0.13242582745E+02  0.89642153859E+02  0.11502916145E+03  0.00000000000E+00 0. -1.
        -14    1    3    3    0    0  0.16434890472E+02 -0.23586968025E+02  0.17556397944E+03  0.17790211230E+03  0.00000000000E+00 0.  1.
        -13    1    4    4    0    0 -0.30984610286E+02  0.66799684320E+02  0.26088005759E+03  0.27107314206E+03  0.00000000000E+00 0.  1.
         13    1    4    4    0    0 -0.65223530789E+02 -0.66984320516E+01  0.11883767675E+03  0.13572535274E+03  0.00000000000E+00 0. -1.
          4    1    1    2  501    0  0.89168730697E+01 -0.23271701498E+02  0.25660475503E+02  0.35770696373E+02  0.00000000000E+00 0. -1.
<scales pt_clust_5="13000.00000" pt_clust_6="13000.00000" pt_clust_7="13000.00000" pt_clust_8="13000.00000" pt_clust_9="24.92154"></scales>
<clustering>
<clus scale="   24.922">  1  9  2 -1</clus>
<clus scale="   80.612">  5  6 -1 -1</clus>
<clus scale="   91.822">  7  8 -1 -1</clus>
<clus scale="  130.150">  2  5  1 -1</clus>
<clus scale="   24.922">  1  5  2 -1</clus>
</clustering>
</event>
<event>
 9    1  0.1487426E-004  0.1357217E+03  0.7546771E-02  0.1221794E+00
          1   -1    0    0  502    0 -0.00000000000E+00  0.00000000000E+00  0.38273716772E+03  0.38273716772E+03  0.00000000000E+00 0. -1.
         21   -1    0    0  501  502  0.00000000000E+00 -0.00000000000E+00 -0.21246579834E+03  0.21246579834E+03  0.00000000000E+00 0. -1.
        -24    2    1    2    0    0 -0.46570468437E+02 -0.85288836242E+02  0.24839259920E+03  0.27861298361E+03  0.80519048546E+02 0.  0.
         23    2    1    2    0    0  0.68697365889E+02  0.85999730628E+02  0.75178820002E+02  0.16169966565E+03  0.91540401714E+02 0.  0.
         11    1    3    3    0    0 -0.41435333877E+02 -0.56032064855E+02  0.23660695335E+03  0.24665629844E+03  0.00000000000E+00 0. -1.
        -12    1    3    3    0    0 -0.51351345600E+01 -0.29256771387E+02  0.11785645852E+02  0.31956685170E+02  0.00000000000E+00 0.  1.
        -11    1    4    4    0    0  0.28409559961E+02  0.58302358016E+02 -0.78671739714E+01  0.65331160052E+02  0.00000000000E+00 0.  1.
         11    1    4    4    0    0  0.40287805928E+02  0.27697372613E+02  0.83045993973E+02  0.96368505598E+02  0.00000000000E+00 0. -1.
          2    1    1    2  501    0 -0.22126897452E+02 -0.71089438692E+00 -0.15330004982E+03  0.15489031680E+03  0.00000000000E+00 0. -1.
<scales pt_clust_5="13000.00000" pt_clust_6="13000.00000" pt_clust_7="13000.00000" pt_clust_8="13000.00000" pt_clust_9="22.13831"></scales>
<clustering>
<clus scale="   22.138">  2  9  1 -1</clus>
<clus scale="   80.519">  5  6 -1 -1</clus>
<clus scale="   91.540">  7  8 -1 -1</clus>
<clus scale="  128.546">  1  5  2 -1</clus>
<clus scale="   22.138">  2  5  1 -1</clus>
</clustering>
</event>
<event>
 9    1  0.1487426E-004  0.2093467E+03  0.7546771E-02  0.1143189E+00
         -2   -1    0    0    0  501 -0.00000000000E+00  0.00000000000E+00  0.69627801864E+03  0.69627801864E+03  0.00000000000E+00 0.  1.
         21   -1    0    0  501  502  0.00000000000E+00 -0.00000000000E+00 -0.87734477257E+02  0.87734477257E+02  0.00000000000E+00 0.  1.
        -24    2    1    2    0    0 -0.18339493877E+03  0.26020817661E+02  0.25606159247E+03  0.32635473496E+03  0.81419207645E+02 0.  0.
         23    2    1    2    0    0  0.16957218591E+03 -0.97826198966E+02  0.28286605474E+03  0.35669512427E+03  0.94305436300E+02 0.  0.
         13    1    3    3    0    0 -0.99254771563E+02  0.49531702474E+01  0.71498059888E+02  0.12242555347E+03  0.00000000000E+00 0. -1.
        -14    1    3    3    0    0 -0.84140167206E+02  0.21067647414E+02  0.18456353259E+03  0.20392918150E+03  0.00000000000E+00 0.  1.
        -13    1    4    4    0    0  0.14956738310E+03 -0.11249854684E+03  0.27061327465E+03  0.32902563661E+03  0.00000000000E+00 0.  1.
         13    1    4    4    0    0  0.20004802812E+02  0.14672347875E+02  0.12252780096E+02  0.27669487668E+02  0.00000000000E+00 0. -1.
         -1    1    1    2    0  502  0.13822752855E+02  0.71805381304E+02  0.69615894161E+02  0.10096263666E+03  0.00000000000E+00 0.  1.
<scales pt_clust_5="13000.00000" pt_clust_6="13000.00000" pt_clust_7="13000.00000" pt_clust_8="13000.00000" pt_clust_9="73.12374"></scales>
<clustering>
<clus scale="   73.124">  2  9  1 -1</clus>
<clus scale="   81.419">  5  6 -1 -1</clus>
<clus scale="   94.305">  7  8 -1 -1</clus>
<clus scale="  203.867">  1  5  2 -1</clus>
<clus scale="   73.124">  2  5  1 -1</clus>
</clustering>
</event>
<event>
 9    1  0.1625715E-004  0.1422929E+03  0.7546771E-02  0.1212007E+00
          3   -1    0    0  502    0 -0.00000000000E+00  0.00000000000E+00  0.32427805781E+03  0.32427805781E+03  0.00000000000E+00 0. -1.
         21   -1    0    0  501  502  0.00000000000E+00 -0.00000000000E+00 -0.26803124311E+03  0.26803124311E+03  0.00000000000E+00 0. -1.
         23    2    1    2    0    0 -0.69083127918E+02  0.86843077961E+02  0.26066720821E+03  0.29748558128E+03  0.90752845021E+02 0.  0.
        -24    2    1    2    0    0  0.37711763069E+02 -0.99181941345E+02 -0.61134678150E+02  0.14762587215E+03  0.82442190005E+02 0.  0.
         13    1    4    4    0    0 -0.17385500394E+02 -0.41055651797E+02  0.34804355797E+01  0.44720639533E+02  0.00000000000E+00 0. -1.
        -14    1    4    4    0    0  0.55097263463E+02 -0.58126289548E+02 -0.64615113730E+02  0.10290523262E+03  0.00000000000E+00 0.  1.
        -11    1    3    3    0    0  0.20540977010E+02  0.96850855626E+01  0.24773445012E+02  0.33607383068E+02  0.00000000000E+00 0. -1.
         11    1    3    3    0    0 -0.89624104928E+02  0.77157992398E+02  0.23589376320E+03  0.26387819821E+03  0.00000000000E+00 0.  1.
          4    1    1    2  501    0  0.31371364850E+02  0.12338863385E+02 -0.14328571536E+03  0.14719784750E+03  0.00000000000E+00 0. -1.
<scales pt_clust_5="13000.00000" pt_clust_6="13000.00000" pt_clust_7="13000.00000" pt_clust_8="13000.00000" pt_clust_9="33.71068"></scales>
<clustering>
<clus scale="   33.711">  2  9  1 -1</clus>
<clus scale="   82.442">  5  6 -1 -1</clus>
<clus scale="   90.753">  7  8 -1 -1</clus>
<clus scale="  137.142">  2  5  1 -1</clus>
<clus scale="   33.711">  2  5  1 -1</clus>
</clustering>
</event>
<event>
 9    1  0.1487426E-004  0.8393627E+02  0.7546771E-02  0.1320964E+00
         21   -1    0    0  501  502  0.00000000000E+00  0.00000000000E+00  0.44967472344E+02  0.44967472344E+02  0.00000000000E+00 0. -1.
          3   -1    0    0  502    0 -0.00000000000E+00 -0.00000000000E+00 -0.33477132872E+03  0.33477132872E+03  0.00000000000E+00 0. -1.
         23    2    1    2    0    0  0.56619900642E+01  0.86591689390E+01 -0.22792427629E+03  0.24307916149E+03  0.83850841901E+02 0.  0.
        -24    2    1    2    0    0  0.23195563440E+02  0.14223619097E+02 -0.36423047312E+02  0.91888941088E+02  0.79853576095E+02 0.  0.
         11    1    4    4    0    0  0.46025262034E+02  0.16098015615E+02 -0.46025777548E+02  0.67051048098E+02  0.00000000000E+00 0. -1.
        -12    1    4    4    0    0 -0.22829698594E+02 -0.18743965174E+01  0.96027302364E+01  0.24837892990E+02  0.00000000000E+00 0.  1.
        -11    1    3    3    0    0  0.19479534092E+02  0.40440366315E+02 -0.16762294767E+03  0.17352904097E+03  0.00000000000E+00 0. -1.
         11    1    3    3    0    0 -0.13817544028E+02 -0.31781197376E+02 -0.60301328624E+02  0.69550120513E+02  0.00000000000E+00 0.  1.
          4    1    1    2  501    0 -0.28857553504E+02 -0.22882788036E+02 -0.25456532775E+02  0.44770698492E+02  0.00000000000E+00 0. -1.
<scales pt_clust_5="13000.00000" pt_clust_6="13000.00000" pt_clust_7="13000.00000" pt_clust_8="13000.00000" pt_clust_9="36.82907"></scales>
<clustering>
<clus scale="   36.829">  1  9  2 -1</clus>
<clus scale="   79.854">  5  6 -1 -1</clus>
<clus scale="   79.943">  1  5  2 -1</clus>
<clus scale="   83.851">  7  8 -1 -1</clus>
<clus scale="   36.829">  1  5  2 -1</clus>
</clustering>
</event>
<event>
 9    1  0.1487426E-004  0.1034209E+03  0.7546771E-02  0.1279585E+00
          3   -1    0    0  502    0 -0.00000000000E+00  0.00000000000E+00  0.24628675173E+03  0.24628675173E+03  0.00000000000E+00 0. -1.
         21   -1    0    0  501  502  0.00000000000E+00 -0.00000000000E+00 -0.42132931354E+03  0.42132931354E+03  0.00000000000E+00 0. -1.
         23    2    1    2    0    0 -0.42798748863E+02  0.19422312184E+02  0.16798435573E+03  0.19789313182E+03  0.93455811688E+02 0.  0.
        -24    2    1    2    0    0  0.49526253517E+02  0.61770063942E+02  0.44770419577E+01  0.11279652209E+03  0.80216088810E+02 0.  0.
         11    1    4    4    0    0 -0.19891615381E+02  0.96373135270E+01  0.12871064651E+02  0.25577694965E+02  0.00000000000E+00 0. -1.
        -12    1    4    4    0    0  0.69417868897E+02  0.52132750415E+02 -0.83940226933E+01  0.87218827125E+02  0.00000000000E+00 0.  1.
        -11    1    3    3    0    0 -0.21553165222E+02 -0.22528318740E+02  0.95201390036E+01  0.32599035614E+02  0.00000000000E+00 0.  1.
         11    1    3    3    0    0 -0.21245583640E+02  0.41950630924E+02  0.15846421672E+03  0.16529409621E+03  0.00000000000E+00 0. -1.
          4    1    1    2  501    0 -0.67275046540E+01 -0.81192376126E+02 -0.34750395949E+03  0.35692641136E+03  0.00000000000E+00 0. -1.
<scales pt_clust_5="13000.00000" pt_clust_6="13000.00000" pt_clust_7="13000.00000" pt_clust_8="13000.00000" pt_clust_9="81.47062"></scales>
<clustering>
<clus scale="   80.216">  5  6 -1 -1</clus>
<clus scale="   81.471">  2  9  1 -1</clus>
<clus scale="   91.632">  2  5  1 -1</clus>
<clus scale="   93.456">  7  8 -1 -1</clus>
<clus scale="   81.471">  2  5  1 -1</clus>
</clustering>
</event>
<event>
 9    1  0.1487426E-004  0.1113376E+03  0.7546771E-02  0.1261044E+00
         -2   -1    0    0    0  501 -0.00000000000E+00  0.00000000000E+00  0.59414533992E+03  0.59414533992E+03  0.00000000000E+00 0.  1.
         21   -1    0    0  501  502  0.00000000000E+00 -0.00000000000E+00 -0.27543183152E+03  0.27543183152E+03  0.00000000000E+00 0.  1.
        -24    2    1    2    0    0  0.57024005192E+01 -0.73741364957E+02  0.53551851240E+03  0.54666027596E+03  0.81160790498E+02 0.  0.
         23    2    1    2    0    0  0.30954744512E+02  0.63235766886E+01 -0.17103979996E+01  0.94543092288E+02  0.89091453059E+02 0.  0.
         11    1    3    3    0    0 -0.26771887368E+02 -0.21025396622E+01  0.79631374743E+02  0.84037553926E+02  0.00000000000E+00 0. -1.
        -12    1    3    3    0    0  0.32474287887E+02 -0.71638825295E+02  0.45588713765E+03  0.46262272203E+03  0.00000000000E+00 0.  1.
        -11    1    4    4    0    0 -0.18858028116E+02  0.31828546890E+02 -0.90898370200E+01  0.38096020246E+02  0.00000000000E+00 0. -1.
         11    1    4    4    0    0  0.49812772628E+02 -0.25504970201E+02  0.73794390205E+01  0.56447072042E+02  0.00000000000E+00 0.  1.
         -1    1    1    2    0  502 -0.36657145032E+02  0.67417788269E+02 -0.21509460599E+03  0.22837380319E+03  0.00000000000E+00 0.  1.
<scales pt_clust_5="13000.00000" pt_clust_6="13000.00000" pt_clust_7="13000.00000" pt_clust_8="13000.00000" pt_clust_9="76.73920"></scales>
<clustering>
<clus scale="   76.739">  2  9  1 -1</clus>
<clus scale="   81.161">  5  6 -1 -1</clus>
<clus scale="   89.091">  7  8 -1 -1</clus>
<clus scale="  105.099">  1  5  2 -1</clus>
<clus scale="   76.739">  2  5  1 -1</clus>
</clustering>
</event>
<event>
 9    1  0.1487426E-004  0.1133813E+03  0.7546771E-02  0.1259347E+00
         21   -1    0    0  501  502  0.00000000000E+00  0.00000000000E+00  0.14211877346E+03  0.14211877346E+03  0.00000000000E+00 0. -1.
          1   -1    0    0  502    0 -0.00000000000E+00 -0.00000000000E+00 -0.12485535706E+04  0.12485535706E+04  0.00000000000E+00 0. -1.
        -24    2    1    2    0    0  0.55756036240E+02 -0.46546124392E+02 -0.11438495433E+04  0.11488468816E+04  0.78626346591E+02 0.  0.
         23    2    1    2    0    0  0.99333864020E+01  0.19333685302E+02 -0.66779103999E+02  0.11568278330E+03  0.91927112805E+02 0.  0.
         13    1    3    3    0    0  0.46446318671E+02 -0.22366653382E+02 -0.28617819908E+03  0.29078426597E+03  0.00000000000E+00 0. -1.
        -14    1    3    3    0    0  0.93097175692E+01 -0.24179471010E+02 -0.85767134423E+03  0.85806261565E+03  0.00000000000E+00 0.  1.
        -11    1    4    4    0    0 -0.64611422449E+00 -0.36203552619E+02 -0.15615257282E+02  0.39432866315E+02  0.00000000000E+00 0. -1.
         11    1    4    4    0    0  0.10579500626E+02  0.55537237921E+02 -0.51163846717E+02  0.76249916986E+02  0.00000000000E+00 0.  1.
          2    1    1    2  501    0 -0.65689422642E+02  0.27212439090E+02  0.10419385017E+03  0.12614267915E+03  0.00000000000E+00 0. -1.
<scales pt_clust_5="13000.00000" pt_clust_6="13000.00000" pt_clust_7="13000.00000" pt_clust_8="13000.00000" pt_clust_9="71.10286"></scales>
<clustering>
<clus scale="   71.103">  1  9  2 -1</clus>
<clus scale="   78.626">  5  6 -1 -1</clus>
<clus scale="   91.927">  7  8 -1 -1</clus>
<clus scale="  102.892">  2  5  1 -1</clus>
<clus scale="   71.103">  1  5  2 -1</clus>
</clustering>
</event>
<event>
 9    1  0.1487426E-004  0.9393552E+02  0.7546771E-02  0.1299458E+00
         -2   -1    0    0    0  501 -0.00000000000E+00  0.00000000000E+00  0.26203729877E+03  0.26203729877E+03  0.00000000000E+00 0.  1.
         21   -1    0    0  501  502  0.00000000000E+00 -0.00000000000E+00 -0.10001994080E+03  0.10001994080E+03  0.00000000000E+00 0.  1.
        -24    2    1    2    0    0  0.20998659142E+02  0.13362724354E+02  0.21302673905E+03  0.22915802001E+03  0.80706260596E+02 0.  0.
         23    2    1    2    0    0 -0.27852046335E+02  0.12679639127E+02 -0.39281664605E+02  0.10352724405E+03  0.90765254112E+02 0.  0.
         11    1    3    3    0    0 -0.24558763199E+02 -0.12095266242E+02  0.40295538847E+02  0.48715077402E+02  0.00000000000E+00 0. -1.
        -12    1    3    3    0    0  0.45557422341E+02  0.25457990596E+02  0.17273120020E+03  0.18044294261E+03  0.00000000000E+00 0.  1.
        -13    1    4    4    0    0  0.57460235016E+01  0.24259868911E+02  0.21630198829E+02  0.33006416453E+02  0.00000000000E+00 0.  1.
         13    1    4    4    0    0 -0.33598069836E+02 -0.11580229784E+02 -0.60911863435E+02  0.70520827602E+02  0.00000000000E+00 0. -1.
         -1    1    1    2    0  502  0.68533871928E+01 -0.26042363480E+02 -0.11727716462E+02  0.29371975505E+02  0.00000000000E+00 0.  1.
<scales pt_clust_5="13000.00000" pt_clust_6="13000.00000" pt_clust_7="13000.00000" pt_clust_8="13000.00000" pt_clust_9="26.92905"></scales>
<clustering>
<clus scale="   26.929">  2  9  1 -1</clus>
<clus scale="   80.706">  5  6 -1 -1</clus>
<clus scale="   84.256">  1  5  2 -1</clus>
<clus scale="   90.765">  7  8 -1 -1</clus>
<clus scale="   26.929">  2  5  1 -1</clus>
</clustering>
</event>
<event>
 9    1  0.1487426E-004  0.2563524E+03  0.7546771E-02  0.1143118E+00
          3   -1    0    0  502    0 -0.00000000000E+00  0.00000000000E+00  0.15862311298E+03  0.15862311298E+03  0.00000000000E+00 0. -1.
         21   -1    0    0  501  502  0.00000000000E+00 -0.00000000000E+00 -0.60903186352E+03  0.60903186352E+03  0.00000000000E+00 0.  1.
        -24    2    1    2    0    0 -0.53614378717E+02  0.56293124046E+02 -0.12826697652E+03  0.16976964368E+03  0.79535509222E+02 0.  0.
         23    2    1    2    0    0  0.12822218036E+03 -0.24975517892E+03 -0.21459124244E+03  0.36430235488E+03  0.88590222425E+02 0.  0.
         13    1    3    3    0    0 -0.72343710432E+02  0.55492419835E+02 -0.95611120036E+02  0.13211550769E+03  0.00000000000E+00 0. -1.
        -14    1    3    3    0    0  0.18729331715E+02  0.80070421032E+00 -0.32655856487E+02  0.37654135983E+02  0.00000000000E+00 0.  1.
        -13    1    4    4    0    0  0.99989645531E+02 -0.15598227638E+03 -0.18540871873E+03  0.26211599101E+03  0.00000000000E+00 0.  1.
         13    1    4    4    0    0  0.28232534832E+02 -0.93772902534E+02 -0.29182523707E+02  0.10218636388E+03  0.00000000000E+00 0. -1.
          4    1    1    2  501    0 -0.74607801646E+02  0.19346205487E+03 -0.10755053158E+03  0.23358297794E+03  0.00000000000E+00 0. -1.
<scales pt_clust_5="13000.00000" pt_clust_6="13000.00000" pt_clust_7="13000.00000" pt_clust_8="13000.00000" pt_clust_9="240.55841"></scales>
<clustering>
<clus scale="   79.536">  5  6 -1 -1</clus>
<clus scale="   88.590">  7  8 -1 -1</clus>
<clus scale="  111.217">  1  5  2 -1</clus>
<clus scale="  240.558">  2  9  1 -1</clus>
<clus scale="  240.558">  2  5  1 -1</clus>
</clustering>
</event>
<event>
 9    1  0.1487426E-004  0.2854352E+03  0.7546771E-02  0.1129159E+00
         -2   -1    0    0    0  501 -0.00000000000E+00  0.00000000000E+00  0.11098511236E+04  0.11098511236E+04  0.00000000000E+00 0.  1.
         21   -1    0    0  501  502  0.00000000000E+00 -0.00000000000E+00 -0.24279856284E+03  0.24279856284E+03  0.00000000000E+00 0. -1.
        -24    2    1    2    0    0  0.52655645244E+02 -0.64035499523E+02  0.21398777685E+03  0.24203281236E+03  0.76915222434E+02 0.  0.
         23    2    1    2    0    0 -0.19141251911E+03 -0.18906710422E+03 -0.10204437590E+03  0.30222078224E+03  0.92407922784E+02 0.  0.
         13    1    3    3    0    0 -0.11948826953E+02 -0.19047349421E+02  0.12532978024E+02  0.25742018640E+02  0.00000000000E+00 0. -1.
        -14    1    3    3    0    0  0.64604472197E+02 -0.44988150102E+02  0.20145479883E+03  0.21629079372E+03  0.00000000000E+00 0.  1.
        -11    1    4    4    0    0 -0.12863768144E+03 -0.70937617307E+02 -0.77929923114E+02  0.16629152580E+03  0.00000000000E+00 0. -1.
         11    1    4    4    0    0 -0.62774837665E+02 -0.11812948691E+03 -0.24114452787E+02  0.13592925644E+03  0.00000000000E+00 0.  1.
         -1    1    1    2    0  502  0.13875687386E+03  0.25310260374E+03  0.75510915980E+03  0.80839609183E+03  0.00000000000E+00 0.  1.
<scales pt_clust_5="13000.00000" pt_clust_6="13000.00000" pt_clust_7="13000.00000" pt_clust_8="13000.00000" pt_clust_9="270.06314"></scales>
<clustering>
<clus scale="   76.915">  5  6 -1 -1</clus>
<clus scale="   92.408">  7  8 -1 -1</clus>
<clus scale="  113.089">  1  5  2 -1</clus>
<clus scale="  270.063">  2  9  1 -1</clus>
<clus scale="  270.063">  2  5  1 -1</clus>
</clustering>
</event>
<event>
 9    1  0.1487426E-004  0.2706554E+03  0.7546771E-02  0.1136380E+00
         21   -1    0    0  501  502  0.00000000000E+00  0.00000000000E+00  0.61113525153E+03  0.61113525153E+03  0.00000000000E+00 0.  1.
          1   -1    0    0  502    0 -0.00000000000E+00 -0.00000000000E+00 -0.37182698367E+03  0.37182698367E+03  0.00000000000E+00 0. -1.
        -24    2    1    2    0    0 -0.60924610266E+02 -0.45137224700E+02 -0.48034714420E+00  0.11118696917E+03  0.81321179221E+02 0.  0.
         23    2    1    2    0    0  0.27697552669E+03 -0.84607475034E+02 -0.20110827131E+03  0.36393498606E+03  0.90168010244E+02 0.  0.
         13    1    3    3    0    0 -0.10093397281E+02  0.22162595302E+02 -0.99722505104E+01  0.26315453244E+02  0.00000000000E+00 0. -1.
        -14    1    3    3    0    0 -0.50831212985E+02 -0.67299820002E+02  0.94919033662E+01  0.84871515925E+02  0.00000000000E+00 0.  1.
        -13    1    4    4    0    0  0.16017060832E+03 -0.82608717385E+02 -0.85109939063E+02  0.19930510702E+03  0.00000000000E+00 0.  1.
         13    1    4    4    0    0  0.11680491837E+03 -0.19987576490E+01 -0.11599833225E+03  0.16462987904E+03  0.00000000000E+00 0. -1.
          2    1    1    2  501    0 -0.21605091642E+03  0.12974469973E+03  0.44089688632E+03  0.50784027997E+03  0.00000000000E+00 0. -1.
<scales pt_clust_5="13000.00000" pt_clust_6="13000.00000" pt_clust_7="13000.00000" pt_clust_8="13000.00000" pt_clust_9="255.19420"></scales>
<clustering>
<clus scale="   81.321">  5  6 -1 -1</clus>
<clus scale="   90.168">  7  8 -1 -1</clus>
<clus scale="  111.186">  2  5  1 -1</clus>
<clus scale="  255.194">  1  9  2 -1</clus>
<clus scale="  255.194">  1  5  2 -1</clus>
</clustering>
</event>
<event>
 9    1  0.1487426E-004  0.1254772E+03  0.7546771E-02  0.1243790E+00
          1   -1    0    0  502    0 -0.00000000000E+00  0.00000000000E+00  0.56763941407E+03  0.56763941407E+03  0.00000000000E+00 0. -1.
         21   -1    0    0  501  502  0.00000000000E+00 -0.00000000000E+00 -0.34785091544E+02  0.34785091544E+02  0.00000000000E+00 0.  1.
         23    2    1    2    0    0  0.35460999532E+01 -0.90562085164E+02  0.38588257454E+03  0.40648696196E+03  0.90067878967E+02 0.  0.
        -24    2    1    2    0    0  0.20721068312E+02  0.80413866695E+02  0.95786764157E+02  0.13838943887E+03  0.55504774340E+02 0.  0.
         11    1    4    4    0    0 -0.18695859518E+02  0.21624082281E+02  0.34132953846E+02  0.44521844479E+02  0.00000000000E+00 0. -1.
        -12    1    4    4    0    0  0.39416927830E+02  0.58789784414E+02  0.61653810311E+02  0.93867594392E+02  0.00000000000E+00 0.  1.
        -13    1    3    3    0    0  0.31821215861E+02 -0.51084229570E+02  0.10160742975E+03  0.11809427620E+03  0.00000000000E+00 0.  1.
         13    1    3    3    0    0 -0.28275115907E+02 -0.39477855594E+02  0.28427514478E+03  0.28839268576E+03  0.00000000000E+00 0. -1.
          2    1    1    2  501    0 -0.24267168265E+02  0.10148218469E+02  0.51184983833E+02  0.57548104779E+02  0.00000000000E+00 0. -1.
<scales pt_clust_5="13000.00000" pt_clust_6="13000.00000" pt_clust_7="13000.00000" pt_clust_8="13000.00000" pt_clust_9="26.30366"></scales>
<clustering>
<clus scale="   26.304">  2  9  1 -1</clus>
<clus scale="   55.505">  5  6 -1 -1</clus>
<clus scale="   90.068">  7  8 -1 -1</clus>
<clus scale="  103.504">  2  5  1 -1</clus>
<clus scale="   26.304">  2  5  1 -1</clus>
</clustering>
</event>
<event>
 9    1  0.1487426E-004  0.1190033E+03  0.7546771E-02  0.1248490E+00
         -2   -1    0    0    0  501 -0.00000000000E+00  0.00000000000E+00  0.18797895100E+03  0.18797895100E+03  0.00000000000E+00 0.  1.
         21   -1    0    0  501  502  0.00000000000E+00 -0.00000000000E+00 -0.14560675605E+03  0.14560675605E+03  0.00000000000E+00 0.  1.
        -24    2    1    2    0    0  0.28795611289E+02 -0.78521656709E+02 -0.25634339879E+01  0.11517974056E+03  0.79151523293E+02 0.  0.
         23    2    1    2    0    0 -0.80682174621E+01  0.67977939467E+02 -0.47405277619E+02  0.12318182118E+03  0.90776672859E+02 0.  0.
         13    1    3    3    0    0 -0.23511132497E+02 -0.67001742582E+01 -0.91087660117E+01  0.26088988187E+02  0.00000000000E+00 0. -1.
        -14    1    3    3    0    0  0.52306743786E+02 -0.71821482451E+02  0.65453320238E+01  0.89090752372E+02  0.00000000000E+00 0.  1.
        -13    1    4    4    0    0 -0.34267776841E+02  0.25521323100E+02 -0.58138559126E+02  0.72150609974E+02  0.00000000000E+00 0.  1.
         13    1    4    4    0    0  0.26199559379E+02  0.42456616367E+02  0.10733281507E+02  0.51031211203E+02  0.00000000000E+00 0. -1.
         -1    1    1    2    0  502 -0.20727393827E+02  0.10543717242E+02  0.92340906555E+02  0.95224145318E+02  0.00000000000E+00 0.  1.
<scales pt_clust_5="13000.00000" pt_clust_6="13000.00000" pt_clust_7="13000.00000" pt_clust_8="13000.00000" pt_clust_9="23.25501"></scales>
<clustering>
<clus scale="   23.255">  2  9  1 -1</clus>
<clus scale="   79.152">  5  6 -1 -1</clus>
<clus scale="   90.777">  7  8 -1 -1</clus>
<clus scale="  110.392">  1  5  2 -1</clus>
<clus scale="   23.255">  2  5  1 -1</clus>
</clustering>
</event>
<event>
 9    1  0.1487426E-004  0.1260232E+03  0.7546771E-02  0.1255684E+00
         21   -1    0    0  501  502  0.00000000000E+00  0.00000000000E+00  0.28272863308E+03  0.28272863308E+03  0.00000000000E+00 0. -1.
          1   -1    0    0  502    0 -0.00000000000E+00 -0.00000000000E+00 -0.11808825644E+03  0.11808825644E+03  0.00000000000E+00 0. -1.
        -24    2    1    2    0    0 -0.53938144513E+01 -0.22667231774E+02 -0.23294764347E+02  0.83848523871E+02  0.77104035425E+02 0.  0.
         23    2    1    2    0    0  0.67434146486E+02 -0.43116504629E+02  0.14342451223E+02  0.12123659838E+03  0.89923355126E+02 0.  0.
         13    1    3    3    0    0 -0.14215106178E+01 -0.27650183025E+02 -0.49588209082E+02  0.56793871093E+02  0.00000000000E+00 0. -1.
        -14    1    3    3    0    0 -0.39723038335E+01  0.49829512513E+01  0.26293444735E+02  0.27054652778E+02  0.00000000000E+00 0.  1.
        -13    1    4    4    0    0  0.47304694015E+02 -0.61585525516E+02 -0.17169375154E+02  0.79531745059E+02  0.00000000000E+00 0.  1.
         13    1    4    4    0    0  0.20129452471E+02  0.18469020887E+02  0.31511826377E+02  0.41704853326E+02  0.00000000000E+00 0. -1.
          2    1    1    2  501    0 -0.62040332035E+02  0.65783736403E+02  0.17359268977E+03  0.19573176726E+03  0.00000000000E+00 0. -1.
<scales pt_clust_5="13000.00000" pt_clust_6="13000.00000" pt_clust_7="13000.00000" pt_clust_8="13000.00000" pt_clust_9="88.29285"></scales>
<clustering>
<clus scale="   77.104">  5  6 -1 -1</clus>
<clus scale="   80.548">  2  5  1 -1</clus>
<clus scale="   88.293">  1  9  2 -1</clus>
<clus scale="   89.923">  7  8 -1 -1</clus>
<clus scale="   88.293">  1  5  2 -1</clus>
</clustering>
</event>
<event>
 9    1  0.1487426E-004  0.1357177E+03  0.7546771E-02  0.1226468E+00
          1   -1    0    0  502    0 -0.00000000000E+00  0.00000000000E+00  0.36385681208E+03  0.36385681208E+03  0.00000000000E+00 0. -1.
         21   -1    0    0  501  502  0.00000000000E+00 -0.00000000000E+00 -0.13383727804E+03  0.13383727804E+03  0.00000000000E+00 0.  1.
         23    2    1    2    0    0  0.41349360998E+02  0.95614724217E+02  0.31490486195E+03  0.34363996925E+03  0.89841033188E+02 0.  0.
        -24    2    1    2    0    0 -0.39372731465E+02 -0.73645298094E+02 -0.84837070747E+02  0.13199590069E+03  0.57024094140E+02 0.  0.
         11    1    4    4    0    0  0.38317940601E+01 -0.32936646574E+02 -0.66359820938E+01  0.33816291807E+02  0.00000000000E+00 0. -1.
        -12    1    4    4    0    0 -0.43204525525E+02 -0.40708651521E+02 -0.78201088653E+02  0.98179608886E+02  0.00000000000E+00 0.  1.
        -13    1    3    3    0    0 -0.48325398910E+01  0.77779898112E+02  0.12428505242E+03  0.14669642207E+03  0.00000000000E+00 0. -1.
         13    1    3    3    0    0  0.46181900890E+02  0.17834826105E+02  0.19061980953E+03  0.19694354718E+03  0.00000000000E+00 0.  1.
          2    1    1    2  501    0 -0.19766295331E+01 -0.21969426123E+02 -0.48257159451E-01  0.22058220174E+02  0.00000000000E+00 0. -1.
<scales pt_clust_5="13000.00000" pt_clust_6="13000.00000" pt_clust_7="13000.00000" pt_clust_8="13000.00000" pt_clust_9="22.05817"></scales>
<clustering>
<clus scale="   22.058">  2  9  1 -1</clus>
<clus scale="   57.024">  5  6 -1 -1</clus>
<clus scale="   89.841">  7  8 -1 -1</clus>
<clus scale="  116.617">  2  5  1 -1</clus>
<clus scale="   22.058">  2  5  1 -1</clus>
</clustering>
</event>
<event>
 9    1  0.1487426E-004  0.1862306E+03  0.7546771E-02  0.1183381E+00
         21   -1    0    0  501  502  0.00000000000E+00  0.00000000000E+00  0.14924967739E+03  0.14924967739E+03  0.00000000000E+00 0.  1.
         -2   -1    0    0    0  501 -0.00000000000E+00 -0.00000000000E+00 -0.50731287047E+03  0.50731287047E+03  0.00000000000E+00 0.  1.
        -24    2    1    2    0    0 -0.63755703906E+02 -0.50931394430E+02 -0.18143887487E+03  0.21438898969E+03  0.79898541090E+02 0.  0.
         23    2    1    2    0    0  0.17664829637E+03 -0.61140754196E+02 -0.19110063747E+03  0.28244107008E+03  0.91162996867E+02 0.  0.
         11    1    3    3    0    0 -0.23906728662E+01 -0.49427347523E+02 -0.10712166694E+03  0.11799927766E+03  0.00000000000E+00 0. -1.
        -12    1    3    3    0    0 -0.61365031040E+02 -0.15040469077E+01 -0.74317207929E+02  0.96389712034E+02  0.00000000000E+00 0.  1.
        -11    1    4    4    0    0  0.39754244186E+02 -0.40986339438E+02 -0.16059635876E+02  0.59314347807E+02  0.00000000000E+00 0. -1.
         11    1    4    4    0    0  0.13689405218E+03 -0.20154414758E+02 -0.17504100159E+03  0.22312672228E+03  0.00000000000E+00 0.  1.
         -1    1    1    2    0  502 -0.11289259246E+03  0.11207214863E+03  0.14476319253E+02  0.15973248808E+03  0.00000000000E+00 0.  1.
<scales pt_clust_5="13000.00000" pt_clust_6="13000.00000" pt_clust_7="13000.00000" pt_clust_8="13000.00000" pt_clust_9="162.39192"></scales>
<clustering>
<clus scale="   79.899">  5  6 -1 -1</clus>
<clus scale="   91.163">  7  8 -1 -1</clus>
<clus scale="  114.204">  2  5  1 -1</clus>
<clus scale="  162.392">  1  9  2 -1</clus>
<clus scale="  162.392">  1  5  2 -1</clus>
</clustering>
</event>
<event>
 9    1  0.1487426E-004  0.1103308E+03  0.7546771E-02  0.1265022E+00
         21   -1    0    0  501  502  0.00000000000E+00  0.00000000000E+00  0.19605986468E+02  0.19605986468E+02  0.00000000000E+00 0. -1.
          1   -1    0    0  502    0 -0.00000000000E+00 -0.00000000000E+00 -0.10591945004E+04  0.10591945004E+04  0.00000000000E+00 0. -1.
         23    2    1    2    0    0  0.20220668744E+02  0.79396461190E+02 -0.41072080370E+03  0.42844674306E+03  0.90345777698E+02 0.  0.
        -24    2    1    2    0    0  0.17785149150E+02 -0.46599618976E+02 -0.22057658297E+03  0.23898806750E+03  0.77287977272E+02 0.  0.
         11    1    4    4    0    0 -0.16482068488E+02 -0.17295272335E+02 -0.14305609600E+02  0.27846642398E+02  0.00000000000E+00 0. -1.
        -12    1    4    4    0    0  0.34267217638E+02 -0.29304346641E+02 -0.20627097337E+03  0.21114142510E+03  0.00000000000E+00 0.  1.
        -11    1    3    3    0    0  0.59743362449E+01 -0.20203499799E+02 -0.82753675534E+02  0.85393471132E+02  0.00000000000E+00 0.  1.
         11    1    3    3    0    0  0.14246332499E+02  0.99599960989E+02 -0.32796712817E+03  0.34305327192E+03  0.00000000000E+00 0. -1.
          2    1    1    2  501    0 -0.38005817894E+02 -0.32796842214E+02 -0.40829112723E+03  0.41136567629E+03  0.00000000000E+00 0. -1.
<scales pt_clust_5="13000.00000" pt_clust_6="13000.00000" pt_clust_7="13000.00000" pt_clust_8="13000.00000" pt_clust_9="50.20037"></scales>
<clustering>
<clus scale="   50.200">  1  9  2 -1</clus>
<clus scale="   77.288">  5  6 -1 -1</clus>
<clus scale="   90.346">  7  8 -1 -1</clus>
<clus scale="   99.920">  1  5  2 -1</clus>
<clus scale="   50.200">  1  5  2 -1</clus>
</clustering>
</event>
<event>
 9    1  0.1487426E-004  0.1390378E+03  0.7546771E-02  0.1216913E+00
         21   -1    0    0  501  502  0.00000000000E+00  0.00000000000E+00  0.27386644778E+03  0.27386644778E+03  0.00000000000E+00 0. -1.
          1   -1    0    0  502    0 -0.00000000000E+00 -0.00000000000E+00 -0.30439342166E+03  0.30439342166E+03  0.00000000000E+00 0. -1.
         23    2    1    2    0    0  0.25931850765E+02 -0.91834938822E+02 -0.16667302851E+03  0.21240787058E+03  0.90725344754E+02 0.  0.
        -24    2    1    2    0    0 -0.10309062159E+03  0.10312019407E+03 -0.41739967233E+02  0.17162463293E+03  0.80320228318E+02 0.  0.
         13    1    4    4    0    0 -0.11309925260E+03  0.10014675614E+03 -0.49106354498E+02  0.15884661708E+03  0.00000000000E+00 0. -1.
        -14    1    4    4    0    0  0.10008631006E+02  0.29734379247E+01  0.73663872651E+01  0.12778015849E+02  0.00000000000E+00 0.  1.
        -11    1    3    3    0    0  0.14389103721E+02 -0.71275441713E+02 -0.38875006427E+02  0.82453023121E+02  0.00000000000E+00 0. -1.
         11    1    3    3    0    0  0.11542747044E+02 -0.20559497109E+02 -0.12779802208E+03  0.12995484746E+03  0.00000000000E+00 0.  1.
          2    1    1    2  501    0  0.77158770828E+02 -0.11285255247E+02  0.17788602186E+03  0.19422736593E+03  0.00000000000E+00 0. -1.
<scales pt_clust_5="13000.00000" pt_clust_6="13000.00000" pt_clust_7="13000.00000" pt_clust_8="13000.00000" pt_clust_9="77.97970"></scales>
<clustering>
<clus scale="   77.980">  1  9  2 -1</clus>
<clus scale="   80.320">  5  6 -1 -1</clus>
<clus scale="   90.725">  7  8 -1 -1</clus>
<clus scale="  132.483">  1  5  2 -1</clus>
<clus scale="   77.980">  1  5  2 -1</clus>
</clustering>
</event>
<event>
 9    1  0.1487426E-004  0.1054398E+03  0.7546771E-02  0.1272618E+00
         21   -1    0    0  501  502  0.00000000000E+00  0.00000000000E+00  0.49476978366E+03  0.49476978366E+03  0.00000000000E+00 0.  1.
          1   -1    0    0  502    0 -0.00000000000E+00 -0.00000000000E+00 -0.41389067514E+02  0.41389067514E+02  0.00000000000E+00 0. -1.
         23    2    1    2    0    0  0.47497559803E+02 -0.15329959468E+02  0.59834479090E+02  0.12038244741E+03  0.91764605988E+02 0.  0.
        -24    2    1    2    0    0 -0.50415370071E+02  0.37455765390E+02  0.36353395683E+03  0.37837584402E+03  0.84063652499E+02 0.  0.
         13    1    4    4    0    0  0.20784598188E+02  0.24566861365E+02  0.12764571616E+03  0.13163950415E+03  0.00000000000E+00 0. -1.
        -14    1    4    4    0    0 -0.71199968259E+02  0.12888904025E+02  0.23588824067E+03  0.24673633987E+03  0.00000000000E+00 0.  1.
        -11    1    3    3    0    0 -0.14070869324E+02 -0.18616420231E+02  0.53541646516E+02  0.58406064560E+02  0.00000000000E+00 0.  1.
         11    1    3    3    0    0  0.61568429127E+02  0.32864607632E+01  0.62928325741E+01  0.61976382851E+02  0.00000000000E+00 0. -1.
          2    1    1    2  501    0  0.29178102675E+01 -0.22125805922E+02  0.30012280224E+02  0.37400559738E+02  0.00000000000E+00 0. -1.
<scales pt_clust_5="13000.00000" pt_clust_6="13000.00000" pt_clust_7="13000.00000" pt_clust_8="13000.00000" pt_clust_9="22.31738"></scales>
<clustering>
<clus scale="   22.317">  1  9  2 -1</clus>
<clus scale="   84.064">  5  6 -1 -1</clus>
<clus scale="   91.765">  7  8 -1 -1</clus>
<clus scale="   98.810">  1  5  2 -1</clus>
<clus scale="   22.317">  1  5  2 -1</clus>
</clustering>
</event>
<event>
 9    1  0.1487426E-004  0.9847569E+02  0.7546771E-02  0.1288198E+00
          1   -1    0    0  502    0 -0.00000000000E+00  0.00000000000E+00  0.26845186442E+03  0.26845186442E+03  0.00000000000E+00 0. -1.
         21   -1    0    0  501  502  0.00000000000E+00 -0.00000000000E+00 -0.52262972960E+02  0.52262972960E+02  0.00000000000E+00 0. -1.
        -24    2    1    2    0    0 -0.40994039671E+02  0.53187294585E+01  0.16369879430E+03  0.18752976076E+03  0.81616883932E+02 0.  0.
         23    2    1    2    0    0  0.25647223779E+02 -0.24869796826E+02  0.39924778453E+02  0.10533447111E+03  0.90692204670E+02 0.  0.
         13    1    3    3    0    0 -0.39961339120E+02  0.13292200633E+02  0.25782760220E+02  0.49379570133E+02  0.00000000000E+00 0. -1.
        -14    1    3    3    0    0 -0.10327005505E+01 -0.79734711744E+01  0.13791603408E+03  0.13815019063E+03  0.00000000000E+00 0.  1.
        -13    1    4    4    0    0  0.55733750653E+02 -0.26530479907E+02  0.93915595431E+01  0.62436517493E+02  0.00000000000E+00 0. -1.
         13    1    4    4    0    0 -0.30086526874E+02  0.16606830815E+01  0.30533218910E+02  0.42897953618E+02  0.00000000000E+00 0.  1.
          2    1    1    2  501    0  0.15346815891E+02  0.19551067367E+02  0.12565318705E+02  0.27850605511E+02  0.00000000000E+00 0. -1.
<scales pt_clust_5="13000.00000" pt_clust_6="13000.00000" pt_clust_7="13000.00000" pt_clust_8="13000.00000" pt_clust_9="24.85496"></scales>
<clustering>
<clus scale="   24.855">  2  9  1 -1</clus>
<clus scale="   81.617">  5  6 -1 -1</clus>
<clus scale="   90.187">  1  5  2 -1</clus>
<clus scale="   90.692">  7  8 -1 -1</clus>
<clus scale="   24.855">  2  5  1 -1</clus>
</clustering>
</event>
<event>
 9    1  0.1487426E-004  0.1576456E+03  0.7546771E-02  0.1193068E+00
         -2   -1    0    0    0  501 -0.00000000000E+00  0.00000000000E+00  0.28516625488E+03  0.28516625488E+03  0.00000000000E+00 0.  1.
         21   -1    0    0  501  502  0.00000000000E+00 -0.00000000000E+00 -0.22699582419E+03  0.22699582419E+03  0.00000000000E+00 0. -1.
         23    2    1    2    0    0  0.12928252952E+03  0.50517182677E+02  0.17495694021E+03  0.24125059717E+03  0.91246706906E+02 0.  0.
        -24    2    1    2    0    0 -0.48181749296E+02 -0.10812631579E+03 -0.83945603407E+02  0.16615140416E+03  0.80911331971E+02 0.  0.
         13    1    4    4    0    0 -0.53705898812E+02 -0.11316651824E+03 -0.91804630849E+02  0.15530317016E+03  0.00000000000E+00 0. -1.
        -14    1    4    4    0    0  0.55241495155E+01  0.50402024451E+01  0.78590274421E+01  0.10848233999E+02  0.00000000000E+00 0.  1.
        -11    1    3    3    0    0  0.13919790005E+03  0.31528811919E+02  0.13797457108E+03  0.19851222538E+03  0.00000000000E+00 0. -1.
         11    1    3    3    0    0 -0.99153705291E+01  0.18988370758E+02  0.36982369134E+02  0.42738371793E+02  0.00000000000E+00 0.  1.
         -1    1    1    2    0  502 -0.81100780228E+02  0.57609133116E+02 -0.32840906113E+02  0.10476007773E+03  0.00000000000E+00 0.  1.
<scales pt_clust_5="13000.00000" pt_clust_6="13000.00000" pt_clust_7="13000.00000" pt_clust_8="13000.00000" pt_clust_9="99.47939"></scales>
<clustering>
<clus scale="   80.911">  5  6 -1 -1</clus>
<clus scale="   91.247">  7  8 -1 -1</clus>
<clus scale="   99.479">  2  9  1 -1</clus>
<clus scale="  151.897">  2  5  1 -1</clus>
<clus scale="   99.479">  2  5  1 -1</clus>
</clustering>
</event>
<event>
 9    1  0.1487426E-004  0.9672274E+02  0.7546771E-02  0.1292727E+00
          1   -1    0    0  502    0 -0.00000000000E+00  0.00000000000E+00  0.77098913977E+02  0.77098913977E+02  0.00000000000E+00 0. -1.
         21   -1    0    0  501  502  0.00000000000E+00 -0.00000000000E+00 -0.22391252576E+03  0.22391252576E+03  0.00000000000E+00 0. -1.
         23    2    1    2    0    0 -0.20786676629E+02  0.27010588474E+02  0.18646234923E+02  0.99256932380E+02  0.91337827507E+02 0.  0.
        -24    2    1    2    0    0  0.15127043513E+00 -0.27058300205E+02 -0.15801177997E+03  0.17981604881E+03  0.81448844739E+02 0.  0.
         11    1    4    4    0    0  0.58191886300E+00 -0.48594244360E+02 -0.14853543722E+03  0.15628344546E+03  0.00000000000E+00 0. -1.
        -12    1    4    4    0    0 -0.43064842787E+00  0.21535944155E+02 -0.94763427472E+01  0.23532603353E+02  0.00000000000E+00 0.  1.
        -11    1    3    3    0    0  0.10869414585E+01  0.58843534438E+02  0.12034456751E+02  0.60071383671E+02  0.00000000000E+00 0.  1.
         11    1    3    3    0    0 -0.21873618088E+02 -0.31832945964E+02  0.66117781717E+01  0.39185548709E+02  0.00000000000E+00 0. -1.
          2    1    1    2  501    0  0.20635406194E+02  0.47711731019E-01 -0.74480667407E+01  0.21938458546E+02  0.00000000000E+00 0. -1.
<scales pt_clust_5="13000.00000" pt_clust_6="13000.00000" pt_clust_7="13000.00000" pt_clust_8="13000.00000" pt_clust_9="20.63547"></scales>
<clustering>
<clus scale="   20.635">  2  9  1 -1</clus>
<clus scale="   81.449">  5  6 -1 -1</clus>
<clus scale="   87.445">  2  5  1 -1</clus>
<clus scale="   91.338">  7  8 -1 -1</clus>
<clus scale="   20.635">  2  5  1 -1</clus>
</clustering>
</event>
<event>
 9    1  0.1487426E-004  0.1354560E+03  0.7546771E-02  0.1222157E+00
          3   -1    0    0  502    0 -0.00000000000E+00  0.00000000000E+00  0.14412653001E+03  0.14412653001E+03  0.00000000000E+00 0. -1.
         21   -1    0    0  501  502  0.00000000000E+00 -0.00000000000E+00 -0.19978087955E+03  0.19978087955E+03  0.00000000000E+00 0.  1.
        -24    2    1    2    0    0 -0.36132147129E+01  0.10286522541E+03  0.38119047079E+02  0.13558900186E+03  0.79605312368E+02 0.  0.
         23    2    1    2    0    0  0.24368199019E+02 -0.95258362592E+02 -0.24968219237E+02  0.13604956123E+03  0.90653771974E+02 0.  0.
         13    1    3    3    0    0 -0.31746180613E+02  0.11529709703E+02  0.16564935488E+02  0.37618496475E+02  0.00000000000E+00 0. -1.
        -14    1    3    3    0    0  0.28132965900E+02  0.91335515706E+02  0.21554111591E+02  0.97970505389E+02  0.00000000000E+00 0.  1.
        -13    1    4    4    0    0 -0.20065888584E+02 -0.24458395589E+02 -0.40126490311E+02  0.51097829936E+02  0.00000000000E+00 0.  1.
         13    1    4    4    0    0  0.44434087603E+02 -0.70799967003E+02  0.15158271074E+02  0.84951731299E+02  0.00000000000E+00 0. -1.
          4    1    1    2  501    0 -0.20754984306E+02 -0.76068628172E+01 -0.68805177382E+02  0.72268846469E+02  0.00000000000E+00 0. -1.
<scales pt_clust_5="13000.00000" pt_clust_6="13000.00000" pt_clust_7="13000.00000" pt_clust_8="13000.00000" pt_clust_9="22.10506"></scales>
<clustering>
<clus scale="   22.105">  2  9  1 -1</clus>
<clus scale="   79.605">  5  6 -1 -1</clus>
<clus scale="   90.654">  7  8 -1 -1</clus>
<clus scale="  128.325">  1  5  2 -1</clus>
<clus scale="   22.105">  2  5  1 -1</clus>
</clustering>
</event>
<event>
 9    1  0.1487426E-004  0.1136180E+03  0.7546771E-02  0.1258166E+00
         21   -1    0    0  501  502  0.00000000000E+00  0.00000000000E+00  0.30835021315E+02  0.30835021315E+02  0.00000000000E+00 0. -1.
         -2   -1    0    0    0  501 -0.00000000000E+00 -0.00000000000E+00 -0.62854419250E+03  0.62854419250E+03  0.00000000000E+00 0.  1.
         23    2    1    2    0    0 -0.56134943883E+02 -0.47359929321E+02 -0.44105484147E+03  0.45626204370E+03  0.90838232637E+02 0.  0.
        -24    2    1    2    0    0  0.52374716761E+02  0.27692255237E+02 -0.15375695275E+03  0.18288473316E+03  0.79345152030E+02 0.  0.
         13    1    4    4    0    0  0.34341669695E+02  0.13586254009E+02 -0.11331426324E+02  0.38630788213E+02  0.00000000000E+00 0. -1.
        -14    1    4    4    0    0  0.18033047066E+02  0.14106001228E+02 -0.14242552642E+03  0.14425394495E+03  0.00000000000E+00 0.  1.
        -11    1    3    3    0    0  0.14144546597E+02  0.14494463590E+02 -0.45927073490E+02  0.50194160542E+02  0.00000000000E+00 0. -1.
         11    1    3    3    0    0 -0.70279490481E+02 -0.61854392911E+02 -0.39512776798E+03  0.40606788316E+03  0.00000000000E+00 0.  1.
         -1    1    1    2    0  502  0.37602271222E+01  0.19667674085E+02 -0.28973769765E+01  0.20232436958E+02  0.00000000000E+00 0.  1.
<scales pt_clust_5="13000.00000" pt_clust_6="13000.00000" pt_clust_7="13000.00000" pt_clust_8="13000.00000" pt_clust_9="20.02390"></scales>
<clustering>
<clus scale="   20.024">  1  9  2 -1</clus>
<clus scale="   79.345">  5  6 -1 -1</clus>
<clus scale="   90.838">  7  8 -1 -1</clus>
<clus scale="  104.657">  1  5  2 -1</clus>
<clus scale="   20.024">  1  5  2 -1</clus>
</clustering>
</event>
<event>
 9    1  0.1487426E-004  0.1243271E+03  0.7546771E-02  0.1239568E+00
         -4   -1    0    0    0  501 -0.00000000000E+00  0.00000000000E+00  0.21277253588E+03  0.21277253588E+03  0.00000000000E+00 0.  1.
         21   -1    0    0  501  502  0.00000000000E+00 -0.00000000000E+00 -0.10859827227E+03  0.10859827227E+03  0.00000000000E+00 0. -1.
        -24    2    1    2    0    0  0.79920953318E+02 -0.36480198153E+02  0.10650387179E+03  0.16061164723E+03  0.82066210349E+02 0.  0.
         23    2    1    2    0    0 -0.51160737494E+02  0.43411518332E+02 -0.31319124978E+02  0.11933953637E+03  0.93589830468E+02 0.  0.
         11    1    3    3    0    0  0.87214404481E+02 -0.44188276158E+01  0.78458073210E+02  0.11739483651E+03  0.00000000000E+00 0. -1.
        -12    1    3    3    0    0 -0.72934511632E+01 -0.32061370537E+02  0.28045798584E+02  0.43216810720E+02  0.00000000000E+00 0.  1.
        -13    1    4    4    0    0 -0.51066161013E+02  0.17914227958E+02  0.23409120749E+02  0.58963202917E+02  0.00000000000E+00 0.  1.
         13    1    4    4    0    0 -0.94576480240E-01  0.25497290373E+02 -0.54728245726E+02  0.60376333454E+02  0.00000000000E+00 0. -1.
         -3    1    1    2    0  502 -0.28760215825E+02 -0.69313201790E+01  0.28989516796E+02  0.41419624549E+02  0.00000000000E+00 0.  1.
<scales pt_clust_5="13000.00000" pt_clust_6="13000.00000" pt_clust_7="13000.00000" pt_clust_8="13000.00000" pt_clust_9="29.58368"></scales>
<clustering>
<clus scale="   29.584">  2  9  1 -1</clus>
<clus scale="   82.066">  5  6 -1 -1</clus>
<clus scale="   93.590">  7  8 -1 -1</clus>
<clus scale="  115.901">  1  5  2 -1</clus>
<clus scale="   29.584">  2  5  1 -1</clus>
</clustering>
</event>
<event>
 9    1  0.1487426E-004  0.1347578E+03  0.7546771E-02  0.1236553E+00
          1   -1    0    0  502    0 -0.00000000000E+00  0.00000000000E+00  0.10651116852E+03  0.10651116852E+03  0.00000000000E+00 0. -1.
         21   -1    0    0  501  502  0.00000000000E+00 -0.00000000000E+00 -0.31426957640E+03  0.31426957640E+03  0.00000000000E+00 0. -1.
        -24    2    1    2    0    0  0.23754295194E+02 -0.42286755335E+02  0.17216056186E+02  0.98301795160E+02  0.83752099222E+02 0.  0.
         23    2    1    2    0    0 -0.49355931836E+02 -0.59320378858E+02 -0.11519228658E+03  0.17071736037E+03  0.99600396031E+02 0.  0.
         11    1    3    3    0    0 -0.22930013300E+01 -0.44482100305E+02  0.42766797638E+02  0.61748798230E+02  0.00000000000E+00 0. -1.
        -12    1    3    3    0    0  0.26047296524E+02  0.21953449704E+01 -0.25550741452E+02  0.36552996929E+02  0.00000000000E+00 0.  1.
        -13    1    4    4    0    0  0.10857835818E+02 -0.22869149450E+02 -0.93792160332E+02  0.97148648652E+02  0.00000000000E+00 0.  1.
         13    1    4    4    0    0 -0.60213767654E+02 -0.36451229408E+02 -0.21400126245E+02  0.73568711717E+02  0.00000000000E+00 0. -1.
          2    1    1    2  501    0  0.25601636642E+02  0.10160713419E+03 -0.10978217749E+03  0.15176158938E+03  0.00000000000E+00 0. -1.
<scales pt_clust_5="13000.00000" pt_clust_6="13000.00000" pt_clust_7="13000.00000" pt_clust_8="13000.00000" pt_clust_9="90.77140"></scales>
<clustering>
<clus scale="   83.752">  5  6 -1 -1</clus>
<clus scale="   96.782">  1  5  2 -1</clus>
<clus scale="   90.771">  2  9  1 -1</clus>
<clus scale="   99.600">  7  8 -1 -1</clus>
<clus scale="   90.771">  2  5  1 -1</clus>
</clustering>
</event>
<event>
 9    1  0.1487426E-004  0.1411268E+03  0.7546771E-02  0.1214060E+00
         21   -1    0    0  501  502  0.00000000000E+00  0.00000000000E+00  0.75851153676E+02  0.75851153676E+02  0.00000000000E+00 0. -1.
          1   -1    0    0  502    0 -0.00000000000E+00 -0.00000000000E+00 -0.59250164757E+03  0.59250164757E+03  0.00000000000E+00 0. -1.
         23    2    1    2    0    0 -0.10390777049E+03  0.34108802379E+02 -0.32210227824E+03  0.35225487086E+03  0.91506181394E+02 0.  0.
        -24    2    1    2    0    0  0.61114044520E+02 -0.11144718940E+03 -0.77690363789E+02  0.16957732899E+03  0.81026387182E+02 0.  0.
         11    1    4    4    0    0  0.68640435231E+02 -0.12003100428E+03 -0.65922975195E+02  0.15318221175E+03  0.00000000000E+00 0. -1.
        -12    1    4    4    0    0 -0.75263907103E+01  0.85838148843E+01 -0.11767388594E+02  0.16395117243E+02  0.00000000000E+00 0.  1.
        -11    1    3    3    0    0 -0.80303617022E+02 -0.49076117042E+01 -0.11600679992E+03  0.14117483199E+03  0.00000000000E+00 0. -1.
         11    1    3    3    0    0 -0.23604153473E+02  0.39016414083E+02 -0.20609547831E+03  0.21108003887E+03  0.00000000000E+00 0.  1.
          2    1    1    2  501    0  0.42793725974E+02  0.77338387017E+02 -0.11685785187E+03  0.14652060140E+03  0.00000000000E+00 0. -1.
<scales pt_clust_5="13000.00000" pt_clust_6="13000.00000" pt_clust_7="13000.00000" pt_clust_8="13000.00000" pt_clust_9="88.38856"></scales>
<clustering>
<clus scale="   81.026">  5  6 -1 -1</clus>
<clus scale="   88.389">  1  9  2 -1</clus>
<clus scale="   91.506">  7  8 -1 -1</clus>
<clus scale="  134.568">  1  5  2 -1</clus>
<clus scale="   88.389">  1  5  2 -1</clus>
</clustering>
</event>
<event>
 9    1  0.1487426E-004  0.1109425E+03  0.7546771E-02  0.1263736E+00
         21   -1    0    0  501  502  0.00000000000E+00  0.00000000000E+00  0.83561551795E+02  0.83561551795E+02  0.00000000000E+00 0. -1.
          3   -1    0    0  502    0 -0.00000000000E+00 -0.00000000000E+00 -0.28137480308E+03  0.28137480308E+03  0.00000000000E+00 0. -1.
        -24    2    1    2    0    0  0.15848545788E+02 -0.35462878782E+02 -0.90017351139E+02  0.12692579106E+03  0.80611666369E+02 0.  0.
         23    2    1    2    0    0 -0.36028821438E+02  0.10089522583E+03 -0.87089430059E+02  0.16647460455E+03  0.93012378545E+02 0.  0.
         11    1    3    3    0    0  0.41330116655E+01 -0.61127006226E+02 -0.62173076712E+02  0.87287365314E+02  0.00000000000E+00 0. -1.
        -12    1    3    3    0    0  0.11715534123E+02  0.25664127443E+02 -0.27844274427E+02  0.39638425746E+02  0.00000000000E+00 0.  1.
        -11    1    4    4    0    0 -0.86916291226E+01  0.10825030154E+03 -0.85327825382E+02  0.13811049918E+03  0.00000000000E+00 0. -1.
         11    1    4    4    0    0 -0.27337192315E+02 -0.73550757080E+01 -0.17616046776E+01  0.28364105369E+02  0.00000000000E+00 0.  1.
          4    1    1    2  501    0  0.20180275649E+02 -0.65432347045E+02 -0.20706470089E+02  0.71535959270E+02  0.00000000000E+00 0. -1.
<scales pt_clust_5="13000.00000" pt_clust_6="13000.00000" pt_clust_7="13000.00000" pt_clust_8="13000.00000" pt_clust_9="68.47361"></scales>
<clustering>
<clus scale="   68.474">  1  9  2 -1</clus>
<clus scale="   80.612">  5  6 -1 -1</clus>
<clus scale="   93.012">  7  8 -1 -1</clus>
<clus scale="  100.773">  2  5  1 -1</clus>
<clus scale="   68.474">  1  5  2 -1</clus>
</clustering>
</event>
<event>
 9    1  0.1487426E-004  0.1409720E+03  0.7546771E-02  0.1235247E+00
         21   -1    0    0  501  502  0.00000000000E+00  0.00000000000E+00  0.92447855123E+02  0.92447855123E+02  0.00000000000E+00 0. -1.
          1   -1    0    0  502    0 -0.00000000000E+00 -0.00000000000E+00 -0.32588570471E+03  0.32588570471E+03  0.00000000000E+00 0. -1.
         23    2    1    2    0    0  0.19433230978E+02 -0.40452938698E+02 -0.85702069683E+02  0.12200021932E+03  0.74331137832E+02 0.  0.
        -24    2    1    2    0    0  0.91027628139E+02  0.68815410822E+02 -0.86069812365E+02  0.16668488207E+03  0.85756909111E+02 0.  0.
         13    1    4    4    0    0  0.10061409824E+03  0.79445890897E+02 -0.74456622704E+02  0.14825193088E+03  0.00000000000E+00 0. -1.
        -14    1    4    4    0    0 -0.95864701011E+01 -0.10630480075E+02 -0.11613189661E+02  0.18432951194E+02  0.00000000000E+00 0.  1.
        -13    1    3    3    0    0 -0.12465798504E+02 -0.21030874415E+02  0.40565514371E+01  0.24782038265E+02  0.00000000000E+00 0. -1.
         13    1    3    3    0    0  0.31899029482E+02 -0.19422064283E+02 -0.89758621120E+02  0.97218181059E+02  0.00000000000E+00 0.  1.
          2    1    1    2  501    0 -0.11046085912E+03 -0.28362472124E+02 -0.61665967536E+02  0.12964845843E+03  0.00000000000E+00 0. -1.
<scales pt_clust_5="13000.00000" pt_clust_6="13000.00000" pt_clust_7="13000.00000" pt_clust_8="13000.00000" pt_clust_9="111.88767"></scales>
<clustering>
<clus scale="   74.331">  7  8 -1 -1</clus>
<clus scale="   85.757">  5  6 -1 -1</clus>
<clus scale="   86.829">  2  7  1 -1</clus>
<clus scale="  111.888">  1  9  2 -1</clus>
<clus scale="  111.888">  1  5  2 -1</clus>
</clustering>
</event>
<event>
 9    1  0.1487426E-004  0.1563829E+03  0.7546771E-02  0.1209590E+00
         21   -1    0    0  501  502  0.00000000000E+00  0.00000000000E+00  0.36177629409E+03  0.36177629409E+03  0.00000000000E+00 0. -1.
          3   -1    0    0  502    0 -0.00000000000E+00 -0.00000000000E+00 -0.25436587551E+03  0.25436587551E+03  0.00000000000E+00 0. -1.
         23    2    1    2    0    0 -0.35136053737E+02  0.46293688903E+02  0.72093334700E+01  0.10901424409E+03  0.91948262739E+02 0.  0.
        -24    2    1    2    0    0 -0.27607651553E+02  0.76088106430E+02 -0.16906280742E+03  0.20477528338E+03  0.82456664165E+02 0.  0.
         11    1    4    4    0    0  0.22093262999E+02  0.52829651450E+02 -0.61549365819E+02  0.84067881946E+02  0.00000000000E+00 0. -1.
        -12    1    4    4    0    0 -0.49700914552E+02  0.23258454981E+02 -0.10751344160E+03  0.12070740143E+03  0.00000000000E+00 0.  1.
        -13    1    3    3    0    0  0.87745005508E+01  0.60681068989E+02 -0.40794950455E+01  0.61447752387E+02  0.00000000000E+00 0.  1.
         13    1    3    3    0    0 -0.43910554288E+02 -0.14387380086E+02  0.11288828516E+02  0.47566491702E+02  0.00000000000E+00 0. -1.
          4    1    1    2  501    0  0.62743705290E+02 -0.12238179533E+03  0.26926389253E+03  0.30235264213E+03  0.00000000000E+00 0. -1.
<scales pt_clust_5="13000.00000" pt_clust_6="13000.00000" pt_clust_7="13000.00000" pt_clust_8="13000.00000" pt_clust_9="132.87784"></scales>
<clustering>
<clus scale="   82.457">  5  6 -1 -1</clus>
<clus scale="   91.948">  7  8 -1 -1</clus>
<clus scale="  108.776">  2  7  1 -1</clus>
<clus scale="  132.878">  1  9  2 -1</clus>
<clus scale="  132.878">  1  5  2 -1</clus>
</clustering>
</event>
<event>
 9    1  0.1487426E-004  0.2104801E+03  0.7546771E-02  0.1172290E+00
          1   -1    0    0  502    0 -0.00000000000E+00  0.00000000000E+00  0.16590197602E+04  0.16590197602E+04  0.00000000000E+00 0. -1.
         21   -1    0    0  501  502  0.00000000000E+00 -0.00000000000E+00 -0.60979855293E+02  0.60979855293E+02  0.00000000000E+00 0. -1.
         23    2    1    2    0    0  0.22889711796E+02 -0.39202004692E+02  0.46040984937E+02  0.11154358910E+03  0.90892595389E+02 0.  0.
        -24    2    1    2    0    0 -0.16578619361E+03 -0.98692807764E+02  0.58883931607E+03  0.62503810587E+03  0.81948528684E+02 0.  0.
         11    1    4    4    0    0 -0.11400177613E+03 -0.10795691134E+03  0.43874139335E+03  0.46598831520E+03  0.00000000000E+00 0. -1.
        -12    1    4    4    0    0 -0.51784417474E+02  0.92641035779E+01  0.15009792272E+03  0.15904979067E+03  0.00000000000E+00 0.  1.
        -11    1    3    3    0    0  0.13246269648E+02 -0.67077614338E+02  0.17674652745E+02  0.70620559007E+02  0.00000000000E+00 0. -1.
         11    1    3    3    0    0  0.96434421477E+01  0.27875609646E+02  0.28366332192E+02  0.40923030089E+02  0.00000000000E+00 0.  1.
          2    1    1    2  501    0  0.14289648181E+03  0.13789481246E+03  0.96315960386E+03  0.98341792049E+03  0.00000000000E+00 0. -1.
<scales pt_clust_5="13000.00000" pt_clust_6="13000.00000" pt_clust_7="13000.00000" pt_clust_8="13000.00000" pt_clust_9="193.87195"></scales>
<clustering>
<clus scale="   81.949">  5  6 -1 -1</clus>
<clus scale="   90.893">  7  8 -1 -1</clus>
<clus scale="  101.598">  1  7  2 -1</clus>
<clus scale="  193.872">  2  9  1 -1</clus>
<clus scale="  193.872">  2  5  1 -1</clus>
</clustering>
</event>
<event>
 9    1  0.1487426E-004  0.9864352E+02  0.7546771E-02  0.1286786E+00
         21   -1    0    0  501  502  0.00000000000E+00  0.00000000000E+00  0.39712915057E+03  0.39712915057E+03  0.00000000000E+00 0. -1.
          1   -1    0    0  502    0 -0.00000000000E+00 -0.00000000000E+00 -0.25816812855E+03  0.25816812855E+03  0.00000000000E+00 0. -1.
         23    2    1    2    0    0  0.56626913405E+01  0.20895190204E+02 -0.88727097452E+02  0.12720787850E+03  0.88547566223E+02 0.  0.
        -24    2    1    2    0    0  0.61608008573E+02 -0.51932838094E+02 -0.12397416470E+03  0.16870792535E+03  0.81241640629E+02 0.  0.
         13    1    4    4    0    0  0.23171046695E+02  0.68285277126E+01 -0.85072598505E+02  0.88435701004E+02  0.00000000000E+00 0. -1.
        -14    1    4    4    0    0  0.38436961878E+02 -0.58761365807E+02 -0.38901566192E+02  0.80272224350E+02  0.00000000000E+00 0.  1.
        -11    1    3    3    0    0  0.40260317456E+02  0.73727748035E+01 -0.13141605300E+02  0.42987821064E+02  0.00000000000E+00 0.  1.
         11    1    3    3    0    0 -0.34597626116E+02  0.13522415401E+02 -0.75585492152E+02  0.84220057439E+02  0.00000000000E+00 0. -1.
          2    1    1    2  501    0 -0.67270699913E+02  0.31037647890E+02  0.35166228417E+03  0.35938147526E+03  0.00000000000E+00 0. -1.
<scales pt_clust_5="13000.00000" pt_clust_6="13000.00000" pt_clust_7="13000.00000" pt_clust_8="13000.00000" pt_clust_9="74.08564"></scales>
<clustering>
<clus scale="   74.086">  1  9  2 -1</clus>
<clus scale="   81.242">  5  6 -1 -1</clus>
<clus scale="   88.548">  7  8 -1 -1</clus>
<clus scale="   92.142">  1  5  2 -1</clus>
<clus scale="   74.086">  1  5  2 -1</clus>
</clustering>
</event>
<event>
 9    1  0.1487426E-004  0.1495675E+03  0.7546771E-02  0.1223966E+00
         -2   -1    0    0    0  501 -0.00000000000E+00  0.00000000000E+00  0.19107748368E+03  0.19107748368E+03  0.00000000000E+00 0.  1.
         21   -1    0    0  501  502  0.00000000000E+00 -0.00000000000E+00 -0.19780621090E+03  0.19780621090E+03  0.00000000000E+00 0. -1.
        -24    2    1    2    0    0 -0.43596788946E+02  0.16132743429E+02 -0.74673743640E+02  0.11832561672E+03  0.79144413359E+02 0.  0.
         23    2    1    2    0    0  0.56547334107E+02  0.94184274031E+02  0.38677204021E+02  0.15569221781E+03  0.10332406354E+03 0.  0.
         11    1    3    3    0    0 -0.29838855226E+02  0.47582456540E+02 -0.55712579110E+02  0.79109663902E+02  0.00000000000E+00 0. -1.
        -12    1    3    3    0    0 -0.13757933720E+02 -0.31449713111E+02 -0.18961164529E+02  0.39215952817E+02  0.00000000000E+00 0.  1.
        -11    1    4    4    0    0  0.69742884640E+01  0.44040349122E+02 -0.32750055139E+02  0.55324128208E+02  0.00000000000E+00 0. -1.
         11    1    4    4    0    0  0.49573045643E+02  0.50143924909E+02  0.71427259159E+02  0.10036808960E+03  0.00000000000E+00 0.  1.
         -1    1    1    2    0  502 -0.12950545161E+02 -0.11031701746E+03  0.29267812397E+02  0.11486586004E+03  0.00000000000E+00 0.  1.
<scales pt_clust_5="13000.00000" pt_clust_6="13000.00000" pt_clust_7="13000.00000" pt_clust_8="13000.00000" pt_clust_9="108.14146"></scales>
<clustering>
<clus scale="   79.144">  5  6 -1 -1</clus>
<clus scale="   91.787">  1  5  2 -1</clus>
<clus scale="  103.324">  7  8 -1 -1</clus>
<clus scale="  108.141">  2  9  1 -1</clus>
<clus scale="  108.141">  2  5  1 -1</clus>
</clustering>
</event>
<event>
 9    1  0.1487426E-004  0.1832267E+03  0.7546771E-02  0.1166323E+00
          1   -1    0    0  502    0 -0.00000000000E+00  0.00000000000E+00  0.58419129728E+03  0.58419129728E+03  0.00000000000E+00 0. -1.
         21   -1    0    0  501  502  0.00000000000E+00 -0.00000000000E+00 -0.11436964651E+03  0.11436964651E+03  0.00000000000E+00 0.  1.
         23    2    1    2    0    0 -0.16741773015E+03 -0.38203928033E+02  0.36173809636E+03  0.41112868119E+03  0.93188548900E+02 0.  0.
        -24    2    1    2    0    0  0.13610391876E+03  0.28305826017E+02  0.15980594471E+03  0.22616454789E+03  0.79290392032E+02 0.  0.
         13    1    4    4    0    0  0.13377289087E+03  0.42088366541E+02  0.15922060102E+03  0.21217402461E+03  0.00000000000E+00 0. -1.
        -14    1    4    4    0    0  0.23310278851E+01 -0.13782540524E+02  0.58534368981E+00  0.13990523276E+02  0.00000000000E+00 0.  1.
        -11    1    3    3    0    0 -0.14593908162E+03 -0.23322358706E+02  0.35440983263E+03  0.38399020486E+03  0.00000000000E+00 0.  1.
         11    1    3    3    0    0 -0.21478648525E+02 -0.14881569327E+02  0.73282637355E+01  0.27138476330E+02  0.00000000000E+00 0. -1.
          2    1    1    2  501    0  0.31313811393E+02  0.98981020160E+01 -0.51722390306E+02  0.61267714716E+02  0.00000000000E+00 0. -1.
<scales pt_clust_5="13000.00000" pt_clust_6="13000.00000" pt_clust_7="13000.00000" pt_clust_8="13000.00000" pt_clust_9="32.84094"></scales>
<clustering>
<clus scale="   32.841">  2  9  1 -1</clus>
<clus scale="   79.290">  5  6 -1 -1</clus>
<clus scale="   93.189">  7  8 -1 -1</clus>
<clus scale="  176.564">  2  5  1 -1</clus>
<clus scale="   32.841">  2  5  1 -1</clus>
</clustering>
</event>
<event>
 9    1  0.1487426E-004  0.9149558E+02  0.7546771E-02  0.1306186E+00
         21   -1    0    0  501  502  0.00000000000E+00  0.00000000000E+00  0.13839468929E+03  0.13839468929E+03  0.00000000000E+00 0. -1.
          1   -1    0    0  502    0 -0.00000000000E+00 -0.00000000000E+00 -0.12667069419E+03  0.12667069419E+03  0.00000000000E+00 0. -1.
        -24    2    1    2    0    0  0.16556865823E+02 -0.12140197574E+02 -0.27240897312E+02  0.86959003473E+02  0.79989296757E+02 0.  0.
         23    2    1    2    0    0  0.15498764429E+02 -0.22685605188E+02  0.72980058026E+02  0.11981889027E+03  0.90970485402E+02 0.  0.
         13    1    3    3    0    0  0.19641179230E+02 -0.15185880140E+02 -0.54220031071E+02  0.59633871637E+02  0.00000000000E+00 0. -1.
        -14    1    3    3    0    0 -0.30843134073E+01  0.30456825656E+01  0.26979133758E+02  0.27325131835E+02  0.00000000000E+00 0.  1.
        -11    1    4    4    0    0  0.11934847941E+02  0.31473162449E+02  0.69946271760E+01  0.34379141340E+02  0.00000000000E+00 0.  1.
         11    1    4    4    0    0  0.35639164875E+01 -0.54158767637E+02  0.65985430850E+02  0.85439748930E+02  0.00000000000E+00 0. -1.
          2    1    1    2  501    0 -0.32055630251E+02  0.34825802762E+02 -0.34015165610E+02  0.58287489741E+02  0.00000000000E+00 0. -1.
<scales pt_clust_5="13000.00000" pt_clust_6="13000.00000" pt_clust_7="13000.00000" pt_clust_8="13000.00000" pt_clust_9="47.33289"></scales>
<clustering>
<clus scale="   47.333">  1  9  2 -1</clus>
<clus scale="   79.989">  5  6 -1 -1</clus>
<clus scale="   80.586">  2  5  1 -1</clus>
<clus scale="   90.970">  7  8 -1 -1</clus>
<clus scale="   47.333">  1  5  2 -1</clus>
</clustering>
</event>
<event>
 9    1  0.1487426E-004  0.9263625E+02  0.7546771E-02  0.1301338E+00
          1   -1    0    0  502    0 -0.00000000000E+00  0.00000000000E+00  0.30143146367E+03  0.30143146367E+03  0.00000000000E+00 0. -1.
         21   -1    0    0  501  502  0.00000000000E+00 -0.00000000000E+00 -0.62495625677E+02  0.62495625677E+02  0.00000000000E+00 0.  1.
         23    2    1    2    0    0  0.89018388699E+01 -0.23398419461E+02  0.12758439516E+03  0.15777540236E+03  0.89378805844E+02 0.  0.
        -24    2    1    2    0    0  0.21853936032E+02  0.27083629482E+02 -0.21950081310E+01  0.88455913953E+02  0.81292761956E+02 0.  0.
         13    1    4    4    0    0 -0.21344352819E+02  0.38019013283E+02  0.23485039885E+01  0.43663969578E+02  0.00000000000E+00 0. -1.
        -14    1    4    4    0    0  0.43198288851E+02 -0.10935383801E+02 -0.45435121195E+01  0.44791944375E+02  0.00000000000E+00 0.  1.
        -11    1    3    3    0    0  0.26242915438E+02  0.23344277941E+02  0.23193304091E+02  0.42090085268E+02  0.00000000000E+00 0. -1.
         11    1    3    3    0    0 -0.17341076568E+02 -0.46742697402E+02  0.10439109107E+03  0.11568531710E+03  0.00000000000E+00 0.  1.
          2    1    1    2  501    0 -0.30755774902E+02 -0.36852100205E+01  0.11354645097E+03  0.11769577303E+03  0.00000000000E+00 0. -1.
<scales pt_clust_5="13000.00000" pt_clust_6="13000.00000" pt_clust_7="13000.00000" pt_clust_8="13000.00000" pt_clust_9="30.97579"></scales>
<clustering>
<clus scale="   30.976">  2  9  1 -1</clus>
<clus scale="   81.293">  5  6 -1 -1</clus>
<clus scale="   84.861">  2  5  1 -1</clus>
<clus scale="   89.379">  7  8 -1 -1</clus>
<clus scale="   30.976">  2  5  1 -1</clus>
</clustering>
</event>
<event>
 9    1  0.1487426E-004  0.1005009E+03  0.7546771E-02  0.1285612E+00
          1   -1    0    0  502    0 -0.00000000000E+00  0.00000000000E+00  0.45801497392E+03  0.45801497392E+03  0.00000000000E+00 0. -1.
         21   -1    0    0  501  502  0.00000000000E+00 -0.00000000000E+00 -0.10859386346E+03  0.10859386346E+03  0.00000000000E+00 0.  1.
        -24    2    1    2    0    0 -0.36566506499E+01  0.38335747308E+02  0.38560512434E+03  0.39585692759E+03  0.80798481366E+02 0.  0.
         23    2    1    2    0    0 -0.20479637672E+02 -0.19877687615E+02 -0.73876283713E+02  0.12233737079E+03  0.93242634954E+02 0.  0.
         13    1    3    3    0    0 -0.35632167383E+02 -0.19652046466E+01  0.11517304983E+03  0.12057505874E+03  0.00000000000E+00 0. -1.
        -14    1    3    3    0    0  0.31975516733E+02  0.40300951955E+02  0.27043207450E+03  0.27528186885E+03  0.00000000000E+00 0.  1.
        -13    1    4    4    0    0  0.11795848442E+02 -0.36910882522E+02 -0.76494301706E+02  0.85749247708E+02  0.00000000000E+00 0.  1.
         13    1    4    4    0    0 -0.32275486114E+02  0.17033194907E+02  0.26180179936E+01  0.36588123085E+02  0.00000000000E+00 0. -1.
          2    1    1    2  501    0  0.24136288322E+02 -0.18458059693E+02  0.37692269834E+02  0.48414539002E+02  0.00000000000E+00 0. -1.
<scales pt_clust_5="13000.00000" pt_clust_6="13000.00000" pt_clust_7="13000.00000" pt_clust_8="13000.00000" pt_clust_9="30.38522"></scales>
<clustering>
<clus scale="   30.385">  2  9  1 -1</clus>
<clus scale="   80.798">  5  6 -1 -1</clus>
<clus scale="   89.077">  1  5  2 -1</clus>
<clus scale="   93.243">  7  8 -1 -1</clus>
<clus scale="   30.385">  2  5  1 -1</clus>
</clustering>
</event>
<event>
 9    1  0.1487426E-004  0.1466219E+03  0.7546771E-02  0.1206416E+00
         21   -1    0    0  501  502  0.00000000000E+00  0.00000000000E+00  0.12015207589E+03  0.12015207589E+03  0.00000000000E+00 0. -1.
         -2   -1    0    0    0  501 -0.00000000000E+00 -0.00000000000E+00 -0.26146781508E+03  0.26146781508E+03  0.00000000000E+00 0.  1.
        -24    2    1    2    0    0  0.12417793187E+03  0.42114838021E+01 -0.88719557829E+02  0.17395710434E+03  0.83378767381E+02 0.  0.
         23    2    1    2    0    0 -0.96511357539E+02  0.36956390907E+02 -0.44554181913E+01  0.13854139833E+03  0.92161007685E+02 0.  0.
         11    1    3    3    0    0  0.32367919106E+02  0.36973775505E+02 -0.46750281835E+02  0.67825740792E+02  0.00000000000E+00 0. -1.
        -12    1    3    3    0    0  0.91810012761E+02 -0.32762291703E+02 -0.41969275995E+02  0.10613136355E+03  0.00000000000E+00 0.  1.
        -13    1    4    4    0    0 -0.39681789691E+02  0.62224940954E+02 -0.15402846266E+02  0.75391215556E+02  0.00000000000E+00 0.  1.
         13    1    4    4    0    0 -0.56829567847E+02 -0.25268550047E+02  0.10947428075E+02  0.63150182776E+02  0.00000000000E+00 0. -1.
         -1    1    1    2    0  502 -0.27666574328E+02 -0.41167874710E+02 -0.48140763169E+02  0.69121388308E+02  0.00000000000E+00 0.  1.
<scales pt_clust_5="13000.00000" pt_clust_6="13000.00000" pt_clust_7="13000.00000" pt_clust_8="13000.00000" pt_clust_9="49.60076"></scales>
<clustering>
<clus scale="   49.601">  1  9  2 -1</clus>
<clus scale="   83.379">  5  6 -1 -1</clus>
<clus scale="   92.161">  7  8 -1 -1</clus>
<clus scale="  141.267">  2  5  1 -1</clus>
<clus scale="   49.601">  1  5  2 -1</clus>
</clustering>
</event>
<event>
 9    1  0.1487426E-004  0.1145614E+03  0.7546771E-02  0.1256278E+00
         21   -1    0    0  501  502  0.00000000000E+00  0.00000000000E+00  0.13352126223E+03  0.13352126223E+03  0.00000000000E+00 0.  1.
         -2   -1    0    0    0  501 -0.00000000000E+00 -0.00000000000E+00 -0.12472815362E+03  0.12472815362E+03  0.00000000000E+00 0.  1.
         23    2    1    2    0    0  0.54377337493E+02  0.32397418324E+02  0.21945128252E+02  0.11060431553E+03  0.88007036154E+02 0.  0.
        -24    2    1    2    0    0 -0.78536374885E+02 -0.28048097654E+02  0.10386599650E+02  0.11363565639E+03  0.76488711514E+02 0.  0.
         11    1    4    4    0    0 -0.25507061633E+02 -0.40317302531E+02 -0.19500489008E+02  0.51539927708E+02  0.00000000000E+00 0. -1.
        -12    1    4    4    0    0 -0.53029313252E+02  0.12269204877E+02  0.29887088658E+02  0.62095728683E+02  0.00000000000E+00 0.  1.
        -13    1    3    3    0    0  0.41870724650E+02 -0.25447388766E+02  0.13503267185E+02  0.50823866464E+02  0.00000000000E+00 0.  1.
         13    1    3    3    0    0  0.12506612843E+02  0.57844807090E+02  0.84418610667E+01  0.59780449064E+02  0.00000000000E+00 0. -1.
         -1    1    1    2    0  502  0.24159037392E+02 -0.43493206696E+01 -0.23538619296E+02  0.34009443929E+02  0.00000000000E+00 0.  1.
<scales pt_clust_5="13000.00000" pt_clust_6="13000.00000" pt_clust_7="13000.00000" pt_clust_8="13000.00000" pt_clust_9="24.54743"></scales>
<clustering>
<clus scale="   24.547">  1  9  2 -1</clus>
<clus scale="   76.489">  5  6 -1 -1</clus>
<clus scale="   88.007">  7  8 -1 -1</clus>
<clus scale="  105.970">  1  5  2 -1</clus>
<clus scale="   24.547">  1  5  2 -1</clus>
</clustering>
</event>
<event>
 9    1  0.1487426E-004  0.1288019E+03  0.7546771E-02  0.1232491E+00
         21   -1    0    0  501  502  0.00000000000E+00  0.00000000000E+00  0.27117181386E+03  0.27117181386E+03  0.00000000000E+00 0.  1.
          1   -1    0    0  502    0 -0.00000000000E+00 -0.00000000000E+00 -0.19196450900E+03  0.19196450900E+03  0.00000000000E+00 0. -1.
         23    2    1    2    0    0 -0.37033643556E+02 -0.10238590584E+03 -0.90868597743E+02  0.16871723960E+03  0.91400439902E+02 0.  0.
        -24    2    1    2    0    0 -0.31336127500E+02  0.72306251375E+02  0.34216794667E+01  0.11179148048E+03  0.79217929435E+02 0.  0.
         13    1    4    4    0    0 -0.34036217190E+02  0.40701049561E+02 -0.33783560447E+02  0.62899669891E+02  0.00000000000E+00 0. -1.
        -14    1    4    4    0    0  0.27000896905E+01  0.31605201814E+02  0.37205239913E+02  0.48891810593E+02  0.00000000000E+00 0.  1.
        -13    1    3    3    0    0 -0.12919105610E+02 -0.11023317504E+03 -0.90736786205E+02  0.14335766649E+03  0.00000000000E+00 0. -1.
         13    1    3    3    0    0 -0.24114537947E+02  0.78472692050E+01 -0.13181153792E+00  0.25359573116E+02  0.00000000000E+00 0.  1.
          2    1    1    2  501    0  0.68369771056E+02  0.30079654463E+02  0.16665422313E+03  0.18262760277E+03  0.00000000000E+00 0. -1.
<scales pt_clust_5="13000.00000" pt_clust_6="13000.00000" pt_clust_7="13000.00000" pt_clust_8="13000.00000" pt_clust_9="74.69412"></scales>
<clustering>
<clus scale="   74.694">  1  9  2 -1</clus>
<clus scale="   79.218">  5  6 -1 -1</clus>
<clus scale="   91.400">  7  8 -1 -1</clus>
<clus scale="  120.463">  1  5  2 -1</clus>
<clus scale="   74.694">  1  5  2 -1</clus>
</clustering>
</event>
<event>
 9    1  0.1487426E-004  0.1407870E+03  0.7546771E-02  0.1215712E+00
         21   -1    0    0  501  502  0.00000000000E+00  0.00000000000E+00  0.35682944907E+02  0.35682944907E+02  0.00000000000E+00 0. -1.
          1   -1    0    0  502    0 -0.00000000000E+00 -0.00000000000E+00 -0.12796226923E+04  0.12796226923E+04  0.00000000000E+00 0. -1.
        -24    2    1    2    0    0  0.10891570417E+03 -0.98212306814E+01 -0.79065602079E+03  0.80197144348E+03  0.77859911165E+02 0.  0.
         23    2    1    2    0    0 -0.79235516924E+02  0.47643308107E+02 -0.12467934282E+03  0.18123140226E+03  0.93550685136E+02 0.  0.
         11    1    3    3    0    0  0.86102328611E+02 -0.40945565841E+02 -0.53734128839E+03  0.54573419406E+03  0.00000000000E+00 0. -1.
        -12    1    3    3    0    0  0.22813375560E+02  0.31124335160E+02 -0.25331473240E+03  0.25623724943E+03  0.00000000000E+00 0.  1.
        -11    1    4    4    0    0  0.14249213026E+02  0.26851678540E+02 -0.54841728253E+02  0.62703013245E+02  0.00000000000E+00 0.  1.
         11    1    4    4    0    0 -0.93484729950E+02  0.20791629567E+02 -0.69837614564E+02  0.11852838901E+03  0.00000000000E+00 0. -1.
          2    1    1    2  501    0 -0.29680187247E+02 -0.37822077425E+02 -0.32860438380E+03  0.33210279148E+03  0.00000000000E+00 0. -1.
<scales pt_clust_5="13000.00000" pt_clust_6="13000.00000" pt_clust_7="13000.00000" pt_clust_8="13000.00000" pt_clust_9="48.07729"></scales>
<clustering>
<clus scale="   48.077">  1  9  2 -1</clus>
<clus scale="   77.860">  5  6 -1 -1</clus>
<clus scale="   93.551">  7  8 -1 -1</clus>
<clus scale="  130.887">  2  5  1 -1</clus>
<clus scale="   48.077">  1  5  2 -1</clus>
</clustering>
</event>
<event>
 9    1  0.1487426E-004  0.1970760E+03  0.7546771E-02  0.1153411E+00
          1   -1    0    0  502    0 -0.00000000000E+00  0.00000000000E+00  0.56256157836E+03  0.56256157836E+03  0.00000000000E+00 0. -1.
         21   -1    0    0  501  502  0.00000000000E+00 -0.00000000000E+00 -0.10082502739E+03  0.10082502739E+03  0.00000000000E+00 0.  1.
         23    2    1    2    0    0  0.18946684471E+03 -0.16545792765E+02  0.32078067031E+03  0.38401071028E+03  0.91610799910E+02 0.  0.
        -24    2    1    2    0    0 -0.14497212256E+03 -0.14894180713E+02  0.49881032165E+02  0.17324917753E+03  0.79299477971E+02 0.  0.
         13    1    4    4    0    0 -0.11224714244E+03 -0.12052529478E+02  0.71771437262E+02  0.13377527297E+03  0.00000000000E+00 0. -1.
        -14    1    4    4    0    0 -0.32724980117E+02 -0.28416512343E+01 -0.21890405097E+02  0.39473904554E+02  0.00000000000E+00 0.  1.
        -11    1    3    3    0    0  0.20337059407E+02  0.25032567312E+02  0.25183456516E+02  0.40919822747E+02  0.00000000000E+00 0.  1.
         11    1    3    3    0    0  0.16912978531E+03 -0.41578360077E+02  0.29559721380E+03  0.34309088753E+03  0.00000000000E+00 0. -1.
          2    1    1    2  501    0 -0.44494722158E+02  0.31439973478E+02  0.91074848494E+02  0.10612671794E+03  0.00000000000E+00 0. -1.
<scales pt_clust_5="13000.00000" pt_clust_6="13000.00000" pt_clust_7="13000.00000" pt_clust_8="13000.00000" pt_clust_9="54.48170"></scales>
<clustering>
<clus scale="   54.482">  2  9  1 -1</clus>
<clus scale="   79.299">  5  6 -1 -1</clus>
<clus scale="   91.611">  7  8 -1 -1</clus>
<clus scale="  191.663">  2  5  1 -1</clus>
<clus scale="   54.482">  2  5  1 -1</clus>
</clustering>
</event>
<event>
 9    1  0.1487426E-004  0.1778064E+03  0.7546771E-02  0.1201675E+00
         -2   -1    0    0    0  501 -0.00000000000E+00  0.00000000000E+00  0.90494976314E+02  0.90494976314E+02  0.00000000000E+00 0.  1.
         21   -1    0    0  501  502  0.00000000000E+00 -0.00000000000E+00 -0.11203927141E+04  0.11203927141E+04  0.00000000000E+00 0.  1.
        -24    2    1    2    0    0  0.10989608608E+02  0.31350814874E+02 -0.13847686638E+03  0.16393460229E+03  0.81210013016E+02 0.  0.
         23    2    1    2    0    0 -0.81643637325E+02 -0.16269129209E+03 -0.75628679279E+02  0.21764059367E+03  0.92269121849E+02 0.  0.
         13    1    3    3    0    0  0.26446604145E+01  0.35093838480E+02 -0.12082337792E+02  0.37209603794E+02  0.00000000000E+00 0. -1.
        -14    1    3    3    0    0  0.83449481939E+01 -0.37430236058E+01 -0.12639452859E+03  0.12672499850E+03  0.00000000000E+00 0.  1.
        -11    1    4    4    0    0 -0.17106481352E+02 -0.11286059759E+03 -0.74096960208E+02  0.13609006468E+03  0.00000000000E+00 0.  1.
         11    1    4    4    0    0 -0.64537155973E+02 -0.49830694496E+02 -0.15317190714E+01  0.81550528988E+02  0.00000000000E+00 0. -1.
         -1    1    1    2    0  502  0.70654028716E+02  0.13134047721E+03 -0.81579219216E+03  0.82931249449E+03  0.00000000000E+00 0.  1.
<scales pt_clust_5="13000.00000" pt_clust_6="13000.00000" pt_clust_7="13000.00000" pt_clust_8="13000.00000" pt_clust_9="151.99188"></scales>
<clustering>
<clus scale="   81.210">  5  6 -1 -1</clus>
<clus scale="   87.742">  1  5  2 -1</clus>
<clus scale="   92.269">  7  8 -1 -1</clus>
<clus scale="  151.992">  2  9  1 -1</clus>
<clus scale="  151.992">  2  5  1 -1</clus>
</clustering>
</event>
<event>
 9    1  0.1487426E-004  0.1108165E+03  0.7546771E-02  0.1264157E+00
         21   -1    0    0  501  502  0.00000000000E+00  0.00000000000E+00  0.73755776286E+02  0.73755776286E+02  0.00000000000E+00 0. -1.
          1   -1    0    0  502    0 -0.00000000000E+00 -0.00000000000E+00 -0.30226638014E+03  0.30226638014E+03  0.00000000000E+00 0. -1.
         23    2    1    2    0    0 -0.81724407288E+02  0.23693549470E+02 -0.11062907313E+03  0.16762306450E+03  0.92835536828E+02 0.  0.
        -24    2    1    2    0    0  0.13555022697E+02 -0.48475364739E+02 -0.41947342058E+02  0.10338859544E+03  0.79975136979E+02 0.  0.
         11    1    4    4    0    0  0.30158526327E+02  0.10314734658E+02 -0.57741556962E+01  0.32392458001E+02  0.00000000000E+00 0. -1.
        -12    1    4    4    0    0 -0.16603503631E+02 -0.58790099397E+02 -0.36173186362E+02  0.70996137441E+02  0.00000000000E+00 0.  1.
        -11    1    3    3    0    0 -0.17351112134E+02  0.32955934574E+02  0.22891648629E+01  0.37314809282E+02  0.00000000000E+00 0.  1.
         11    1    3    3    0    0 -0.64373295154E+02 -0.92623851036E+01 -0.11291823800E+03  0.13030825522E+03  0.00000000000E+00 0. -1.
          2    1    1    2  501    0  0.68169384591E+02  0.24781815268E+02 -0.75934188666E+02  0.10501049648E+03  0.00000000000E+00 0. -1.
<scales pt_clust_5="13000.00000" pt_clust_6="13000.00000" pt_clust_7="13000.00000" pt_clust_8="13000.00000" pt_clust_9="72.53419"></scales>
<clustering>
<clus scale="   72.534">  1  9  2 -1</clus>
<clus scale="   79.975">  5  6 -1 -1</clus>
<clus scale="   92.836">  7  8 -1 -1</clus>
<clus scale="  100.289">  1  5  2 -1</clus>
<clus scale="   72.534">  1  5  2 -1</clus>
</clustering>
</event>
<event>
 9    1  0.2333340E-004  0.9518601E+02  0.7546771E-02  0.1299974E+00
         21   -1    0    0  501  502  0.00000000000E+00  0.00000000000E+00  0.23712269705E+03  0.23712269705E+03  0.00000000000E+00 0.  1.
          1   -1    0    0  502    0 -0.00000000000E+00 -0.00000000000E+00 -0.19498160774E+03  0.19498160774E+03  0.00000000000E+00 0. -1.
         23    2    1    2    0    0  0.20307553614E+02  0.67636590445E+01 -0.15994564181E+03  0.18609712722E+03  0.92689743823E+02 0.  0.
        -24    2    1    2    0    0 -0.32653309206E+02  0.20900410652E+02  0.19722291636E+03  0.21532534048E+03  0.77233786299E+02 0.  0.
         13    1    4    4    0    0 -0.18317039224E-01  0.24073769557E+02  0.11408644583E+02  0.26640268156E+02  0.00000000000E+00 0. -1.
        -14    1    4    4    0    0 -0.32634992166E+02 -0.31733589044E+01  0.18581427178E+03  0.18868507232E+03  0.00000000000E+00 0.  1.
        -13    1    3    3    0    0  0.32633361209E+02  0.32755305351E+02 -0.14781514757E+03  0.15487790076E+03  0.00000000000E+00 0. -1.
         13    1    3    3    0    0 -0.12325807596E+02 -0.25991646307E+02 -0.12130494240E+02  0.31219226466E+02  0.00000000000E+00 0.  1.
          2    1    1    2  501    0  0.12345755592E+02 -0.27664069697E+02  0.48638147456E+01  0.30681837090E+02  0.00000000000E+00 0. -1.
<scales pt_clust_5="13000.00000" pt_clust_6="13000.00000" pt_clust_7="13000.00000" pt_clust_8="13000.00000" pt_clust_9="30.29387"></scales>
<clustering>
<clus scale="   30.294">  1  9  2 -1</clus>
<clus scale="   77.234">  5  6 -1 -1</clus>
<clus scale="   80.213">  1  5  2 -1</clus>
<clus scale="   92.690">  7  8 -1 -1</clus>
<clus scale="   30.294">  1  5  2 -1</clus>
</clustering>
</event>
<event>
 9    1  0.1487426E-004  0.1125808E+03  0.7546771E-02  0.1258953E+00
         -2   -1    0    0    0  501 -0.00000000000E+00  0.00000000000E+00  0.48415950812E+03  0.48415950812E+03  0.00000000000E+00 0.  1.
         21   -1    0    0  501  502  0.00000000000E+00 -0.00000000000E+00 -0.59673733565E+02  0.59673733565E+02  0.00000000000E+00 0. -1.
         23    2    1    2    0    0 -0.64353006231E+02  0.21451628853E+02  0.38387258888E+03  0.39994127804E+03  0.89405702248E+02 0.  0.
        -24    2    1    2    0    0  0.74404361422E+02  0.87774395036E+00  0.45478069418E+02  0.11892603237E+03  0.80860169083E+02 0.  0.
         13    1    4    4    0    0  0.42893798643E+02 -0.21530370418E+02 -0.12168800836E+02  0.49512771344E+02  0.00000000000E+00 0. -1.
        -14    1    4    4    0    0  0.31510562779E+02  0.22408114368E+02  0.57646870254E+02  0.69413261026E+02  0.00000000000E+00 0.  1.
        -13    1    3    3    0    0 -0.57310574924E+02  0.41883076953E+02  0.36307304787E+03  0.36994693163E+03  0.00000000000E+00 0.  1.
         13    1    3    3    0    0 -0.70424313070E+01 -0.20431448100E+02  0.20799541007E+02  0.29994346405E+02  0.00000000000E+00 0. -1.
         -1    1    1    2    0  502 -0.10051355191E+02 -0.22329372803E+02 -0.48648837370E+01  0.24965931281E+02  0.00000000000E+00 0.  1.
<scales pt_clust_5="13000.00000" pt_clust_6="13000.00000" pt_clust_7="13000.00000" pt_clust_8="13000.00000" pt_clust_9="24.48736"></scales>
<clustering>
<clus scale="   24.487">  2  9  1 -1</clus>
<clus scale="   80.860">  5  6 -1 -1</clus>
<clus scale="   89.406">  7  8 -1 -1</clus>
<clus scale="  105.922">  2  5  1 -1</clus>
<clus scale="   24.487">  2  5  1 -1</clus>
</clustering>
</event>
<event>
 9    1  0.1487426E-004  0.9587129E+02  0.7546771E-02  0.1298152E+00
         21   -1    0    0  501  502  0.00000000000E+00  0.00000000000E+00  0.85045384182E+02  0.85045384182E+02  0.00000000000E+00 0.  1.
         -2   -1    0    0    0  501 -0.00000000000E+00 -0.00000000000E+00 -0.28131646991E+03  0.28131646991E+03  0.00000000000E+00 0.  1.
        -24    2    1    2    0    0  0.27247368760E+02  0.13029457460E+02 -0.13710468385E+03  0.16157517200E+03  0.79979097315E+02 0.  0.
         23    2    1    2    0    0  0.35454241462E+02  0.43559256189E+02 -0.21497149249E+02  0.11230561900E+03  0.94847312013E+02 0.  0.
         13    1    3    3    0    0  0.26133329818E+02  0.44577739854E+02 -0.10214784035E+03  0.11447404555E+03  0.00000000000E+00 0. -1.
        -14    1    3    3    0    0  0.11140389411E+01 -0.31548282394E+02 -0.34956843499E+02  0.47101126443E+02  0.00000000000E+00 0.  1.
        -11    1    4    4    0    0  0.99160959090E+01  0.52483107417E+02  0.24640825216E+02  0.58821558883E+02  0.00000000000E+00 0.  1.
         11    1    4    4    0    0  0.25538145553E+02 -0.89238512279E+01 -0.46137974464E+02  0.53484060118E+02  0.00000000000E+00 0. -1.
         -1    1    1    2    0  502 -0.62701610221E+02 -0.56588713649E+02 -0.37669252632E+02  0.92481063092E+02  0.00000000000E+00 0.  1.
<scales pt_clust_5="13000.00000" pt_clust_6="13000.00000" pt_clust_7="13000.00000" pt_clust_8="13000.00000" pt_clust_9="84.46167"></scales>
<clustering>
<clus scale="   79.979">  5  6 -1 -1</clus>
<clus scale="   84.462">  1  9  2 -1</clus>
<clus scale="   81.191">  2  5  1 -1</clus>
<clus scale="   94.847">  7  8 -1 -1</clus>
<clus scale="   84.462">  1  5  2 -1</clus>
</clustering>
</event>
<event>
 9    1  0.1487426E-004  0.1611993E+03  0.7546771E-02  0.1188548E+00
         21   -1    0    0  501  502  0.00000000000E+00  0.00000000000E+00  0.99525032441E+02  0.99525032441E+02  0.00000000000E+00 0. -1.
          3   -1    0    0  502    0 -0.00000000000E+00 -0.00000000000E+00 -0.76279493254E+03  0.76279493254E+03  0.00000000000E+00 0. -1.
         23    2    1    2    0    0  0.12604193450E+03 -0.56784209776E+02 -0.42312070494E+03  0.45426064426E+03  0.90612285281E+02 0.  0.
        -24    2    1    2    0    0 -0.91887953990E+02  0.56574240607E+02  0.27027115061E+02  0.13870876992E+03  0.82859019524E+02 0.  0.
         11    1    4    4    0    0 -0.34123596311E+02  0.68877364165E+02  0.18207634548E+02  0.78993854669E+02  0.00000000000E+00 0. -1.
        -12    1    4    4    0    0 -0.57764357679E+02 -0.12303123559E+02  0.88194805136E+01  0.59714915255E+02  0.00000000000E+00 0.  1.
        -13    1    3    3    0    0  0.11500321320E+03 -0.80785532062E+01 -0.28931612009E+03  0.31143991300E+03  0.00000000000E+00 0.  1.
         13    1    3    3    0    0  0.11038721297E+02 -0.48705656570E+02 -0.13380458486E+03  0.14282073126E+03  0.00000000000E+00 0. -1.
          4    1    1    2  501    0 -0.34153980507E+02  0.20996916925E+00 -0.26717631022E+03  0.26935055080E+03  0.00000000000E+00 0. -1.
<scales pt_clust_5="13000.00000" pt_clust_6="13000.00000" pt_clust_7="13000.00000" pt_clust_8="13000.00000" pt_clust_9="34.15464"></scales>
<clustering>
<clus scale="   34.155">  1  9  2 -1</clus>
<clus scale="   82.859">  5  6 -1 -1</clus>
<clus scale="   90.612">  7  8 -1 -1</clus>
<clus scale="  156.972">  1  5  2 -1</clus>
<clus scale="   34.155">  1  5  2 -1</clus>
</clustering>
</event>
<event>
 9    1  0.1487426E-004  0.1372969E+03  0.7546771E-02  0.1219483E+00
          1   -1    0    0  502    0 -0.00000000000E+00  0.00000000000E+00  0.23743660190E+03  0.23743660190E+03  0.00000000000E+00 0. -1.
         21   -1    0    0  501  502  0.00000000000E+00 -0.00000000000E+00 -0.15809295517E+03  0.15809295517E+03  0.00000000000E+00 0. -1.
        -24    2    1    2    0    0 -0.82894971373E+01 -0.71566781189E+02  0.76458140388E+01  0.10864365865E+03  0.80959657608E+02 0.  0.
         23    2    1    2    0    0 -0.21640401036E+02  0.15345494516E+03  0.10566223474E+02  0.18040329961E+03  0.91744091264E+02 0.  0.
         11    1    3    3    0    0 -0.29245691640E+02 -0.74594960225E+02 -0.10435752682E+02  0.80799897924E+02  0.00000000000E+00 0. -1.
        -12    1    3    3    0    0  0.20956194502E+02  0.30281790362E+01  0.18081566721E+02  0.27843760726E+02  0.00000000000E+00 0.  1.
        -13    1    4    4    0    0 -0.40117822501E+02  0.12452902493E+03 -0.22489311058E+02  0.13275046834E+03  0.00000000000E+00 0. -1.
         13    1    4    4    0    0  0.18477421465E+02  0.28925920223E+02  0.33055534531E+02  0.47652831268E+02  0.00000000000E+00 0.  1.
          2    1    1    2  501    0  0.29929898174E+02 -0.81888163968E+02  0.61131609220E+02  0.10648259881E+03  0.00000000000E+00 0. -1.
<scales pt_clust_5="13000.00000" pt_clust_6="13000.00000" pt_clust_7="13000.00000" pt_clust_8="13000.00000" pt_clust_9="87.18645"></scales>
<clustering>
<clus scale="   80.960">  5  6 -1 -1</clus>
<clus scale="   87.186">  2  9  1 -1</clus>
<clus scale="   91.744">  7  8 -1 -1</clus>
<clus scale="  130.338">  1  5  2 -1</clus>
<clus scale="   87.186">  2  5  1 -1</clus>
</clustering>
</event>
<event>
 9    1  0.1487426E-004  0.2366110E+03  0.7546771E-02  0.1156766E+00
         21   -1    0    0  501  502  0.00000000000E+00  0.00000000000E+00  0.42886251956E+03  0.42886251956E+03  0.00000000000E+00 0.  1.
         -2   -1    0    0    0  501 -0.00000000000E+00 -0.00000000000E+00 -0.21065917125E+03  0.21065917125E+03  0.00000000000E+00 0.  1.
        -24    2    1    2    0    0 -0.45971689014E+02 -0.43962252072E+02  0.27709386962E+02  0.10604318932E+03  0.80195212308E+02 0.  0.
         23    2    1    2    0    0 -0.18526704141E+03  0.36794994392E+01 -0.34764546828E+02  0.20815489935E+03  0.88218326094E+02 0.  0.
         11    1    3    3    0    0 -0.23785282856E+02  0.80209603496E+01  0.40914970713E+02  0.48001149089E+02  0.00000000000E+00 0. -1.
        -12    1    3    3    0    0 -0.22186406158E+02 -0.51983212422E+02 -0.13205583750E+02  0.58042040230E+02  0.00000000000E+00 0.  1.
        -11    1    4    4    0    0 -0.74579016263E+02 -0.51118758459E+01  0.28918176532E+02  0.80152491386E+02  0.00000000000E+00 0.  1.
         11    1    4    4    0    0 -0.11068802514E+03  0.87913752852E+01 -0.63682723360E+02  0.12800240796E+03  0.00000000000E+00 0. -1.
         -1    1    1    2    0  502  0.23123873042E+03  0.40282752633E+02  0.22525850817E+03  0.32532360214E+03  0.00000000000E+00 0.  1.
<scales pt_clust_5="13000.00000" pt_clust_6="13000.00000" pt_clust_7="13000.00000" pt_clust_8="13000.00000" pt_clust_9="219.55021"></scales>
<clustering>
<clus scale="   80.195">  5  6 -1 -1</clus>
<clus scale="   88.218">  7  8 -1 -1</clus>
<clus scale="  102.359">  2  5  1 -1</clus>
<clus scale="  219.550">  1  9  2 -1</clus>
<clus scale="  219.550">  1  5  2 -1</clus>
</clustering>
</event>
<event>
 9    1  0.1487426E-004  0.1038841E+03  0.7546771E-02  0.1275581E+00
         21   -1    0    0  501  502  0.00000000000E+00  0.00000000000E+00  0.42819100854E+03  0.42819100854E+03  0.00000000000E+00 0. -1.
         -4   -1    0    0    0  501 -0.00000000000E+00 -0.00000000000E+00 -0.89299106912E+02  0.89299106912E+02  0.00000000000E+00 0.  1.
         23    2    1    2    0    0  0.33590112250E+02  0.20243032432E+02 -0.33659915215E+02  0.10397517541E+03  0.90220680595E+02 0.  0.
        -24    2    1    2    0    0 -0.17626485781E+02 -0.91989596364E+00  0.37555002333E+03  0.38827191695E+03  0.96983102948E+02 0.  0.
         11    1    4    4    0    0 -0.52988304136E+02 -0.22036537718E+02  0.21960493379E+03  0.22697950638E+03  0.00000000000E+00 0. -1.
        -12    1    4    4    0    0  0.35361818355E+02  0.21116641755E+02  0.15594508953E+03  0.16129241057E+03  0.00000000000E+00 0.  1.
        -11    1    3    3    0    0  0.23516258500E+02  0.55789471259E+02 -0.27590742290E+02  0.66533664992E+02  0.00000000000E+00 0.  1.
         11    1    3    3    0    0  0.10073853750E+02 -0.35546438827E+02 -0.60691729258E+01  0.37441510421E+02  0.00000000000E+00 0. -1.
         -3    1    1    2    0  502 -0.15963626469E+02 -0.19323136469E+02 -0.29982064801E+01  0.25243023098E+02  0.00000000000E+00 0.  1.
<scales pt_clust_5="13000.00000" pt_clust_6="13000.00000" pt_clust_7="13000.00000" pt_clust_8="13000.00000" pt_clust_9="25.06435"></scales>
<clustering>
<clus scale="   25.064">  1  9  2 -1</clus>
<clus scale="   90.221">  7  8 -1 -1</clus>
<clus scale="   96.983">  5  6 -1 -1</clus>
<clus scale="   97.601">  2  7  1 -1</clus>
<clus scale="   25.064">  1  5  2 -1</clus>
</clustering>
</event>
<event>
 9    1  0.1487426E-004  0.1075242E+03  0.7546771E-02  0.1269185E+00
         21   -1    0    0  501  502  0.00000000000E+00  0.00000000000E+00  0.51076639762E+03  0.51076639762E+03  0.00000000000E+00 0.  1.
          3   -1    0    0  502    0 -0.00000000000E+00 -0.00000000000E+00 -0.56209711063E+02  0.56209711063E+02  0.00000000000E+00 0. -1.
         23    2    1    2    0    0  0.32291422004E+02  0.44485731374E+02  0.65317810268E+02  0.12472912253E+03  0.90935259601E+02 0.  0.
        -24    2    1    2    0    0 -0.52868586340E+01 -0.75929315511E+02  0.38474918426E+03  0.40055642654E+03  0.81365251927E+02 0.  0.
         13    1    4    4    0    0 -0.30307767735E+02 -0.45165210929E+01  0.63377824278E+02  0.70396792243E+02  0.00000000000E+00 0. -1.
        -14    1    4    4    0    0  0.25020909101E+02 -0.71412794418E+02  0.32137135998E+03  0.33015963429E+03  0.00000000000E+00 0.  1.
        -13    1    3    3    0    0 -0.26368069220E+02  0.37505955458E+02  0.38434997474E+02  0.59826589406E+02  0.00000000000E+00 0. -1.
         13    1    3    3    0    0  0.58659491224E+02  0.69797759164E+01  0.26882812794E+02  0.64902533126E+02  0.00000000000E+00 0.  1.
          4    1    1    2  501    0 -0.27004563370E+02  0.31443584137E+02  0.44896920232E+01  0.41690559611E+02  0.00000000000E+00 0. -1.
<scales pt_clust_5="13000.00000" pt_clust_6="13000.00000" pt_clust_7="13000.00000" pt_clust_8="13000.00000" pt_clust_9="41.44813"></scales>
<clustering>
<clus scale="   41.448">  1  9  2 -1</clus>
<clus scale="   81.365">  5  6 -1 -1</clus>
<clus scale="   90.935">  7  8 -1 -1</clus>
<clus scale="   99.562">  1  5  2 -1</clus>
<clus scale="   41.448">  1  5  2 -1</clus>
</clustering>
</event>
<event>
 9    1  0.1487426E-004  0.9085335E+02  0.7546771E-02  0.1305859E+00
          1   -1    0    0  502    0 -0.00000000000E+00  0.00000000000E+00  0.32756326695E+03  0.32756326695E+03  0.00000000000E+00 0. -1.
         21   -1    0    0  501  502  0.00000000000E+00 -0.00000000000E+00 -0.65105413555E+02  0.65105413555E+02  0.00000000000E+00 0. -1.
         23    2    1    2    0    0 -0.14491397728E+02  0.27699719981E+02  0.22509502167E+03  0.24391576067E+03  0.88599404225E+02 0.  0.
        -24    2    1    2    0    0  0.10211803656E+02  0.11926317968E+02  0.61306878819E+02  0.10225716519E+03  0.80321083454E+02 0.  0.
         11    1    4    4    0    0  0.26166992661E+02  0.25640393136E+02 -0.84073964976E+00  0.36644891980E+02  0.00000000000E+00 0. -1.
        -12    1    4    4    0    0 -0.15955189005E+02 -0.13714075168E+02  0.62147618468E+02  0.65612273206E+02  0.00000000000E+00 0.  1.
        -11    1    3    3    0    0 -0.40837177456E+02  0.28174295831E+02  0.20461163845E+03  0.21054070532E+03  0.00000000000E+00 0. -1.
         11    1    3    3    0    0  0.26345779727E+02 -0.47457585033E+00  0.20483383224E+02  0.33375055356E+02  0.00000000000E+00 0.  1.
          2    1    1    2  501    0  0.42795940728E+01 -0.39626037949E+02 -0.23944047093E+02  0.46495754647E+02  0.00000000000E+00 0. -1.
<scales pt_clust_5="13000.00000" pt_clust_6="13000.00000" pt_clust_7="13000.00000" pt_clust_8="13000.00000" pt_clust_9="39.85647"></scales>
<clustering>
<clus scale="   39.856">  2  9  1 -1</clus>
<clus scale="   80.321">  5  6 -1 -1</clus>
<clus scale="   82.801">  2  5  1 -1</clus>
<clus scale="   88.599">  7  8 -1 -1</clus>
<clus scale="   39.856">  2  5  1 -1</clus>
</clustering>
</event>
<event>
 9    1  0.1487426E-004  0.1369298E+03  0.7546771E-02  0.1221094E+00
          1   -1    0    0  502    0 -0.00000000000E+00  0.00000000000E+00  0.17015557856E+03  0.17015557856E+03  0.00000000000E+00 0. -1.
         21   -1    0    0  501  502  0.00000000000E+00 -0.00000000000E+00 -0.15269524143E+03  0.15269524143E+03  0.00000000000E+00 0.  1.
        -24    2    1    2    0    0 -0.10829356583E+03 -0.92600386050E+01  0.29596487029E+02  0.13539639896E+03  0.75119824894E+02 0.  0.
         23    2    1    2    0    0  0.88289103182E+02  0.28373173008E+02 -0.51212461552E+02  0.13957489968E+03  0.90875924832E+02 0.  0.
         13    1    3    3    0    0 -0.72701974610E+02  0.19568782650E+02  0.44221334675E+02  0.87315753487E+02  0.00000000000E+00 0. -1.
        -14    1    3    3    0    0 -0.35591591218E+02 -0.28828821255E+02 -0.14624847646E+02  0.48080645473E+02  0.00000000000E+00 0.  1.
        -11    1    4    4    0    0  0.23826898154E+02 -0.32808260919E+02 -0.10908402651E+02  0.41989240390E+02  0.00000000000E+00 0. -1.
         11    1    4    4    0    0  0.64462205027E+02  0.61181433927E+02 -0.40304058901E+02  0.97585659285E+02  0.00000000000E+00 0.  1.
          2    1    1    2  501    0  0.20004462646E+02 -0.19113134403E+02  0.39076311653E+02  0.47879521351E+02  0.00000000000E+00 0. -1.
<scales pt_clust_5="13000.00000" pt_clust_6="13000.00000" pt_clust_7="13000.00000" pt_clust_8="13000.00000" pt_clust_9="27.66751"></scales>
<clustering>
<clus scale="   27.668">  2  9  1 -1</clus>
<clus scale="   75.120">  5  6 -1 -1</clus>
<clus scale="   90.876">  7  8 -1 -1</clus>
<clus scale="  127.021">  1  5  2 -1</clus>
<clus scale="   27.668">  2  5  1 -1</clus>
</clustering>
</event>
<event>
 9    1  0.1487426E-004  0.1513628E+03  0.7546771E-02  0.1200627E+00
         21   -1    0    0  501  502  0.00000000000E+00  0.00000000000E+00  0.14115594380E+03  0.14115594380E+03  0.00000000000E+00 0. -1.
         -2   -1    0    0    0  501 -0.00000000000E+00 -0.00000000000E+00 -0.20701301931E+03  0.20701301931E+03  0.00000000000E+00 0.  1.
        -24    2    1    2    0    0 -0.42802897604E+02 -0.10460051231E+03 -0.43569602880E+02  0.14471473990E+03  0.79187691142E+02 0.  0.
         23    2    1    2    0    0  0.55808612271E+02  0.12566896804E+03  0.80840040662E+01  0.16426934045E+03  0.89508515573E+02 0.  0.
         11    1    3    3    0    0  0.32593482209E+01 -0.60048164724E+02  0.10281828660E+02  0.61009191424E+02  0.00000000000E+00 0. -1.
        -12    1    3    3    0    0 -0.46062245825E+02 -0.44552347591E+02 -0.53851431540E+02  0.83705548473E+02  0.00000000000E+00 0.  1.
        -13    1    4    4    0    0  0.76130259020E+02  0.11753683296E+03 -0.22674921619E+01  0.14005664912E+03  0.00000000000E+00 0.  1.
         13    1    4    4    0    0 -0.20321646750E+02  0.81321350731E+01  0.10351496228E+02  0.24212691334E+02  0.00000000000E+00 0. -1.
         -1    1    1    2    0  502 -0.13005714667E+02 -0.21068455722E+02 -0.30371476693E+02  0.39184882761E+02  0.00000000000E+00 0.  1.
<scales pt_clust_5="13000.00000" pt_clust_6="13000.00000" pt_clust_7="13000.00000" pt_clust_8="13000.00000" pt_clust_9="24.75942"></scales>
<clustering>
<clus scale="   24.759">  1  9  2 -1</clus>
<clus scale="   79.188">  5  6 -1 -1</clus>
<clus scale="   89.509">  7  8 -1 -1</clus>
<clus scale="  145.498">  2  5  1 -1</clus>
<clus scale="   24.759">  1  5  2 -1</clus>
</clustering>
</event>
<event>
 9    1  0.1487426E-004  0.8446688E+02  0.7546771E-02  0.1318649E+00
         -2   -1    0    0    0  501 -0.00000000000E+00  0.00000000000E+00  0.33009525881E+03  0.33009525881E+03  0.00000000000E+00 0.  1.
         21   -1    0    0  501  502  0.00000000000E+00 -0.00000000000E+00 -0.10064562860E+03  0.10064562860E+03  0.00000000000E+00 0. -1.
         23    2    1    2    0    0  0.62378314685E+01 -0.14266494363E+02  0.28624644467E+03  0.29835930758E+03  0.82697073296E+02 0.  0.
        -24    2    1    2    0    0  0.31774079611E+01  0.41487904005E+02 -0.48853041115E+02  0.10250256693E+03  0.79930060061E+02 0.  0.
         11    1    4    4    0    0 -0.28159445102E+00  0.41930381577E+02 -0.69713648218E+02  0.81352498072E+02  0.00000000000E+00 0. -1.
        -12    1    4    4    0    0  0.34590024121E+01 -0.44247757179E+00  0.20860607103E+02  0.21150068860E+02  0.00000000000E+00 0.  1.
        -13    1    3    3    0    0 -0.55298615984E+00  0.33832191450E+02  0.88878567716E+02  0.95101644420E+02  0.00000000000E+00 0. -1.
         13    1    3    3    0    0  0.67908176283E+01 -0.48098685813E+02  0.19736787695E+03  0.20325766316E+03  0.00000000000E+00 0.  1.
         -1    1    1    2    0  502 -0.94152394296E+01 -0.27221409643E+02 -0.79437733436E+01  0.29879012892E+02  0.00000000000E+00 0.  1.
<scales pt_clust_5="13000.00000" pt_clust_6="13000.00000" pt_clust_7="13000.00000" pt_clust_8="13000.00000" pt_clust_9="28.80368"></scales>
<clustering>
<clus scale="   28.804">  2  9  1 -1</clus>
<clus scale="   79.930">  5  6 -1 -1</clus>
<clus scale="   81.760">  2  5  1 -1</clus>
<clus scale="   82.697">  7  8 -1 -1</clus>
<clus scale="   28.804">  2  5  1 -1</clus>
</clustering>
</event>
<event>
 9    1  0.1487426E-004  0.1683190E+03  0.7546771E-02  0.1181184E+00
         21   -1    0    0  501  502  0.00000000000E+00  0.00000000000E+00  0.17249166602E+03  0.17249166602E+03  0.00000000000E+00 0.  1.
         -2   -1    0    0    0  501 -0.00000000000E+00 -0.00000000000E+00 -0.33083157345E+03  0.33083157345E+03  0.00000000000E+00 0.  1.
        -24    2    1    2    0    0  0.88775180419E+02 -0.12233154546E+03 -0.18856412608E+03  0.25464009542E+03  0.80244058216E+02 0.  0.
         23    2    1    2    0    0 -0.12079413590E+03  0.43624197334E+02  0.41265756004E+02  0.16299781447E+03  0.91493885282E+02 0.  0.
         13    1    3    3    0    0  0.91054331544E+02 -0.13132348277E+03 -0.18556726864E+03  0.24489173038E+03  0.00000000000E+00 0. -1.
        -14    1    3    3    0    0 -0.22791511248E+01  0.89919373076E+01 -0.29968574360E+01  0.97483650365E+01  0.00000000000E+00 0.  1.
        -11    1    4    4    0    0 -0.12220669690E+03  0.18257972908E+02  0.11850371510E+02  0.12413001913E+03  0.00000000000E+00 0.  1.
         11    1    4    4    0    0  0.14125610075E+01  0.25366224425E+02  0.29415384494E+02  0.38867795347E+02  0.00000000000E+00 0. -1.
         -1    1    1    2    0  502  0.32018955478E+02  0.78707348126E+02 -0.11041537361E+02  0.85685329586E+02  0.00000000000E+00 0.  1.
<scales pt_clust_5="13000.00000" pt_clust_6="13000.00000" pt_clust_7="13000.00000" pt_clust_8="13000.00000" pt_clust_9="84.97094"></scales>
<clustering>
<clus scale="   80.244">  5  6 -1 -1</clus>
<clus scale="   84.971">  1  9  2 -1</clus>
<clus scale="   91.494">  7  8 -1 -1</clus>
<clus scale="  162.479">  2  5  1 -1</clus>
<clus scale="   84.971">  1  5  2 -1</clus>
</clustering>
</event>
<event>
 9    1  0.1487426E-004  0.1007552E+03  0.7546771E-02  0.1284318E+00
         21   -1    0    0  501  502  0.00000000000E+00  0.00000000000E+00  0.28394357777E+03  0.28394357777E+03  0.00000000000E+00 0. -1.
          1   -1    0    0  502    0 -0.00000000000E+00 -0.00000000000E+00 -0.40221252015E+03  0.40221252015E+03  0.00000000000E+00 0. -1.
        -24    2    1    2    0    0  0.38387757477E+02  0.42256182376E+01 -0.32629892307E+03  0.33827834068E+03  0.80434897936E+02 0.  0.
         23    2    1    2    0    0 -0.66686175935E+02  0.91449735024E+01 -0.21866729005E+02  0.11586036493E+03  0.91732184767E+02 0.  0.
         11    1    3    3    0    0  0.45079431044E+02  0.34839718222E+02 -0.23269393808E+03  0.23956717198E+03  0.00000000000E+00 0. -1.
        -12    1    3    3    0    0 -0.66916735667E+01 -0.30614099984E+02 -0.93604984989E+02  0.98711168709E+02  0.00000000000E+00 0.  1.
        -11    1    4    4    0    0  0.70244231812E+01  0.30899018630E+02  0.91526830660E+01  0.32982775514E+02  0.00000000000E+00 0. -1.
         11    1    4    4    0    0 -0.73710599116E+02 -0.21754045127E+02 -0.31019412071E+02  0.82877589412E+02  0.00000000000E+00 0.  1.
          2    1    1    2  501    0  0.28298418458E+02 -0.13370591740E+02  0.22989670969E+03  0.23201739231E+03  0.00000000000E+00 0. -1.
<scales pt_clust_5="13000.00000" pt_clust_6="13000.00000" pt_clust_7="13000.00000" pt_clust_8="13000.00000" pt_clust_9="31.29813"></scales>
<clustering>
<clus scale="   31.298">  1  9  2 -1</clus>
<clus scale="   80.435">  5  6 -1 -1</clus>
<clus scale="   90.590">  2  5  1 -1</clus>
<clus scale="   91.732">  7  8 -1 -1</clus>
<clus scale="   31.298">  1  5  2 -1</clus>
</clustering>
</event>
<event>
 9    1  0.1487426E-004  0.1062687E+03  0.7546771E-02  0.1275062E+00
         21   -1    0    0  501  502  0.00000000000E+00  0.00000000000E+00  0.19083352773E+02  0.19083352773E+02  0.00000000000E+00 0. -1.
          1   -1    0    0  502    0 -0.00000000000E+00 -0.00000000000E+00 -0.90868037563E+03  0.90868037563E+03  0.00000000000E+00 0. -1.
         23    2    1    2    0    0 -0.61992335995E+02 -0.42745485261E+02 -0.46135572185E+03  0.47624595777E+03  0.91054291364E+02 0.  0.
        -24    2    1    2    0    0  0.10417358392E+02  0.34467107298E+02 -0.18124755101E+03  0.19906099732E+03  0.74014208526E+02 0.  0.
         13    1    4    4    0    0  0.25293144662E+01  0.54909307273E+02 -0.15717561423E+03  0.16651006926E+03  0.00000000000E+00 0. -1.
        -14    1    4    4    0    0  0.78880439262E+01 -0.20442199976E+02 -0.24071936780E+02  0.32550928054E+02  0.00000000000E+00 0.  1.
        -11    1    3    3    0    0  0.20087410029E+02  0.79120449351E+01 -0.92761142952E+02  0.95240401818E+02  0.00000000000E+00 0.  1.
         11    1    3    3    0    0 -0.82079746023E+02 -0.50657530196E+02 -0.36859457889E+03  0.38100555595E+03  0.00000000000E+00 0. -1.
          2    1    1    2  501    0  0.51574977602E+02  0.82783779636E+01 -0.24699375000E+03  0.25245677332E+03  0.00000000000E+00 0. -1.
<scales pt_clust_5="13000.00000" pt_clust_6="13000.00000" pt_clust_7="13000.00000" pt_clust_8="13000.00000" pt_clust_9="52.23517"></scales>
<clustering>
<clus scale="   52.235">  1  9  2 -1</clus>
<clus scale="   74.014">  5  6 -1 -1</clus>
<clus scale="   91.054">  7  8 -1 -1</clus>
<clus scale="   92.088">  1  5  2 -1</clus>
<clus scale="   52.235">  1  5  2 -1</clus>
</clustering>
</event>
<event>
 9    1  0.1487426E-004  0.1072297E+03  0.7546771E-02  0.1271995E+00
         21   -1    0    0  501  502  0.00000000000E+00  0.00000000000E+00  0.58115668552E+03  0.58115668552E+03  0.00000000000E+00 0.  1.
          1   -1    0    0  502    0 -0.00000000000E+00 -0.00000000000E+00 -0.48074802180E+02  0.48074802180E+02  0.00000000000E+00 0. -1.
        -24    2    1    2    0    0 -0.17432954269E+02 -0.53084837880E+02  0.22034576674E+02  0.96695521719E+02  0.75779901320E+02 0.  0.
         23    2    1    2    0    0 -0.86445798652E+01  0.72734365554E+02  0.37778587320E+03  0.39533264469E+03  0.90557811769E+02 0.  0.
         11    1    3    3    0    0 -0.11416212742E+02 -0.50341739637E+02 -0.19094434958E+02  0.55038333091E+02  0.00000000000E+00 0. -1.
        -12    1    3    3    0    0 -0.60167415275E+01 -0.27430982430E+01  0.41129011632E+02  0.41657188629E+02  0.00000000000E+00 0.  1.
        -13    1    4    4    0    0 -0.23991669480E+02 -0.14315870061E+02  0.99280191731E+02  0.10313632149E+03  0.00000000000E+00 0. -1.
         13    1    4    4    0    0  0.15347089615E+02  0.87050235615E+02  0.27850568147E+03  0.29219632320E+03  0.00000000000E+00 0.  1.
          2    1    1    2  501    0  0.26077534134E+02 -0.19649527674E+02  0.13326143346E+03  0.13720332129E+03  0.00000000000E+00 0. -1.
<scales pt_clust_5="13000.00000" pt_clust_6="13000.00000" pt_clust_7="13000.00000" pt_clust_8="13000.00000" pt_clust_9="32.65183"></scales>
<clustering>
<clus scale="   32.652">  1  9  2 -1</clus>
<clus scale="   75.780">  5  6 -1 -1</clus>
<clus scale="   90.558">  7  8 -1 -1</clus>
<clus scale="   95.079">  2  5  1 -1</clus>
<clus scale="   32.652">  1  5  2 -1</clus>
</clustering>
</event>
<event>
 9    1  0.1487426E-004  0.2859121E+03  0.7546771E-02  0.1092894E+00
         -2   -1    0    0    0  501 -0.00000000000E+00  0.00000000000E+00  0.11414505151E+04  0.11414505151E+04  0.00000000000E+00 0.  1.
         21   -1    0    0  501  502  0.00000000000E+00 -0.00000000000E+00 -0.51738926352E+03  0.51738926352E+03  0.00000000000E+00 0. -1.
        -24    2    1    2    0    0  0.95285429888E+02 -0.25554933731E+03  0.10514456813E+04  0.10891406479E+04  0.79401217238E+02 0.  0.
         23    2    1    2    0    0 -0.67352176394E+02  0.24806288115E+03 -0.19315022810E+03  0.33368647246E+03  0.89264453267E+02 0.  0.
         13    1    3    3    0    0  0.85784359652E+02 -0.12882869337E+03  0.50918086367E+03  0.53218506229E+03  0.00000000000E+00 0. -1.
        -14    1    3    3    0    0  0.95010702361E+01 -0.12672064393E+03  0.54226481761E+03  0.55695558562E+03  0.00000000000E+00 0.  1.
        -13    1    4    4    0    0 -0.46801821943E+02  0.24053699779E+03 -0.15575672275E+03  0.29035945744E+03  0.00000000000E+00 0. -1.
         13    1    4    4    0    0 -0.20550354450E+02  0.75258833687E+01 -0.37393505354E+02  0.43327015027E+02  0.00000000000E+00 0.  1.
         -1    1    1    2    0  502 -0.27933253495E+02  0.74864561527E+01 -0.23423420157E+03  0.23601265827E+03  0.00000000000E+00 0.  1.
<scales pt_clust_5="13000.00000" pt_clust_6="13000.00000" pt_clust_7="13000.00000" pt_clust_8="13000.00000" pt_clust_9="28.91909"></scales>
<clustering>
<clus scale="   28.919">  2  9  1 -1</clus>
<clus scale="   79.401">  5  6 -1 -1</clus>
<clus scale="   89.264">  7  8 -1 -1</clus>
<clus scale="  282.988">  1  5  2 -1</clus>
<clus scale="   28.919">  2  5  1 -1</clus>
</clustering>
</event>
<event>
 9    1  0.1487426E-004  0.2328166E+03  0.7546771E-02  0.1156941E+00
          1   -1    0    0  502    0 -0.00000000000E+00  0.00000000000E+00  0.65351895583E+03  0.65351895583E+03  0.00000000000E+00 0. -1.
         21   -1    0    0  501  502  0.00000000000E+00 -0.00000000000E+00 -0.12482178875E+03  0.12482178875E+03  0.00000000000E+00 0.  1.
         23    2    1    2    0    0 -0.54435941405E+02  0.14158982721E+01  0.15979243012E+03  0.19231188797E+03  0.92113870002E+02 0.  0.
        -24    2    1    2    0    0  0.23420989314E+03  0.67437515389E+02  0.16219518665E+03  0.30356062037E+03  0.80247611423E+02 0.  0.
         11    1    4    4    0    0  0.10848820751E+03  0.62931491520E+01  0.10918019851E+03  0.15404418406E+03  0.00000000000E+00 0. -1.
        -12    1    4    4    0    0  0.12572168563E+03  0.61144366237E+02  0.53014988143E+02  0.14951643631E+03  0.00000000000E+00 0.  1.
        -13    1    3    3    0    0 -0.66944618390E+02  0.31227075681E+02  0.99815306690E+02  0.12417651806E+03  0.00000000000E+00 0. -1.
         13    1    3    3    0    0  0.12508676985E+02 -0.29811177409E+02  0.59977123434E+02  0.68135369918E+02  0.00000000000E+00 0.  1.
          2    1    1    2  501    0 -0.17977395174E+03 -0.68853413661E+02  0.20670955030E+03  0.28246823623E+03  0.00000000000E+00 0. -1.
<scales pt_clust_5="13000.00000" pt_clust_6="13000.00000" pt_clust_7="13000.00000" pt_clust_8="13000.00000" pt_clust_9="218.54967"></scales>
<clustering>
<clus scale="   80.248">  5  6 -1 -1</clus>
<clus scale="   92.114">  7  8 -1 -1</clus>
<clus scale="  107.006">  1  7  2 -1</clus>
<clus scale="  218.550">  2  9  1 -1</clus>
<clus scale="  218.550">  2  5  1 -1</clus>
</clustering>
</event>
<event>
 9    1  0.1487426E-004  0.2623881E+03  0.7546771E-02  0.1153397E+00
          3   -1    0    0  502    0 -0.00000000000E+00  0.00000000000E+00  0.71163731453E+02  0.71163731453E+02  0.00000000000E+00 0. -1.
         21   -1    0    0  501  502  0.00000000000E+00 -0.00000000000E+00 -0.18143401096E+04  0.18143401096E+04  0.00000000000E+00 0. -1.
        -24    2    1    2    0    0  0.19862972131E+02  0.19082677946E+01 -0.15764967203E+03  0.17734887247E+03  0.78746582966E+02 0.  0.
         23    2    1    2    0    0 -0.25741575700E+03 -0.50698264151E+02 -0.33830470864E+03  0.43757458925E+03  0.90489001161E+02 0.  0.
         11    1    3    3    0    0 -0.26354348101E+02  0.18266419754E+02 -0.67537181205E+02  0.74762855748E+02  0.00000000000E+00 0. -1.
        -12    1    3    3    0    0  0.46217320232E+02 -0.16358151960E+02 -0.90112490821E+02  0.10258601672E+03  0.00000000000E+00 0.  1.
        -13    1    4    4    0    0 -0.23158270058E+03 -0.13472328548E+02 -0.27606688767E+03  0.36058976319E+03  0.00000000000E+00 0. -1.
         13    1    4    4    0    0 -0.25833056415E+02 -0.37225935604E+02 -0.62237820971E+02  0.76984826067E+02  0.00000000000E+00 0.  1.
          4    1    1    2  501    0  0.23755278487E+03  0.48789996357E+02 -0.12472219974E+04  0.12705803793E+04  0.00000000000E+00 0. -1.
<scales pt_clust_5="13000.00000" pt_clust_6="13000.00000" pt_clust_7="13000.00000" pt_clust_8="13000.00000" pt_clust_9="246.29104"></scales>
<clustering>
<clus scale="   78.747">  5  6 -1 -1</clus>
<clus scale="   81.235">  1  5  2 -1</clus>
<clus scale="   90.489">  7  8 -1 -1</clus>
<clus scale="  246.291">  2  9  1 -1</clus>
<clus scale="  246.291">  2  5  1 -1</clus>
</clustering>
</event>
<event>
 9    1  0.1487426E-004  0.1001281E+03  0.7546771E-02  0.1285376E+00
         21   -1    0    0  501  502  0.00000000000E+00  0.00000000000E+00  0.32592992780E+02  0.32592992780E+02  0.00000000000E+00 0.  1.
          1   -1    0    0  502    0 -0.00000000000E+00 -0.00000000000E+00 -0.72914211245E+03  0.72914211245E+03  0.00000000000E+00 0. -1.
        -24    2    1    2    0    0  0.42582050245E+02 -0.16847919229E+00 -0.53715448960E+03  0.54461786459E+03  0.79122773828E+02 0.  0.
         23    2    1    2    0    0 -0.47713566490E+02  0.28696889960E+02 -0.15517037418E+03  0.18782480104E+03  0.90001194125E+02 0.  0.
         13    1    3    3    0    0  0.37646870319E+02  0.36746358349E+02 -0.31651757832E+03  0.32085971869E+03  0.00000000000E+00 0. -1.
        -14    1    3    3    0    0  0.49351799260E+01 -0.36914837541E+02 -0.22063691129E+03  0.22375814590E+03  0.00000000000E+00 0.  1.
        -13    1    4    4    0    0 -0.76743931822E+00  0.36047288803E+02 -0.12822679060E+03  0.13319949633E+03  0.00000000000E+00 0. -1.
         13    1    4    4    0    0 -0.46946127171E+02 -0.73503988426E+01 -0.26943583574E+02  0.54625304716E+02  0.00000000000E+00 0.  1.
          2    1    1    2  501    0  0.51315162446E+01 -0.28528410768E+02 -0.42242558889E+01  0.29292439600E+02  0.00000000000E+00 0. -1.
<scales pt_clust_5="13000.00000" pt_clust_6="13000.00000" pt_clust_7="13000.00000" pt_clust_8="13000.00000" pt_clust_9="28.98625"></scales>
<clustering>
<clus scale="   28.986">  1  9  2 -1</clus>
<clus scale="   79.123">  5  6 -1 -1</clus>
<clus scale="   90.001">  7  8 -1 -1</clus>
<clus scale="   90.476">  2  5  1 -1</clus>
<clus scale="   28.986">  1  5  2 -1</clus>
</clustering>
</event>
<event>
 9    1  0.1487426E-004  0.1147393E+03  0.7546771E-02  0.1255975E+00
         21   -1    0    0  501  502  0.00000000000E+00  0.00000000000E+00  0.19685234570E+03  0.19685234570E+03  0.00000000000E+00 0. -1.
          3   -1    0    0  502    0 -0.00000000000E+00 -0.00000000000E+00 -0.26167985057E+03  0.26167985057E+03  0.00000000000E+00 0. -1.
        -24    2    1    2    0    0  0.58272767446E+01  0.81202770483E+02 -0.16604591197E+03  0.20170258823E+03  0.80528517479E+02 0.  0.
         23    2    1    2    0    0  0.54862299308E+02 -0.33996072635E+02 -0.19468743436E+02  0.11373144150E+03  0.91598056606E+02 0.  0.
         13    1    3    3    0    0  0.25601759465E+02  0.35222695534E+02 -0.21156635434E+02  0.48411688581E+02  0.00000000000E+00 0. -1.
        -14    1    3    3    0    0 -0.19774482721E+02  0.45980074949E+02 -0.14488927654E+03  0.15329089965E+03  0.00000000000E+00 0.  1.
        -11    1    4    4    0    0 -0.13130076340E+02 -0.17284639478E+02  0.23173921054E+02  0.31751980782E+02  0.00000000000E+00 0.  1.
         11    1    4    4    0    0  0.67992375647E+02 -0.16711433157E+02 -0.42642664490E+02  0.81979460715E+02  0.00000000000E+00 0. -1.
          4    1    1    2  501    0 -0.60689576052E+02 -0.47206697848E+02  0.12068715054E+03  0.14309816654E+03  0.00000000000E+00 0. -1.
<scales pt_clust_5="13000.00000" pt_clust_6="13000.00000" pt_clust_7="13000.00000" pt_clust_8="13000.00000" pt_clust_9="76.88756"></scales>
<clustering>
<clus scale="   76.888">  1  9  2 -1</clus>
<clus scale="   80.529">  5  6 -1 -1</clus>
<clus scale="   91.598">  7  8 -1 -1</clus>
<clus scale="  106.112">  2  5  1 -1</clus>
<clus scale="   76.888">  1  5  2 -1</clus>
</clustering>
</event>
<event>
 9    1  0.1487426E-004  0.1685442E+03  0.7546771E-02  0.1181029E+00
          1   -1    0    0  502    0 -0.00000000000E+00  0.00000000000E+00  0.37043625758E+03  0.37043625758E+03  0.00000000000E+00 0. -1.
         21   -1    0    0  501  502  0.00000000000E+00 -0.00000000000E+00 -0.10752339497E+03  0.10752339497E+03  0.00000000000E+00 0. -1.
        -24    2    1    2    0    0 -0.10224434306E+03  0.87480152281E+02  0.16954828013E+03  0.23088464899E+03  0.80339399509E+02 0.  0.
         23    2    1    2    0    0  0.11723922244E+03 -0.10463230871E+03  0.36453572128E+02  0.18577324195E+03  0.92140540486E+02 0.  0.
         11    1    3    3    0    0 -0.81317320919E+02  0.41112601562E+02  0.15172065791E+03  0.17697997267E+03  0.00000000000E+00 0. -1.
        -12    1    3    3    0    0 -0.20927022137E+02  0.46367550719E+02  0.17827622219E+02  0.53904676320E+02  0.00000000000E+00 0.  1.
        -13    1    4    4    0    0  0.44514197831E+02  0.75820437844E+01 -0.58237571726E+01  0.45529302038E+02  0.00000000000E+00 0. -1.
         13    1    4    4    0    0  0.72725024606E+02 -0.11221435250E+03  0.42277329301E+02  0.14024393992E+03  0.00000000000E+00 0.  1.
          2    1    1    2  501    0 -0.14994879381E+02  0.17152156431E+02  0.56911010348E+02  0.61301761612E+02  0.00000000000E+00 0. -1.
<scales pt_clust_5="13000.00000" pt_clust_6="13000.00000" pt_clust_7="13000.00000" pt_clust_8="13000.00000" pt_clust_9="22.78252"></scales>
<clustering>
<clus scale="   22.783">  2  9  1 -1</clus>
<clus scale="   80.339">  5  6 -1 -1</clus>
<clus scale="   92.141">  7  8 -1 -1</clus>
<clus scale="  162.394">  1  5  2 -1</clus>
<clus scale="   22.783">  2  5  1 -1</clus>
</clustering>
</event>
<event>
 9    1  0.1487426E-004  0.9998201E+02  0.7546771E-02  0.1284027E+00
         21   -1    0    0  501  502  0.00000000000E+00  0.00000000000E+00  0.14957048957E+03  0.14957048957E+03  0.00000000000E+00 0.  1.
         -2   -1    0    0    0  501 -0.00000000000E+00 -0.00000000000E+00 -0.31866667994E+03  0.31866667994E+03  0.00000000000E+00 0.  1.
         23    2    1    2    0    0 -0.17717420409E+02 -0.28975983615E+02 -0.21581815442E+03  0.23672867536E+03  0.91156323676E+02 0.  0.
        -24    2    1    2    0    0  0.12949704076E+02  0.63350948617E+02 -0.58398750708E+02  0.12080739205E+03  0.83683775982E+02 0.  0.
         13    1    4    4    0    0  0.98234966666E+01 -0.18876262663E+02 -0.27180290192E+01  0.21452320635E+02  0.00000000000E+00 0. -1.
        -14    1    4    4    0    0  0.31262074089E+01  0.82227211280E+02 -0.55680721689E+02  0.99355071413E+02  0.00000000000E+00 0.  1.
        -11    1    3    3    0    0 -0.15703844289E+02  0.24823964217E+02 -0.25357855818E+02  0.38805422000E+02  0.00000000000E+00 0.  1.
         11    1    3    3    0    0 -0.20135761203E+01 -0.53799947832E+02 -0.19046029860E+03  0.19792325336E+03  0.00000000000E+00 0. -1.
         -1    1    1    2    0  502  0.47677163338E+01 -0.34374965003E+02  0.10512071475E+03  0.11070110211E+03  0.00000000000E+00 0.  1.
<scales pt_clust_5="13000.00000" pt_clust_6="13000.00000" pt_clust_7="13000.00000" pt_clust_8="13000.00000" pt_clust_9="34.70402"></scales>
<clustering>
<clus scale="   34.704">  1  9  2 -1</clus>
<clus scale="   83.684">  5  6 -1 -1</clus>
<clus scale="   91.156">  7  8 -1 -1</clus>
<clus scale="   93.220">  1  5  2 -1</clus>
<clus scale="   34.704">  1  5  2 -1</clus>
</clustering>
</event>
<event>
 9    1  0.1487426E-004  0.1319435E+03  0.7546771E-02  0.1229288E+00
         21   -1    0    0  501  502  0.00000000000E+00  0.00000000000E+00  0.42185615035E+03  0.42185615035E+03  0.00000000000E+00 0.  1.
         -4   -1    0    0    0  501 -0.00000000000E+00 -0.00000000000E+00 -0.77632547757E+02  0.77632547757E+02  0.00000000000E+00 0.  1.
         23    2    1    2    0    0 -0.45857972541E+02 -0.12808507237E+02  0.13210044269E+03  0.17141229640E+03  0.98308885126E+02 0.  0.
        -24    2    1    2    0    0  0.95682056722E+02  0.91142286287E+02  0.11040322159E+03  0.19036087551E+03  0.81156757328E+02 0.  0.
         11    1    4    4    0    0  0.63524545180E+01  0.59156891327E+02  0.51426244048E+02  0.78641910243E+02  0.00000000000E+00 0. -1.
        -12    1    4    4    0    0  0.89329602204E+02  0.31985394961E+02  0.58976977543E+02  0.11171896527E+03  0.00000000000E+00 0.  1.
        -11    1    3    3    0    0 -0.33417486309E+02  0.35199583702E+02  0.27830074158E+02  0.55948656031E+02  0.00000000000E+00 0. -1.
         11    1    3    3    0    0 -0.12440486232E+02 -0.48008090939E+02  0.10427036853E+03  0.11546364037E+03  0.00000000000E+00 0.  1.
         -3    1    1    2    0  502 -0.49824084181E+02 -0.78333779050E+02  0.10171993831E+03  0.13771552620E+03  0.00000000000E+00 0.  1.
<scales pt_clust_5="13000.00000" pt_clust_6="13000.00000" pt_clust_7="13000.00000" pt_clust_8="13000.00000" pt_clust_9="92.83652"></scales>
<clustering>
<clus scale="   81.157">  5  6 -1 -1</clus>
<clus scale="   92.837">  1  9  2 -1</clus>
<clus scale="   98.309">  7  8 -1 -1</clus>
<clus scale="  119.712">  1  5  2 -1</clus>
<clus scale="   92.837">  1  5  2 -1</clus>
</clustering>
</event>
<event>
 9    1  0.1487426E-004  0.1251056E+03  0.7546771E-02  0.1255505E+00
          3   -1    0    0  502    0 -0.00000000000E+00  0.00000000000E+00  0.26073281746E+03  0.26073281746E+03  0.00000000000E+00 0. -1.
         21   -1    0    0  501  502  0.00000000000E+00 -0.00000000000E+00 -0.20549375547E+03  0.20549375547E+03  0.00000000000E+00 0. -1.
         23    2    1    2    0    0 -0.32739695138E+02 -0.14642366671E+02  0.21427300393E+03  0.24798642093E+03  0.11957448814E+03 0.  0.
        -24    2    1    2    0    0  0.14757197141E+02  0.62699323601E+02 -0.10174538108E+03  0.14133228147E+03  0.73984533299E+02 0.  0.
         13    1    4    4    0    0  0.36566566555E+02  0.66425264389E+02 -0.75466507767E+02  0.10697954633E+03  0.00000000000E+00 0. -1.
        -14    1    4    4    0    0 -0.21809369414E+02 -0.37259407885E+01 -0.26278873317E+02  0.34352735143E+02  0.00000000000E+00 0.  1.
        -11    1    3    3    0    0 -0.39235845584E+02  0.42302352254E+02  0.59220755819E+02  0.82680339287E+02  0.00000000000E+00 0. -1.
         11    1    3    3    0    0  0.64961504457E+01 -0.56944718925E+02  0.15505224811E+03  0.16530608165E+03  0.00000000000E+00 0.  1.
          4    1    1    2  501    0  0.17982497997E+02 -0.48056956930E+02 -0.57288560851E+02  0.76907870520E+02  0.00000000000E+00 0. -1.
<scales pt_clust_5="13000.00000" pt_clust_6="13000.00000" pt_clust_7="13000.00000" pt_clust_8="13000.00000" pt_clust_9="51.31122"></scales>
<clustering>
<clus scale="   51.311">  2  9  1 -1</clus>
<clus scale="   73.985">  5  6 -1 -1</clus>
<clus scale="   82.626">  2  5  1 -1</clus>
<clus scale="  119.574">  7  8 -1 -1</clus>
<clus scale="   51.311">  2  5  1 -1</clus>
</clustering>
</event>
<event>
 9    1  0.1487426E-004  0.1087091E+03  0.7546771E-02  0.1268638E+00
         -2   -1    0    0    0  501 -0.00000000000E+00  0.00000000000E+00  0.23667795609E+03  0.23667795609E+03  0.00000000000E+00 0.  1.
         21   -1    0    0  501  502  0.00000000000E+00 -0.00000000000E+00 -0.97684036157E+02  0.97684036157E+02  0.00000000000E+00 0. -1.
         23    2    1    2    0    0 -0.25754739170E+02 -0.49416090005E+02  0.15482832148E+03  0.18812406887E+03  0.91178942828E+02 0.  0.
        -24    2    1    2    0    0  0.60983926048E+02  0.48059654964E+02 -0.17436110111E+02  0.11094626722E+03  0.77306446056E+02 0.  0.
         13    1    4    4    0    0  0.37294917992E+02  0.17011483902E+02 -0.46705050915E+02  0.62142282493E+02  0.00000000000E+00 0. -1.
        -14    1    4    4    0    0  0.23689008056E+02  0.31048171062E+02  0.29268940804E+02  0.48803984722E+02  0.00000000000E+00 0.  1.
        -11    1    3    3    0    0  0.11808873733E+02 -0.60454519908E+02  0.62093426589E+02  0.87463089939E+02  0.00000000000E+00 0. -1.
         11    1    3    3    0    0 -0.37563612903E+02  0.11038429903E+02  0.92734894893E+02  0.10066097893E+03  0.00000000000E+00 0.  1.
         -1    1    1    2    0  502 -0.35229186878E+02  0.13564350407E+01  0.16017085617E+01  0.35291656159E+02  0.00000000000E+00 0.  1.
<scales pt_clust_5="13000.00000" pt_clust_6="13000.00000" pt_clust_7="13000.00000" pt_clust_8="13000.00000" pt_clust_9="35.25529"></scales>
<clustering>
<clus scale="   35.255">  2  9  1 -1</clus>
<clus scale="   77.306">  5  6 -1 -1</clus>
<clus scale="   91.179">  7  8 -1 -1</clus>
<clus scale="   97.367">  2  5  1 -1</clus>
<clus scale="   35.255">  2  5  1 -1</clus>
</clustering>
</event>
<event>
 9    1  0.1487426E-004  0.1315351E+03  0.7546771E-02  0.1227438E+00
          1   -1    0    0  502    0 -0.00000000000E+00  0.00000000000E+00  0.58391308021E+03  0.58391308021E+03  0.00000000000E+00 0. -1.
         21   -1    0    0  501  502  0.00000000000E+00 -0.00000000000E+00 -0.79800310438E+02  0.79800310438E+02  0.00000000000E+00 0. -1.
        -24    2    1    2    0    0 -0.76148973444E+02 -0.59816356927E+02  0.31597649797E+03  0.34005771985E+03  0.80133905750E+02 0.  0.
         23    2    1    2    0    0  0.26778765303E+02  0.10782394467E+03  0.20787101825E+03  0.25202044098E+03  0.89223523375E+02 0.  0.
         11    1    3    3    0    0 -0.81075058407E+02 -0.17938703399E+02  0.22331830077E+03  0.23825621846E+03  0.00000000000E+00 0. -1.
        -12    1    3    3    0    0  0.49260849632E+01 -0.41877653529E+02  0.92658197194E+02  0.10180150139E+03  0.00000000000E+00 0.  1.
        -11    1    4    4    0    0 -0.30930759886E+02  0.47239995690E+02  0.62020491513E+02  0.83874134675E+02  0.00000000000E+00 0.  1.
         11    1    4    4    0    0  0.57709525189E+02  0.60583948984E+02  0.14585052674E+03  0.16814630630E+03  0.00000000000E+00 0. -1.
          2    1    1    2  501    0  0.49370208140E+02 -0.48007587747E+02 -0.19734746455E+02  0.71635229816E+02  0.00000000000E+00 0. -1.
<scales pt_clust_5="13000.00000" pt_clust_6="13000.00000" pt_clust_7="13000.00000" pt_clust_8="13000.00000" pt_clust_9="68.86324"></scales>
<clustering>
<clus scale="   68.863">  2  9  1 -1</clus>
<clus scale="   80.134">  5  6 -1 -1</clus>
<clus scale="   89.224">  7  8 -1 -1</clus>
<clus scale="  125.547">  1  5  2 -1</clus>
<clus scale="   68.863">  2  5  1 -1</clus>
</clustering>
</event>
<event>
 9    1  0.1487426E-004  0.1608536E+03  0.7546771E-02  0.1193330E+00
         21   -1    0    0  501  502  0.00000000000E+00  0.00000000000E+00  0.16256266966E+03  0.16256266966E+03  0.00000000000E+00 0. -1.
          1   -1    0    0  502    0 -0.00000000000E+00 -0.00000000000E+00 -0.41133423202E+03  0.41133423202E+03  0.00000000000E+00 0. -1.
        -24    2    1    2    0    0 -0.11420417025E+03 -0.29223155726E+02 -0.17453415246E+03  0.22511018998E+03  0.79472271419E+02 0.  0.
         23    2    1    2    0    0 -0.65553622721E+01  0.11754807312E+03 -0.12098953538E+03  0.19203877084E+03  0.91541791355E+02 0.  0.
         11    1    3    3    0    0 -0.48481747895E+02  0.74421011890E+01 -0.12688604115E+03  0.13603651050E+03  0.00000000000E+00 0. -1.
        -12    1    3    3    0    0 -0.65722422359E+02 -0.36665256915E+02 -0.47648111303E+02  0.89073679480E+02  0.00000000000E+00 0.  1.
        -13    1    4    4    0    0 -0.21227257481E+02 -0.49231187757E+01 -0.42369322565E+01  0.22198764686E+02  0.00000000000E+00 0.  1.
         13    1    4    4    0    0  0.14671895209E+02  0.12247119190E+03 -0.11675260312E+03  0.16984000615E+03  0.00000000000E+00 0. -1.
          2    1    1    2  501    0  0.12075953253E+03 -0.88324917397E+02  0.46752125474E+02  0.15674794086E+03  0.00000000000E+00 0. -1.
<scales pt_clust_5="13000.00000" pt_clust_6="13000.00000" pt_clust_7="13000.00000" pt_clust_8="13000.00000" pt_clust_9="132.26475"></scales>
<clustering>
<clus scale="   79.472">  5  6 -1 -1</clus>
<clus scale="   91.542">  7  8 -1 -1</clus>
<clus scale="  142.170">  2  5  1 -1</clus>
<clus scale="  132.265">  1  9  2 -1</clus>
<clus scale="  132.265">  1  5  2 -1</clus>
</clustering>
</event>
<event>
 9    1  0.1487426E-004  0.2522730E+03  0.7546771E-02  0.1151666E+00
         -4   -1    0    0    0  501 -0.00000000000E+00  0.00000000000E+00  0.24640270617E+03  0.24640270617E+03  0.00000000000E+00 0.  1.
         21   -1    0    0  501  502  0.00000000000E+00 -0.00000000000E+00 -0.10269965488E+04  0.10269965488E+04  0.00000000000E+00 0.  1.
        -24    2    1    2    0    0 -0.45359770395E+02 -0.13340363148E+02  0.14422576053E+03  0.17281983251E+03  0.82644724280E+02 0.  0.
         23    2    1    2    0    0 -0.19260140424E+03 -0.35665439383E+02 -0.98092956575E+02  0.23889268270E+03  0.95289880017E+02 0.  0.
         11    1    3    3    0    0  0.23575539980E+01  0.25217462740E+02  0.80382487736E+02  0.84278246437E+02  0.00000000000E+00 0. -1.
        -12    1    3    3    0    0 -0.47717324393E+02 -0.38557825888E+02  0.63843272792E+02  0.88541586078E+02  0.00000000000E+00 0.  1.
        -11    1    4    4    0    0 -0.67108992829E+02 -0.59969566504E+02 -0.40752148948E+02  0.98796272546E+02  0.00000000000E+00 0. -1.
         11    1    4    4    0    0 -0.12549241142E+03  0.24304127121E+02 -0.57340807627E+02  0.14009641015E+03  0.00000000000E+00 0.  1.
         -3    1    1    2    0  502  0.23796117464E+03  0.49005802531E+02 -0.82672664661E+03  0.86168673979E+03  0.00000000000E+00 0.  1.
<scales pt_clust_5="13000.00000" pt_clust_6="13000.00000" pt_clust_7="13000.00000" pt_clust_8="13000.00000" pt_clust_9="233.58399"></scales>
<clustering>
<clus scale="   82.645">  5  6 -1 -1</clus>
<clus scale="   95.214">  1  5  2 -1</clus>
<clus scale="   95.290">  7  8 -1 -1</clus>
<clus scale="  233.584">  2  9  1 -1</clus>
<clus scale="  233.584">  2  5  1 -1</clus>
</clustering>
</event>
<event>
 9    1  0.1487426E-004  0.2623084E+03  0.7546771E-02  0.1138985E+00
         21   -1    0    0  501  502  0.00000000000E+00  0.00000000000E+00  0.64537576040E+03  0.64537576040E+03  0.00000000000E+00 0. -1.
          1   -1    0    0  502    0 -0.00000000000E+00 -0.00000000000E+00 -0.45049912664E+03  0.45049912664E+03  0.00000000000E+00 0. -1.
         23    2    1    2    0    0 -0.57301499443E+02  0.37041202263E+02  0.32853414858E+03  0.34797242042E+03  0.92166187318E+02 0.  0.
        -24    2    1    2    0    0  0.27220889376E+03  0.80484967979E+02 -0.32355492818E+03  0.43796922151E+03  0.80955145148E+02 0.  0.
         11    1    4    4    0    0  0.22052884363E+03  0.95870576086E+02 -0.27614019555E+03  0.36616600856E+03  0.00000000000E+00 0. -1.
        -12    1    4    4    0    0  0.51680050127E+02 -0.15385608108E+02 -0.47414732638E+02  0.71803212944E+02  0.00000000000E+00 0.  1.
        -13    1    3    3    0    0 -0.64778746438E+02  0.60070706176E+02  0.28202084045E+03  0.29553431303E+03  0.00000000000E+00 0.  1.
         13    1    3    3    0    0  0.74772469948E+01 -0.23029503913E+02  0.46513308128E+02  0.52438107385E+02  0.00000000000E+00 0. -1.
          2    1    1    2  501    0 -0.21490739432E+03 -0.11752617024E+03  0.18989741336E+03  0.30993324511E+03  0.00000000000E+00 0. -1.
<scales pt_clust_5="13000.00000" pt_clust_6="13000.00000" pt_clust_7="13000.00000" pt_clust_8="13000.00000" pt_clust_9="249.50340"></scales>
<clustering>
<clus scale="   80.955">  5  6 -1 -1</clus>
<clus scale="   92.166">  7  8 -1 -1</clus>
<clus scale="  114.674">  2  7  1 -1</clus>
<clus scale="  249.503">  1  9  2 -1</clus>
<clus scale="  249.503">  1  5  2 -1</clus>
</clustering>
</event>
<event>
 9    1  0.1487426E-004  0.1108263E+03  0.7546771E-02  0.1262495E+00
         21   -1    0    0  501  502  0.00000000000E+00  0.00000000000E+00  0.10802959835E+03  0.10802959835E+03  0.00000000000E+00 0.  1.
          1   -1    0    0  502    0 -0.00000000000E+00 -0.00000000000E+00 -0.45678001282E+03  0.45678001282E+03  0.00000000000E+00 0. -1.
         23    2    1    2    0    0  0.63865590421E+02 -0.34133202069E+02 -0.27940750648E+03  0.30205050903E+03  0.89005989700E+02 0.  0.
        -24    2    1    2    0    0 -0.30557009491E+02 -0.25494963759E+02  0.66148846135E+02  0.11102579940E+03  0.79795578079E+02 0.  0.
         11    1    4    4    0    0  0.97438647975E+01 -0.34505772290E+02  0.35470031999E+01  0.36030160341E+02  0.00000000000E+00 0. -1.
        -12    1    4    4    0    0 -0.40300874288E+02  0.90108085305E+01  0.62601842935E+02  0.74995639057E+02  0.00000000000E+00 0.  1.
        -11    1    3    3    0    0  0.55310797862E+02  0.15318967721E+02 -0.95507803005E+02  0.11142574015E+03  0.00000000000E+00 0.  1.
         11    1    3    3    0    0  0.85547925590E+01 -0.49452169789E+02 -0.18389970348E+03  0.19062476888E+03  0.00000000000E+00 0. -1.
          2    1    1    2  501    0 -0.33308580930E+02  0.59628165828E+02 -0.13549175413E+03  0.15173330274E+03  0.00000000000E+00 0. -1.
<scales pt_clust_5="13000.00000" pt_clust_6="13000.00000" pt_clust_7="13000.00000" pt_clust_8="13000.00000" pt_clust_9="68.30069"></scales>
<clustering>
<clus scale="   68.301">  1  9  2 -1</clus>
<clus scale="   79.796">  5  6 -1 -1</clus>
<clus scale="   89.006">  7  8 -1 -1</clus>
<clus scale="  103.575">  1  5  2 -1</clus>
<clus scale="   68.301">  1  5  2 -1</clus>
</clustering>
</event>
<event>
 9    1  0.1487426E-004  0.2145358E+03  0.7546771E-02  0.1139289E+00
         21   -1    0    0  501  502  0.00000000000E+00  0.00000000000E+00  0.58217592892E+02  0.58217592892E+02  0.00000000000E+00 0. -1.
          1   -1    0    0  502    0 -0.00000000000E+00 -0.00000000000E+00 -0.19967645592E+04  0.19967645592E+04  0.00000000000E+00 0. -1.
        -24    2    1    2    0    0  0.12067635373E+03 -0.14549969271E+03 -0.10635796779E+04  0.10830445402E+04  0.77786900590E+02 0.  0.
         23    2    1    2    0    0 -0.33048037104E+02  0.21681603891E+03 -0.80373403369E+03  0.83837519321E+03  0.93718729099E+02 0.  0.
         11    1    3    3    0    0  0.11554019063E+03 -0.13528872693E+03 -0.10513814497E+04  0.10663280584E+04  0.00000000000E+00 0. -1.
        -12    1    3    3    0    0  0.51361631090E+01 -0.10210965779E+02 -0.12198228159E+02  0.16716481803E+02  0.00000000000E+00 0.  1.
        -13    1    4    4    0    0  0.15581499800E+02  0.13114228319E+03 -0.35041146289E+03  0.37447199482E+03  0.00000000000E+00 0. -1.
         13    1    4    4    0    0 -0.48629536904E+02  0.85673755720E+02 -0.45332257080E+03  0.46390319839E+03  0.00000000000E+00 0.  1.
          2    1    1    2  501    0 -0.87628316631E+02 -0.71316346203E+02 -0.71233254764E+02  0.13356241872E+03  0.00000000000E+00 0. -1.
<scales pt_clust_5="13000.00000" pt_clust_6="13000.00000" pt_clust_7="13000.00000" pt_clust_8="13000.00000" pt_clust_9="112.98116"></scales>
<clustering>
<clus scale="   77.787">  5  6 -1 -1</clus>
<clus scale="   93.719">  7  8 -1 -1</clus>
<clus scale="  112.981">  1  9  2 -1</clus>
<clus scale="  208.070">  2  5  1 -1</clus>
<clus scale="  112.981">  1  5  2 -1</clus>
</clustering>
</event>
<event>
 9    1  0.1487426E-004  0.1140134E+03  0.7546771E-02  0.1257669E+00
         21   -1    0    0  501  502  0.00000000000E+00  0.00000000000E+00  0.59047909516E+02  0.59047909516E+02  0.00000000000E+00 0.  1.
          3   -1    0    0  502    0 -0.00000000000E+00 -0.00000000000E+00 -0.42251590268E+03  0.42251590268E+03  0.00000000000E+00 0. -1.
        -24    2    1    2    0    0  0.42277320172E+02  0.53725360335E+02 -0.32573308604E+03  0.34250280547E+03  0.80822906846E+02 0.  0.
         23    2    1    2    0    0 -0.50530781724E+02 -0.31553960364E+02 -0.31184853199E+02  0.11451322045E+03  0.92691802623E+02 0.  0.
         13    1    3    3    0    0  0.64973817187E+02  0.41190986213E+02 -0.20363329541E+03  0.21768053029E+03  0.00000000000E+00 0. -1.
        -14    1    3    3    0    0 -0.22696497015E+02  0.12534374122E+02 -0.12209979062E+03  0.12482227518E+03  0.00000000000E+00 0.  1.
        -11    1    4    4    0    0 -0.34869205866E+02 -0.64343048404E+02 -0.14860880424E+02  0.74677541220E+02  0.00000000000E+00 0.  1.
         11    1    4    4    0    0 -0.15661575858E+02  0.32789088041E+02 -0.16323972774E+02  0.39835679234E+02  0.00000000000E+00 0. -1.
          4    1    1    2  501    0  0.82534615522E+01 -0.22171399971E+02 -0.65500539234E+01  0.24547786268E+02  0.00000000000E+00 0. -1.
<scales pt_clust_5="13000.00000" pt_clust_6="13000.00000" pt_clust_7="13000.00000" pt_clust_8="13000.00000" pt_clust_9="23.65778"></scales>
<clustering>
<clus scale="   23.658">  1  9  2 -1</clus>
<clus scale="   80.823">  5  6 -1 -1</clus>
<clus scale="   92.692">  7  8 -1 -1</clus>
<clus scale="  104.593">  2  5  1 -1</clus>
<clus scale="   23.658">  1  5  2 -1</clus>
</clustering>
</event>
<event>
 9    1  0.1487426E-004  0.1320298E+03  0.7546771E-02  0.1238103E+00
          1   -1    0    0  502    0 -0.00000000000E+00  0.00000000000E+00  0.15921778982E+03  0.15921778982E+03  0.00000000000E+00 0. -1.
         21   -1    0    0  501  502  0.00000000000E+00 -0.00000000000E+00 -0.38857141827E+03  0.38857141827E+03  0.00000000000E+00 0. -1.
         23    2    1    2    0    0  0.19616874699E+02 -0.38246533849E+02  0.97721116674E+02  0.13960853529E+03  0.89963922528E+02 0.  0.
        -24    2    1    2    0    0 -0.18942391821E+02 -0.87444023291E+02 -0.15444499423E+03  0.19464003974E+03  0.77628715098E+02 0.  0.
         13    1    4    4    0    0 -0.40785505742E+02 -0.55615689123E+02 -0.13458727618E+03  0.15122928706E+03  0.00000000000E+00 0. -1.
        -14    1    4    4    0    0  0.21843113921E+02 -0.31828334169E+02 -0.19857718055E+02  0.43410752678E+02  0.00000000000E+00 0.  1.
        -13    1    3    3    0    0  0.21032073668E+02 -0.60906128576E+02  0.97543130640E+02  0.11690409298E+03  0.00000000000E+00 0. -1.
         13    1    3    3    0    0 -0.14151989692E+01  0.22659594727E+02  0.17798603372E+00  0.22704442305E+02  0.00000000000E+00 0.  1.
          2    1    1    2  501    0 -0.67448287787E+00  0.12569055714E+03 -0.17262975088E+03  0.21354063307E+03  0.00000000000E+00 0. -1.
<scales pt_clust_5="13000.00000" pt_clust_6="13000.00000" pt_clust_7="13000.00000" pt_clust_8="13000.00000" pt_clust_9="106.79734"></scales>
<clustering>
<clus scale="   77.629">  5  6 -1 -1</clus>
<clus scale="   89.964">  7  8 -1 -1</clus>
<clus scale="   99.705">  1  7  2 -1</clus>
<clus scale="  106.797">  2  9  1 -1</clus>
<clus scale="  106.797">  2  5  1 -1</clus>
</clustering>
</event>
<event>
 9    1  0.1487426E-004  0.1019267E+03  0.7546771E-02  0.1280815E+00
          3   -1    0    0  502    0 -0.00000000000E+00  0.00000000000E+00  0.12588288241E+03  0.12588288241E+03  0.00000000000E+00 0. -1.
         21   -1    0    0  501  502  0.00000000000E+00 -0.00000000000E+00 -0.18665691003E+03  0.18665691003E+03  0.00000000000E+00 0.  1.
        -24    2    1    2    0    0  0.24639623446E+02  0.36575156251E+02  0.68510987372E+02  0.11513409509E+03  0.81346489550E+02 0.  0.
         23    2    1    2    0    0 -0.10530204186E+02 -0.56516365104E+02 -0.58304287272E+02  0.12233911870E+03  0.90898214097E+02 0.  0.
         11    1    3    3    0    0 -0.57706450847E+01  0.54212936197E+02  0.55084014421E+02  0.77502202811E+02  0.00000000000E+00 0. -1.
        -12    1    3    3    0    0  0.30410268531E+02 -0.17637779946E+02  0.13426972951E+02  0.37631892275E+02  0.00000000000E+00 0.  1.
        -11    1    4    4    0    0 -0.28025977023E+02 -0.69303346742E+02 -0.18488441842E+02  0.77007997893E+02  0.00000000000E+00 0.  1.
         11    1    4    4    0    0  0.17495772837E+02  0.12786981639E+02 -0.39815845430E+02  0.45331120810E+02  0.00000000000E+00 0. -1.
          4    1    1    2  501    0 -0.14109419260E+02  0.19941208853E+02 -0.70980727719E+02  0.75066578648E+02  0.00000000000E+00 0. -1.
<scales pt_clust_5="13000.00000" pt_clust_6="13000.00000" pt_clust_7="13000.00000" pt_clust_8="13000.00000" pt_clust_9="24.42801"></scales>
<clustering>
<clus scale="   24.428">  2  9  1 -1</clus>
<clus scale="   81.346">  5  6 -1 -1</clus>
<clus scale="   90.898">  7  8 -1 -1</clus>
<clus scale="   93.508">  1  5  2 -1</clus>
<clus scale="   24.428">  2  5  1 -1</clus>
</clustering>
</event>
<event>
 9    1  0.1487426E-004  0.1317949E+03  0.7546771E-02  0.1240771E+00
         21   -1    0    0  501  502  0.00000000000E+00  0.00000000000E+00  0.12614998925E+03  0.12614998925E+03  0.00000000000E+00 0.  1.
          1   -1    0    0  502    0 -0.00000000000E+00 -0.00000000000E+00 -0.27194287114E+03  0.27194287114E+03  0.00000000000E+00 0. -1.
         23    2    1    2    0    0  0.11557376307E+02 -0.40367330111E+01 -0.87899602363E+02  0.12938828244E+03  0.94154762893E+02 0.  0.
        -24    2    1    2    0    0  0.78147057621E+02  0.66983823199E+02  0.23461849049E+02  0.13222059144E+03  0.79611753240E+02 0.  0.
         11    1    4    4    0    0  0.32733587620E+02  0.24280060985E+02 -0.29589681740E+02  0.50364257022E+02  0.00000000000E+00 0. -1.
        -12    1    4    4    0    0  0.45413470001E+02  0.42703762214E+02  0.53051530789E+02  0.81856334415E+02  0.00000000000E+00 0.  1.
        -13    1    3    3    0    0 -0.11396856110E+02 -0.28204018377E+02  0.48751383849E+01  0.30807822969E+02  0.00000000000E+00 0.  1.
         13    1    3    3    0    0  0.22954232417E+02  0.24167285366E+02 -0.92774740748E+02  0.98580459466E+02  0.00000000000E+00 0. -1.
          2    1    1    2  501    0 -0.89704433928E+02 -0.62947090188E+02 -0.81355128577E+02  0.13648398652E+03  0.00000000000E+00 0. -1.
<scales pt_clust_5="13000.00000" pt_clust_6="13000.00000" pt_clust_7="13000.00000" pt_clust_8="13000.00000" pt_clust_9="105.03267"></scales>
<clustering>
<clus scale="   79.612">  5  6 -1 -1</clus>
<clus scale="   94.155">  7  8 -1 -1</clus>
<clus scale="   94.947">  2  7  1 -1</clus>
<clus scale="  105.033">  1  9  2 -1</clus>
<clus scale="  105.033">  1  5  2 -1</clus>
</clustering>
</event>
<event>
 9    1  0.1487426E-004  0.1093269E+03  0.7546771E-02  0.1266032E+00
          1   -1    0    0  502    0 -0.00000000000E+00  0.00000000000E+00  0.34817596409E+03  0.34817596409E+03  0.00000000000E+00 0. -1.
         21   -1    0    0  501  502  0.00000000000E+00 -0.00000000000E+00 -0.53038814578E+02  0.53038814578E+02  0.00000000000E+00 0. -1.
        -24    2    1    2    0    0  0.70301518196E+02  0.20187171247E+02  0.15338105555E+03  0.18825337151E+03  0.81017024999E+02 0.  0.
         23    2    1    2    0    0 -0.41233363918E+02  0.17034498433E+02  0.58995841663E+02  0.11767410660E+03  0.91522246441E+02 0.  0.
         13    1    3    3    0    0  0.57801092970E+02 -0.11009175925E+02  0.14039058046E+03  0.15222247989E+03  0.00000000000E+00 0. -1.
        -14    1    3    3    0    0  0.12500425226E+02  0.31196347172E+02  0.12990475093E+02  0.36030891619E+02  0.00000000000E+00 0.  1.
        -13    1    4    4    0    0 -0.64437825211E+02  0.16849621673E+02  0.65663602598E+02  0.93529951216E+02  0.00000000000E+00 0.  1.
         13    1    4    4    0    0  0.23204461292E+02  0.18487675989E+00 -0.66677609353E+01  0.24144155383E+02  0.00000000000E+00 0. -1.
          2    1    1    2  501    0 -0.29068154278E+02 -0.37221669680E+02  0.82760252295E+02  0.95287300554E+02  0.00000000000E+00 0. -1.
<scales pt_clust_5="13000.00000" pt_clust_6="13000.00000" pt_clust_7="13000.00000" pt_clust_8="13000.00000" pt_clust_9="47.22724"></scales>
<clustering>
<clus scale="   47.227">  2  9  1 -1</clus>
<clus scale="   81.017">  5  6 -1 -1</clus>
<clus scale="   91.522">  7  8 -1 -1</clus>
<clus scale="  100.697">  1  5  2 -1</clus>
<clus scale="   47.227">  2  5  1 -1</clus>
</clustering>
</event>
<event>
 9    1  0.1487426E-004  0.1043927E+03  0.7546771E-02  0.1276291E+00
         21   -1    0    0  501  502  0.00000000000E+00  0.00000000000E+00  0.25694249290E+03  0.25694249290E+03  0.00000000000E+00 0.  1.
          1   -1    0    0  502    0 -0.00000000000E+00 -0.00000000000E+00 -0.10967396024E+03  0.10967396024E+03  0.00000000000E+00 0. -1.
         23    2    1    2    0    0  0.39576679495E+02  0.43921000552E+02  0.56763053922E+02  0.12318632783E+03  0.91964445442E+02 0.  0.
        -24    2    1    2    0    0  0.51432617159E+02 -0.57012485895E+02  0.10145461443E+03  0.15083443082E+03  0.81007709976E+02 0.  0.
         13    1    4    4    0    0  0.28780052440E+02 -0.22049963901E+02 -0.49245943790E+01  0.36588850164E+02  0.00000000000E+00 0. -1.
        -14    1    4    4    0    0  0.22652564719E+02 -0.34962521994E+02  0.10637920881E+03  0.11424558065E+03  0.00000000000E+00 0.  1.
        -11    1    3    3    0    0  0.24017121703E+02  0.72711150691E+02  0.41044286170E+02  0.86881338600E+02  0.00000000000E+00 0. -1.
         11    1    3    3    0    0  0.15559557792E+02 -0.28790150139E+02  0.15718767752E+02  0.36304989235E+02  0.00000000000E+00 0.  1.
          2    1    1    2  501    0 -0.91009296654E+02  0.13091485343E+02 -0.10949135695E+02  0.92595694492E+02  0.00000000000E+00 0. -1.
<scales pt_clust_5="13000.00000" pt_clust_6="13000.00000" pt_clust_7="13000.00000" pt_clust_8="13000.00000" pt_clust_9="91.94611"></scales>
<clustering>
<clus scale="   81.008">  5  6 -1 -1</clus>
<clus scale="   91.946">  1  9  2 -1</clus>
<clus scale="   91.964">  7  8 -1 -1</clus>
<clus scale="   94.882">  1  5  2 -1</clus>
<clus scale="   91.946">  1  5  2 -1</clus>
</clustering>
</event>
<event>
 9    1  0.1487426E-004  0.1295745E+03  0.7546771E-02  0.1230514E+00
         -2   -1    0    0    0  501 -0.00000000000E+00  0.00000000000E+00  0.89475978617E+02  0.89475978617E+02  0.00000000000E+00 0.  1.
         21   -1    0    0  501  502  0.00000000000E+00 -0.00000000000E+00 -0.38371452266E+03  0.38371452266E+03  0.00000000000E+00 0. -1.
        -24    2    1    2    0    0  0.13213943811E+03  0.21038500904E+02 -0.91780345338E+02  0.18105966153E+03  0.80346248303E+02 0.  0.
         23    2    1    2    0    0 -0.42289878336E+02  0.50881416098E+01 -0.16231850696E+03  0.19031365213E+03  0.89764500175E+02 0.  0.
         11    1    3    3    0    0  0.93294522474E+02  0.50672104514E+02 -0.72371461568E+02  0.12848797044E+03  0.00000000000E+00 0. -1.
        -12    1    3    3    0    0  0.38844915641E+02 -0.29633603610E+02 -0.19408883770E+02  0.52571691082E+02  0.00000000000E+00 0.  1.
        -13    1    4    4    0    0 -0.23037484932E+01 -0.29894061908E+02 -0.14633845516E+02  0.33363327607E+02  0.00000000000E+00 0.  1.
         13    1    4    4    0    0 -0.39986129843E+02  0.34982203517E+02 -0.14768466144E+03  0.15695032452E+03  0.00000000000E+00 0. -1.
         -1    1    1    2    0  502 -0.89849559779E+02 -0.26126642514E+02 -0.40139691751E+02  0.10181718762E+03  0.00000000000E+00 0.  1.
<scales pt_clust_5="13000.00000" pt_clust_6="13000.00000" pt_clust_7="13000.00000" pt_clust_8="13000.00000" pt_clust_9="93.57112"></scales>
<clustering>
<clus scale="   80.346">  5  6 -1 -1</clus>
<clus scale="   89.765">  7  8 -1 -1</clus>
<clus scale="   93.571">  2  9  1 -1</clus>
<clus scale="  123.237">  1  5  2 -1</clus>
<clus scale="   93.571">  2  5  1 -1</clus>
</clustering>
</event>
<event>
 9    1  0.1487426E-004  0.1213510E+03  0.7546771E-02  0.1246089E+00
          1   -1    0    0  502    0 -0.00000000000E+00  0.00000000000E+00  0.22326090264E+03  0.22326090264E+03  0.00000000000E+00 0. -1.
         21   -1    0    0  501  502  0.00000000000E+00 -0.00000000000E+00 -0.13883038513E+03  0.13883038513E+03  0.00000000000E+00 0.  1.
         23    2    1    2    0    0 -0.42695864701E+01  0.96232957974E+02  0.45950839902E+02  0.14348646195E+03  0.95905544716E+02 0.  0.
        -24    2    1    2    0    0  0.44278172867E+02 -0.33390701386E+02 -0.44524126342E+02  0.10707246428E+03  0.80041359615E+02 0.  0.
         13    1    4    4    0    0  0.28875795839E+02 -0.21272075515E+02  0.19004725528E+02  0.40589313550E+02  0.00000000000E+00 0. -1.
        -14    1    4    4    0    0  0.15402377028E+02 -0.12118625871E+02 -0.63528851870E+02  0.66483150730E+02  0.00000000000E+00 0.  1.
        -11    1    3    3    0    0  0.40923206123E+02  0.76083598597E+02  0.31218607612E+02  0.91858718890E+02  0.00000000000E+00 0.  1.
         11    1    3    3    0    0 -0.45192792593E+02  0.20149359378E+02  0.14732232290E+02  0.51627743065E+02  0.00000000000E+00 0. -1.
          2    1    1    2  501    0 -0.40008586397E+02 -0.62842256589E+02  0.83003803949E+02  0.11153236153E+03  0.00000000000E+00 0. -1.
<scales pt_clust_5="13000.00000" pt_clust_6="13000.00000" pt_clust_7="13000.00000" pt_clust_8="13000.00000" pt_clust_9="74.49726"></scales>
<clustering>
<clus scale="   74.497">  2  9  1 -1</clus>
<clus scale="   80.041">  5  6 -1 -1</clus>
<clus scale="   95.906">  7  8 -1 -1</clus>
<clus scale="  109.247">  2  5  1 -1</clus>
<clus scale="   74.497">  2  5  1 -1</clus>
</clustering>
</event>
<event>
 9    1  0.1487426E-004  0.1681543E+03  0.7546771E-02  0.1181528E+00
         21   -1    0    0  501  502  0.00000000000E+00  0.00000000000E+00  0.77668175633E+02  0.77668175633E+02  0.00000000000E+00 0.  1.
          1   -1    0    0  502    0 -0.00000000000E+00 -0.00000000000E+00 -0.99097023867E+03  0.99097023867E+03  0.00000000000E+00 0. -1.
        -24    2    1    2    0    0 -0.15869847161E+03 -0.39135350291E+02 -0.70421781238E+03  0.72728278711E+03  0.79377229899E+02 0.  0.
         23    2    1    2    0    0  0.86781261891E+02  0.62149164149E+02 -0.22382324761E+03  0.26442085799E+03  0.91804346021E+02 0.  0.
         11    1    3    3    0    0 -0.15615104405E+03 -0.50080516420E+02 -0.58539319304E+03  0.60792795391E+03  0.00000000000E+00 0. -1.
        -12    1    3    3    0    0 -0.25474275557E+01  0.10945166129E+02 -0.11882461934E+03  0.11935483321E+03  0.00000000000E+00 0.  1.
        -13    1    4    4    0    0  0.19804083383E+02 -0.13436410603E+02 -0.10859096707E+03  0.11119683889E+03  0.00000000000E+00 0. -1.
         13    1    4    4    0    0  0.66977178508E+02  0.75585574752E+02 -0.11523228053E+03  0.15322401910E+03  0.00000000000E+00 0.  1.
          2    1    1    2  501    0  0.71917209716E+02 -0.23013813858E+02  0.14738996949E+02  0.76934769205E+02  0.00000000000E+00 0. -1.
<scales pt_clust_5="13000.00000" pt_clust_6="13000.00000" pt_clust_7="13000.00000" pt_clust_8="13000.00000" pt_clust_9="75.50974"></scales>
<clustering>
<clus scale="   75.510">  1  9  2 -1</clus>
<clus scale="   79.377">  5  6 -1 -1</clus>
<clus scale="   91.804">  7  8 -1 -1</clus>
<clus scale="  161.705">  2  5  1 -1</clus>
<clus scale="   75.510">  1  5  2 -1</clus>
</clustering>
</event>
<event>
 9    1  0.1487426E-004  0.1005367E+03  0.7546771E-02  0.1285457E+00
         21   -1    0    0  501  502  0.00000000000E+00  0.00000000000E+00  0.51174898277E+02  0.51174898277E+02  0.00000000000E+00 0. -1.
          3   -1    0    0  502    0 -0.00000000000E+00 -0.00000000000E+00 -0.31225502445E+03  0.31225502445E+03  0.00000000000E+00 0. -1.
        -24    2    1    2    0    0  0.27635001966E+02  0.80405676544E+01 -0.11151464553E+03  0.14020867213E+03  0.79966314858E+02 0.  0.
         23    2    1    2    0    0 -0.35327639113E+02 -0.44676811563E+02 -0.15075565924E+03  0.18576717794E+03  0.92401926543E+02 0.  0.
         11    1    3    3    0    0  0.53715631888E+02 -0.29707513854E+01 -0.54648622443E+02  0.76685503244E+02  0.00000000000E+00 0. -1.
        -12    1    3    3    0    0 -0.26080629922E+02  0.11011319040E+02 -0.56866023084E+02  0.63523168888E+02  0.00000000000E+00 0.  1.
        -11    1    4    4    0    0  0.30319257494E+02 -0.43002784663E+01 -0.53881077833E+02  0.61975158881E+02  0.00000000000E+00 0.  1.
         11    1    4    4    0    0 -0.65646896607E+02 -0.40376533096E+02 -0.96874581406E+02  0.12379201905E+03  0.00000000000E+00 0. -1.
          4    1    1    2  501    0  0.76926371469E+01  0.36636243908E+02  0.11901785906E+01  0.37454072663E+02  0.00000000000E+00 0. -1.
<scales pt_clust_5="13000.00000" pt_clust_6="13000.00000" pt_clust_7="13000.00000" pt_clust_8="13000.00000" pt_clust_9="37.43516"></scales>
<clustering>
<clus scale="   37.435">  1  9  2 -1</clus>
<clus scale="   79.966">  5  6 -1 -1</clus>
<clus scale="   89.242">  2  5  1 -1</clus>
<clus scale="   92.402">  7  8 -1 -1</clus>
<clus scale="   37.435">  1  5  2 -1</clus>
</clustering>
</event>
<event>
 9    1  0.1487426E-004  0.9548566E+02  0.7546771E-02  0.1295144E+00
         21   -1    0    0  501  502  0.00000000000E+00  0.00000000000E+00  0.13293365075E+03  0.13293365075E+03  0.00000000000E+00 0. -1.
          3   -1    0    0  502    0 -0.00000000000E+00 -0.00000000000E+00 -0.17827665715E+03  0.17827665715E+03  0.00000000000E+00 0. -1.
         23    2    1    2    0    0 -0.32486522995E+02 -0.26050587130E+02 -0.69978597908E+02  0.12140654885E+03  0.90047424573E+02 0.  0.
        -24    2    1    2    0    0 -0.52891206419E+02  0.42182680794E+02  0.30842594724E+02  0.10269389730E+03  0.70837226210E+02 0.  0.
         11    1    4    4    0    0 -0.66856602003E+02  0.22081052899E+02  0.11165336004E+02  0.71288448269E+02  0.00000000000E+00 0. -1.
        -12    1    4    4    0    0  0.13965395584E+02  0.20101627895E+02  0.19677258720E+02  0.31405449027E+02  0.00000000000E+00 0.  1.
        -13    1    3    3    0    0 -0.18851608310E+02  0.12454942213E+02  0.14999834872E+02  0.27120172706E+02  0.00000000000E+00 0. -1.
         13    1    3    3    0    0 -0.13634914685E+02 -0.38505529344E+02 -0.84978432780E+02  0.94286376144E+02  0.00000000000E+00 0.  1.
          4    1    1    2  501    0  0.85377729414E+02 -0.16132093663E+02 -0.62070032233E+01  0.87109861755E+02  0.00000000000E+00 0. -1.
<scales pt_clust_5="13000.00000" pt_clust_6="13000.00000" pt_clust_7="13000.00000" pt_clust_8="13000.00000" pt_clust_9="86.88844"></scales>
<clustering>
<clus scale="   70.837">  5  6 -1 -1</clus>
<clus scale="   86.888">  1  9  2 -1</clus>
<clus scale="   86.888">  1  5  2 -1</clus>
<clus scale="   90.047">  7  8 -1 -1</clus>
<clus scale="   86.888">  1  5  2 -1</clus>
</clustering>
</event>
<event>
 9    1  0.1487426E-004  0.1651807E+03  0.7546771E-02  0.1207900E+00
          3   -1    0    0  502    0 -0.00000000000E+00  0.00000000000E+00  0.15018161516E+04  0.15018161516E+04  0.00000000000E+00 0. -1.
         21   -1    0    0  501  502  0.00000000000E+00 -0.00000000000E+00 -0.31083197346E+02  0.31083197346E+02  0.00000000000E+00 0. -1.
        -24    2    1    2    0    0 -0.51270793482E+01  0.52087080031E+02  0.12263221565E+03  0.15555697035E+03  0.80124652006E+02 0.  0.
         23    2    1    2    0    0  0.11358762230E+03 -0.17559531942E+02  0.74991749721E+03  0.76842610255E+03  0.12203252582E+03 0.  0.
         13    1    3    3    0    0  0.15679026532E+02  0.67821265937E+02  0.88267230833E+02  0.11241289973E+03  0.00000000000E+00 0. -1.
        -14    1    3    3    0    0 -0.20806105880E+02 -0.15734185906E+02  0.34364984821E+02  0.43144070621E+02  0.00000000000E+00 0.  1.
        -13    1    4    4    0    0  0.54387980615E+02  0.51871245180E+02  0.29286550954E+03  0.30235556087E+03  0.00000000000E+00 0.  1.
         13    1    4    4    0    0  0.59199641684E+02 -0.69430777122E+02  0.45705198768E+03  0.46607054169E+03  0.00000000000E+00 0. -1.
          4    1    1    2  501    0 -0.10846054295E+03 -0.34527548089E+02  0.59818324138E+03  0.60891627603E+03  0.00000000000E+00 0. -1.
<scales pt_clust_5="13000.00000" pt_clust_6="13000.00000" pt_clust_7="13000.00000" pt_clust_8="13000.00000" pt_clust_9="111.32263"></scales>
<clustering>
<clus scale="   80.125">  5  6 -1 -1</clus>
<clus scale="   95.704">  1  5  2 -1</clus>
<clus scale="  111.323">  2  9  1 -1</clus>
<clus scale="  122.033">  7  8 -1 -1</clus>
<clus scale="  111.323">  2  5  1 -1</clus>
</clustering>
</event>
<event>
 9    1  0.1487426E-004  0.1301393E+03  0.7546771E-02  0.1248231E+00
          1   -1    0    0  502    0 -0.00000000000E+00  0.00000000000E+00  0.48547702110E+03  0.48547702110E+03  0.00000000000E+00 0. -1.
         21   -1    0    0  501  502  0.00000000000E+00 -0.00000000000E+00 -0.59503576683E+02  0.59503576683E+02  0.00000000000E+00 0.  1.
        -24    2    1    2    0    0  0.22953013542E+02  0.16264360925E+02  0.22658420872E+03  0.24194936145E+03  0.80048232954E+02 0.  0.
         23    2    1    2    0    0 -0.82287979175E+02  0.52825064716E+02  0.90714551545E+02  0.16124204825E+03  0.90598395584E+02 0.  0.
         11    1    3    3    0    0  0.37299730265E+02  0.18221307504E+01  0.21561509657E+03  0.21882518115E+03  0.00000000000E+00 0. -1.
        -12    1    3    3    0    0 -0.14346716723E+02  0.14442230174E+02  0.10969112151E+02  0.23124180300E+02  0.00000000000E+00 0.  1.
        -11    1    4    4    0    0 -0.74355138150E+02  0.75140793789E+02  0.87725746052E+02  0.13737041887E+03  0.00000000000E+00 0. -1.
         11    1    4    4    0    0 -0.79328410242E+01 -0.22315729073E+02  0.29888054923E+01  0.23871629376E+02  0.00000000000E+00 0.  1.
          2    1    1    2  501    0  0.59334965632E+02 -0.69089425641E+02  0.10867468416E+03  0.14178918809E+03  0.00000000000E+00 0. -1.
<scales pt_clust_5="13000.00000" pt_clust_6="13000.00000" pt_clust_7="13000.00000" pt_clust_8="13000.00000" pt_clust_9="93.42472"></scales>
<clustering>
<clus scale="   80.048">  5  6 -1 -1</clus>
<clus scale="   84.847">  1  5  2 -1</clus>
<clus scale="   90.598">  7  8 -1 -1</clus>
<clus scale="   93.425">  2  9  1 -1</clus>
<clus scale="   93.425">  2  5  1 -1</clus>
</clustering>
</event>
<event>
 9    1  0.1487426E-004  0.1118704E+03  0.7546771E-02  0.1263654E+00
         21   -1    0    0  501  502  0.00000000000E+00  0.00000000000E+00  0.59646510440E+03  0.59646510440E+03  0.00000000000E+00 0. -1.
          3   -1    0    0  502    0 -0.00000000000E+00 -0.00000000000E+00 -0.45091650077E+02  0.45091650077E+02  0.00000000000E+00 0. -1.
        -24    2    1    2    0    0 -0.22314050780E+02  0.38004324789E+02  0.80887428505E+02  0.11987283235E+03  0.76710327081E+02 0.  0.
         23    2    1    2    0    0  0.39754681373E+02 -0.11052331803E+03  0.29324705310E+03  0.32939030958E+03  0.93318290659E+02 0.  0.
         11    1    3    3    0    0 -0.31827435785E+02 -0.13836738556E+02  0.23268622433E+02  0.41783606743E+02  0.00000000000E+00 0. -1.
        -12    1    3    3    0    0  0.95133850045E+01  0.51841063345E+02  0.57618806072E+02  0.78089225608E+02  0.00000000000E+00 0.  1.
        -11    1    4    4    0    0  0.21646104296E+02 -0.54872479533E+02  0.44604695571E+02  0.73953510453E+02  0.00000000000E+00 0.  1.
         11    1    4    4    0    0  0.18108577076E+02 -0.55650838500E+02  0.24864235753E+03  0.25543679912E+03  0.00000000000E+00 0. -1.
          4    1    1    2  501    0 -0.17440630592E+02  0.72518993244E+02  0.17723897272E+03  0.19229361255E+03  0.00000000000E+00 0. -1.
<scales pt_clust_5="13000.00000" pt_clust_6="13000.00000" pt_clust_7="13000.00000" pt_clust_8="13000.00000" pt_clust_9="74.58673"></scales>
<clustering>
<clus scale="   74.587">  1  9  2 -1</clus>
<clus scale="   76.710">  5  6 -1 -1</clus>
<clus scale="   93.318">  7  8 -1 -1</clus>
<clus scale="   98.444">  2  5  1 -1</clus>
<clus scale="   74.587">  1  5  2 -1</clus>
</clustering>
</event>
<event>
 9    1  0.1487426E-004  0.9785291E+02  0.7546771E-02  0.1291076E+00
         21   -1    0    0  501  502  0.00000000000E+00  0.00000000000E+00  0.27673633991E+03  0.27673633991E+03  0.00000000000E+00 0. -1.
         -2   -1    0    0    0  501 -0.00000000000E+00 -0.00000000000E+00 -0.67374801588E+02  0.67374801588E+02  0.00000000000E+00 0.  1.
        -24    2    1    2    0    0  0.15041967950E+00 -0.36458281771E+02 -0.85106986341E+01  0.89129856842E+02  0.80885539212E+02 0.  0.
         23    2    1    2    0    0  0.26310462385E+02  0.12818365055E+02  0.15534615009E+03  0.18308875736E+03  0.92371617994E+02 0.  0.
         11    1    3    3    0    0 -0.38143166205E+02 -0.14376015644E+02  0.87223246616E+01  0.41685128061E+02  0.00000000000E+00 0. -1.
        -12    1    3    3    0    0  0.38293585885E+02 -0.22082266127E+02 -0.17233023296E+02  0.47444728781E+02  0.00000000000E+00 0.  1.
        -11    1    4    4    0    0  0.65374669224E+01 -0.34407095350E+02  0.24947984688E+02  0.42999867722E+02  0.00000000000E+00 0.  1.
         11    1    4    4    0    0  0.19772995462E+02  0.47225460404E+02  0.13039816541E+03  0.14008888964E+03  0.00000000000E+00 0. -1.
         -1    1    1    2    0  502 -0.26460882064E+02  0.23639916716E+02  0.62526086859E+02  0.71892527288E+02  0.00000000000E+00 0.  1.
<scales pt_clust_5="13000.00000" pt_clust_6="13000.00000" pt_clust_7="13000.00000" pt_clust_8="13000.00000" pt_clust_9="35.48273"></scales>
<clustering>
<clus scale="   35.483">  1  9  2 -1</clus>
<clus scale="   80.886">  5  6 -1 -1</clus>
<clus scale="   87.093">  2  5  1 -1</clus>
<clus scale="   92.372">  7  8 -1 -1</clus>
<clus scale="   35.483">  1  5  2 -1</clus>
</clustering>
</event>
<event>
 9    1  0.1487426E-004  0.2063589E+03  0.7546771E-02  0.1146030E+00
         21   -1    0    0  501  502  0.00000000000E+00  0.00000000000E+00  0.62179088371E+02  0.62179088371E+02  0.00000000000E+00 0.  1.
          1   -1    0    0  502    0 -0.00000000000E+00 -0.00000000000E+00 -0.17192247756E+04  0.17192247756E+04  0.00000000000E+00 0. -1.
        -24    2    1    2    0    0  0.39664483877E+02  0.14230389432E+03 -0.57769397862E+03  0.60133432178E+03  0.77775086015E+02 0.  0.
         23    2    1    2    0    0 -0.15852053670E+03 -0.25172641308E+03 -0.64543098759E+03  0.71704984386E+03  0.95311967992E+02 0.  0.
         13    1    3    3    0    0  0.20267766122E+01  0.74287747613E+02 -0.40759419645E+03  0.41431365684E+03  0.00000000000E+00 0. -1.
        -14    1    3    3    0    0  0.37637707265E+02  0.68016146702E+02 -0.17009978217E+03  0.18702066494E+03  0.00000000000E+00 0.  1.
        -13    1    4    4    0    0 -0.66325547949E+02 -0.13278132036E+03 -0.21656558762E+03  0.26254639797E+03  0.00000000000E+00 0.  1.
         13    1    4    4    0    0 -0.92194988747E+02 -0.11894509272E+03 -0.42886539997E+03  0.45450344589E+03  0.00000000000E+00 0. -1.
          2    1    1    2  501    0  0.11885605282E+03  0.10942251877E+03 -0.43392072099E+03  0.46301969830E+03  0.00000000000E+00 0. -1.
<scales pt_clust_5="13000.00000" pt_clust_6="13000.00000" pt_clust_7="13000.00000" pt_clust_8="13000.00000" pt_clust_9="161.55518"></scales>
<clustering>
<clus scale="   77.775">  5  6 -1 -1</clus>
<clus scale="   95.312">  7  8 -1 -1</clus>
<clus scale="  161.555">  1  9  2 -1</clus>
<clus scale="  198.868">  2  5  1 -1</clus>
<clus scale="  161.555">  1  5  2 -1</clus>
</clustering>
</event>
<event>
 9    1  0.1487426E-004  0.1906445E+03  0.7546771E-02  0.1158721E+00
         -2   -1    0    0    0  501 -0.00000000000E+00  0.00000000000E+00  0.10224644945E+04  0.10224644945E+04  0.00000000000E+00 0.  1.
         21   -1    0    0  501  502  0.00000000000E+00 -0.00000000000E+00 -0.52879974211E+02  0.52879974211E+02  0.00000000000E+00 0.  1.
         23    2    1    2    0    0  0.97202198215E+01  0.16683558046E+03  0.67038262365E+03  0.69672933377E+03  0.89946144208E+02 0.  0.
        -24    2    1    2    0    0  0.27859740850E+02 -0.17142220861E+03  0.22872662846E+03  0.29861479728E+03  0.81811905135E+02 0.  0.
         13    1    4    4    0    0 -0.26333353991E+02 -0.64767303942E+02  0.10797876990E+03  0.12863772363E+03  0.00000000000E+00 0. -1.
        -14    1    4    4    0    0  0.54193094842E+02 -0.10665490467E+03  0.12074785856E+03  0.16997707365E+03  0.00000000000E+00 0.  1.
        -11    1    3    3    0    0 -0.51254176803E+01  0.13401760132E+03  0.62265591482E+03  0.63693592741E+03  0.00000000000E+00 0.  1.
         11    1    3    3    0    0  0.14845637502E+02  0.32817979139E+02  0.47726708835E+02  0.59793406357E+02  0.00000000000E+00 0. -1.
         -1    1    1    2    0  502 -0.37579960672E+02  0.45866281489E+01  0.70475268168E+02  0.80000337657E+02  0.00000000000E+00 0.  1.
<scales pt_clust_5="13000.00000" pt_clust_6="13000.00000" pt_clust_7="13000.00000" pt_clust_8="13000.00000" pt_clust_9="37.85882"></scales>
<clustering>
<clus scale="   37.859">  2  9  1 -1</clus>
<clus scale="   81.812">  5  6 -1 -1</clus>
<clus scale="   89.946">  7  8 -1 -1</clus>
<clus scale="  186.944">  2  5  1 -1</clus>
<clus scale="   37.859">  2  5  1 -1</clus>
</clustering>
</event>
<event>
 9    1  0.1487426E-004  0.2360252E+03  0.7546771E-02  0.1122469E+00
         21   -1    0    0  501  502  0.00000000000E+00  0.00000000000E+00  0.17352475695E+03  0.17352475695E+03  0.00000000000E+00 0. -1.
          3   -1    0    0  502    0 -0.00000000000E+00 -0.00000000000E+00 -0.22771425982E+03  0.22771425982E+03  0.00000000000E+00 0. -1.
        -24    2    1    2    0    0  0.18716261013E+02 -0.93546002225E+02 -0.18996924157E+02  0.12622240981E+03  0.80436687223E+02 0.  0.
         23    2    1    2    0    0  0.13126276479E+02 -0.57974976517E+02 -0.49459856803E+02  0.11952992131E+03  0.91146736729E+02 0.  0.
         11    1    3    3    0    0  0.17113995252E+02 -0.85755108966E+02 -0.45483286684E+02  0.98567524646E+02  0.00000000000E+00 0. -1.
        -12    1    3    3    0    0  0.16022657609E+01 -0.77908932584E+01  0.26486362527E+02  0.27654885160E+02  0.00000000000E+00 0.  1.
        -11    1    4    4    0    0  0.40987528238E+02 -0.63304500314E+02 -0.51131040141E+02  0.91114326518E+02  0.00000000000E+00 0.  1.
         11    1    4    4    0    0 -0.27861251759E+02  0.53295237965E+01  0.16711833372E+01  0.28415594789E+02  0.00000000000E+00 0. -1.
          4    1    1    2  501    0 -0.31842537492E+02  0.15152097874E+03  0.14267278091E+02  0.15548668566E+03  0.00000000000E+00 0. -1.
<scales pt_clust_5="13000.00000" pt_clust_6="13000.00000" pt_clust_7="13000.00000" pt_clust_8="13000.00000" pt_clust_9="154.83073"></scales>
<clustering>
<clus scale="   80.437">  5  6 -1 -1</clus>
<clus scale="   91.147">  7  8 -1 -1</clus>
<clus scale="   96.341">  5  7 -1 -1</clus>
<clus scale="  154.831">  1  9  2 -1</clus>
<clus scale="  154.831">  1  5  2 -1</clus>
</clustering>
</event>
<event>
 9    1  0.1487426E-004  0.1177333E+03  0.7546771E-02  0.1250530E+00
         21   -1    0    0  501  502  0.00000000000E+00  0.00000000000E+00  0.67510321281E+02  0.67510321281E+02  0.00000000000E+00 0. -1.
         -4   -1    0    0    0  501 -0.00000000000E+00 -0.00000000000E+00 -0.67671907944E+03  0.67671907944E+03  0.00000000000E+00 0.  1.
         23    2    1    2    0    0  0.55220597488E+02  0.49399718546E+02 -0.36730304983E+03  0.38550484697E+03  0.90624555398E+02 0.  0.
        -24    2    1    2    0    0 -0.93191859399E+02 -0.14580132975E+02 -0.12986577884E+02  0.12407974014E+03  0.79560214763E+02 0.  0.
         13    1    4    4    0    0 -0.64018179295E+02 -0.21780486287E+02  0.28057511618E+02  0.73211616710E+02  0.00000000000E+00 0. -1.
        -14    1    4    4    0    0 -0.29173680104E+02  0.72003533117E+01 -0.41044089502E+02  0.50868123434E+02  0.00000000000E+00 0.  1.
        -11    1    3    3    0    0  0.21944052200E+02  0.72163391846E+02 -0.21064369440E+03  0.22374061442E+03  0.00000000000E+00 0.  1.
         11    1    3    3    0    0  0.33276545289E+02 -0.22763673299E+02 -0.15665935543E+03  0.16176423255E+03  0.00000000000E+00 0. -1.
         -3    1    1    2    0  502  0.37971261911E+02 -0.34819585571E+02 -0.22891913045E+03  0.23464481361E+03  0.00000000000E+00 0.  1.
<scales pt_clust_5="13000.00000" pt_clust_6="13000.00000" pt_clust_7="13000.00000" pt_clust_8="13000.00000" pt_clust_9="51.51915"></scales>
<clustering>
<clus scale="   51.519">  1  9  2 -1</clus>
<clus scale="   79.560">  5  6 -1 -1</clus>
<clus scale="   90.625">  7  8 -1 -1</clus>
<clus scale="  109.445">  1  5  2 -1</clus>
<clus scale="   51.519">  1  5  2 -1</clus>
</clustering>
</event>
<event>
 9    1  0.1487426E-004  0.9715504E+02  0.7546771E-02  0.1287935E+00
         -4   -1    0    0    0  501 -0.00000000000E+00  0.00000000000E+00  0.31336032813E+03  0.31336032813E+03  0.00000000000E+00 0.  1.
         21   -1    0    0  501  502  0.00000000000E+00 -0.00000000000E+00 -0.46931044895E+02  0.46931044895E+02  0.00000000000E+00 0.  1.
         23    2    1    2    0    0 -0.26534586178E+02 -0.20696382944E+02  0.86266572745E+02  0.12734146775E+03  0.87415692560E+02 0.  0.
        -24    2    1    2    0    0  0.57475277199E+02 -0.90174902004E+01  0.10697485104E+03  0.14811651922E+03  0.84321775905E+02 0.  0.
         11    1    4    4    0    0 -0.12384393307E+02  0.22305996535E+02  0.21475220081E+02  0.33348399609E+02  0.00000000000E+00 0. -1.
        -12    1    4    4    0    0  0.69859670506E+02 -0.31323486735E+02  0.85499630957E+02  0.11476811961E+03  0.00000000000E+00 0.  1.
        -13    1    3    3    0    0  0.12969630921E+02 -0.40590597601E+02  0.66299513020E+02  0.78812647250E+02  0.00000000000E+00 0.  1.
         13    1    3    3    0    0 -0.39504217099E+02  0.19894214657E+02  0.19967059725E+02  0.48528820503E+02  0.00000000000E+00 0. -1.
         -3    1    1    2    0  502 -0.30940691022E+02  0.29713873145E+02  0.73187859448E+02  0.84833386050E+02  0.00000000000E+00 0.  1.
<scales pt_clust_5="13000.00000" pt_clust_6="13000.00000" pt_clust_7="13000.00000" pt_clust_8="13000.00000" pt_clust_9="42.89805"></scales>
<clustering>
<clus scale="   42.898">  2  9  1 -1</clus>
<clus scale="   84.322">  5  6 -1 -1</clus>
<clus scale="   87.416">  7  8 -1 -1</clus>
<clus scale="   94.381">  2  5  1 -1</clus>
<clus scale="   42.898">  2  5  1 -1</clus>
</clustering>
</event>
<event>
 9    1  0.1487426E-004  0.1094305E+03  0.7546771E-02  0.1264588E+00
         21   -1    0    0  501  502  0.00000000000E+00  0.00000000000E+00  0.30847163388E+03  0.30847163388E+03  0.00000000000E+00 0. -1.
          1   -1    0    0  502    0 -0.00000000000E+00 -0.00000000000E+00 -0.12858504798E+03  0.12858504798E+03  0.00000000000E+00 0. -1.
        -24    2    1    2    0    0  0.12523064383E+02  0.25900369941E+02 -0.33571016377E+02  0.11274607977E+03  0.10371600193E+03 0.  0.
         23    2    1    2    0    0 -0.97672206078E+02  0.32544338957E+02  0.90240588239E+02  0.16353562619E+03  0.89451346715E+02 0.  0.
         11    1    3    3    0    0 -0.16806579310E+02 -0.35161731461E+02 -0.52520301451E+01  0.39324194691E+02  0.00000000000E+00 0. -1.
        -12    1    3    3    0    0  0.29329643693E+02  0.61062101402E+02 -0.28318986232E+02  0.73421885075E+02  0.00000000000E+00 0.  1.
        -11    1    4    4    0    0 -0.87970953356E+02 -0.82970258732E+01  0.37147064563E+02  0.95852144882E+02  0.00000000000E+00 0. -1.
         11    1    4    4    0    0 -0.97012527214E+01  0.40841364830E+02  0.53093523675E+02  0.67683481307E+02  0.00000000000E+00 0.  1.
          2    1    1    2  501    0  0.85149141694E+02 -0.58444708898E+02  0.12321701404E+03  0.16077497591E+03  0.00000000000E+00 0. -1.
<scales pt_clust_5="13000.00000" pt_clust_6="13000.00000" pt_clust_7="13000.00000" pt_clust_8="13000.00000" pt_clust_9="103.27710"></scales>
<clustering>
<clus scale="   89.451">  7  8 -1 -1</clus>
<clus scale="  103.277">  1  9  2 -1</clus>
<clus scale="  103.277">  1  7  2 -1</clus>
<clus scale="  103.716">  5  6 -1 -1</clus>
<clus scale="  103.277">  1  5  2 -1</clus>
</clustering>
</event>
<event>
 9    1  0.1487426E-004  0.1012379E+03  0.7546771E-02  0.1283757E+00
         21   -1    0    0  501  502  0.00000000000E+00  0.00000000000E+00  0.17647989087E+03  0.17647989087E+03  0.00000000000E+00 0. -1.
         -2   -1    0    0    0  501 -0.00000000000E+00 -0.00000000000E+00 -0.28158523549E+03  0.28158523549E+03  0.00000000000E+00 0.  1.
         23    2    1    2    0    0  0.21366526841E+02  0.23189344961E+02 -0.20239332906E+03  0.22495251755E+03  0.92985489805E+02 0.  0.
        -24    2    1    2    0    0 -0.42651208078E+02 -0.88159930103E+02  0.17790023831E+02  0.12825966259E+03  0.80887312196E+02 0.  0.
         13    1    4    4    0    0 -0.53017089182E+02 -0.96571397317E+02  0.25170152415E+02  0.11300611974E+03  0.00000000000E+00 0. -1.
        -14    1    4    4    0    0  0.10365881104E+02  0.84114672148E+01 -0.73801285842E+01  0.15253542857E+02  0.00000000000E+00 0.  1.
        -13    1    3    3    0    0  0.72533111480E+01 -0.29715939690E+02 -0.25642703020E+02  0.39914857039E+02  0.00000000000E+00 0. -1.
         13    1    3    3    0    0  0.14113215693E+02  0.52905284650E+02 -0.17675062604E+03  0.18503766051E+03  0.00000000000E+00 0.  1.
         -1    1    1    2    0  502  0.21284681236E+02  0.64970585142E+02  0.79497960607E+02  0.10485294621E+03  0.00000000000E+00 0.  1.
<scales pt_clust_5="13000.00000" pt_clust_6="13000.00000" pt_clust_7="13000.00000" pt_clust_8="13000.00000" pt_clust_9="68.36823"></scales>
<clustering>
<clus scale="   68.368">  1  9  2 -1</clus>
<clus scale="   80.887">  5  6 -1 -1</clus>
<clus scale="   90.253">  1  5  2 -1</clus>
<clus scale="   92.985">  7  8 -1 -1</clus>
<clus scale="   68.368">  1  5  2 -1</clus>
</clustering>
</event>
<event>
 9    1  0.1487426E-004  0.9300587E+02  0.7546771E-02  0.1302496E+00
         21   -1    0    0  501  502  0.00000000000E+00  0.00000000000E+00  0.31437210261E+03  0.31437210261E+03  0.00000000000E+00 0.  1.
          1   -1    0    0  502    0 -0.00000000000E+00 -0.00000000000E+00 -0.72051275678E+02  0.72051275678E+02  0.00000000000E+00 0. -1.
         23    2    1    2    0    0  0.18371017381E+02 -0.51334158888E+01 -0.16737064299E+02  0.95132524214E+02  0.91685449247E+02 0.  0.
        -24    2    1    2    0    0 -0.19009844053E+01 -0.36445482543E+02  0.17165725546E+03  0.19311276123E+03  0.80588077649E+02 0.  0.
         11    1    4    4    0    0 -0.11606908888E+02  0.23613463245E+02  0.37550937718E+02  0.45851814619E+02  0.00000000000E+00 0. -1.
        -12    1    4    4    0    0  0.97059244826E+01 -0.60058945787E+02  0.13410631774E+03  0.14726094661E+03  0.00000000000E+00 0.  1.
        -11    1    3    3    0    0  0.48795955427E+02  0.16037951031E+02 -0.25048039705E+02  0.57146001018E+02  0.00000000000E+00 0. -1.
         11    1    3    3    0    0 -0.30424938045E+02 -0.21171366920E+02  0.83109754054E+01  0.37986523196E+02  0.00000000000E+00 0.  1.
          2    1    1    2  501    0 -0.16470032976E+02  0.41578898432E+02  0.87400635774E+02  0.98178092846E+02  0.00000000000E+00 0. -1.
<scales pt_clust_5="13000.00000" pt_clust_6="13000.00000" pt_clust_7="13000.00000" pt_clust_8="13000.00000" pt_clust_9="44.72211"></scales>
<clustering>
<clus scale="   44.722">  1  9  2 -1</clus>
<clus scale="   80.588">  5  6 -1 -1</clus>
<clus scale="   82.087">  1  5  2 -1</clus>
<clus scale="   91.685">  7  8 -1 -1</clus>
<clus scale="   44.722">  1  5  2 -1</clus>
</clustering>
</event>
<event>
 9    1  0.1487426E-004  0.1857532E+03  0.7546771E-02  0.1190612E+00
          3   -1    0    0  502    0 -0.00000000000E+00  0.00000000000E+00  0.13795135106E+03  0.13795135106E+03  0.00000000000E+00 0. -1.
         21   -1    0    0  501  502  0.00000000000E+00 -0.00000000000E+00 -0.47454653511E+03  0.47454653511E+03  0.00000000000E+00 0.  1.
        -24    2    1    2    0    0  0.10096499513E+02 -0.53028012598E+02  0.92586478300E+01  0.98449968440E+02  0.81809316729E+02 0.  0.
         23    2    1    2    0    0  0.74059750614E+02  0.15978896080E+03 -0.31867072489E+03  0.37541496420E+03  0.91476804645E+02 0.  0.
         11    1    3    3    0    0  0.42059722644E+02 -0.26821721736E+02 -0.12937140562E+02  0.51534402409E+02  0.00000000000E+00 0. -1.
        -12    1    3    3    0    0 -0.31963223131E+02 -0.26206290862E+02  0.22195788392E+02  0.46915566031E+02  0.00000000000E+00 0.  1.
        -13    1    4    4    0    0  0.14432128159E+02  0.12222519072E+03 -0.24053294781E+03  0.27019138134E+03  0.00000000000E+00 0.  1.
         13    1    4    4    0    0  0.59627622456E+02  0.37563770087E+02 -0.78137777084E+02  0.10522358286E+03  0.00000000000E+00 0. -1.
          4    1    1    2  501    0 -0.84156250127E+02 -0.10676094820E+03 -0.27183106989E+02  0.13863295352E+03  0.00000000000E+00 0. -1.
<scales pt_clust_5="13000.00000" pt_clust_6="13000.00000" pt_clust_7="13000.00000" pt_clust_8="13000.00000" pt_clust_9="161.66712"></scales>
<clustering>
<clus scale="   81.809">  5  6 -1 -1</clus>
<clus scale="   91.477">  7  8 -1 -1</clus>
<clus scale="   98.014">  1  5  2 -1</clus>
<clus scale="  161.667">  2  9  1 -1</clus>
<clus scale="  161.667">  2  5  1 -1</clus>
</clustering>
</event>
<event>
 9    1  0.1487426E-004  0.9684529E+02  0.7546771E-02  0.1294809E+00
         21   -1    0    0  501  502  0.00000000000E+00  0.00000000000E+00  0.14588389298E+03  0.14588389298E+03  0.00000000000E+00 0. -1.
         -2   -1    0    0    0  501 -0.00000000000E+00 -0.00000000000E+00 -0.14986320342E+03  0.14986320342E+03  0.00000000000E+00 0.  1.
         23    2    1    2    0    0 -0.51062993944E+01 -0.34306928309E+02 -0.10809951920E+03  0.14614238277E+03  0.92027443545E+02 0.  0.
        -24    2    1    2    0    0 -0.74379074709E+01  0.88400488558E+01  0.77258426820E+02  0.11052179660E+03  0.78183975830E+02 0.  0.
         13    1    4    4    0    0 -0.19465910334E+02  0.39904419791E+02  0.53923803479E+02  0.69850275344E+02  0.00000000000E+00 0. -1.
        -14    1    4    4    0    0  0.12028002863E+02 -0.31064370935E+02  0.23334623341E+02  0.40671521252E+02  0.00000000000E+00 0.  1.
        -11    1    3    3    0    0  0.30891449049E+02 -0.27571305696E+02 -0.10056124575E+03  0.10875211570E+03  0.00000000000E+00 0.  1.
         11    1    3    3    0    0 -0.35997748444E+02 -0.67356226132E+01 -0.75382734569E+01  0.37390267072E+02  0.00000000000E+00 0. -1.
         -1    1    1    2    0  502  0.12544206865E+02  0.25466879453E+02  0.26861781941E+02  0.39082917036E+02  0.00000000000E+00 0.  1.
<scales pt_clust_5="13000.00000" pt_clust_6="13000.00000" pt_clust_7="13000.00000" pt_clust_8="13000.00000" pt_clust_9="28.38871"></scales>
<clustering>
<clus scale="   28.389">  1  9  2 -1</clus>
<clus scale="   78.184">  5  6 -1 -1</clus>
<clus scale="   83.802">  1  5  2 -1</clus>
<clus scale="   92.027">  7  8 -1 -1</clus>
<clus scale="   28.389">  1  5  2 -1</clus>
</clustering>
</event>
<event>
 9    1  0.1487426E-004  0.1177991E+03  0.7546771E-02  0.1257199E+00
         21   -1    0    0  501  502  0.00000000000E+00  0.00000000000E+00  0.48935024812E+02  0.48935024812E+02  0.00000000000E+00 0. -1.
          1   -1    0    0  502    0 -0.00000000000E+00 -0.00000000000E+00 -0.32474796327E+03  0.32474796327E+03  0.00000000000E+00 0. -1.
         23    2    1    2    0    0  0.39257274726E+02 -0.38645725666E+02 -0.13118489874E+03  0.17710887476E+03  0.10546776821E+03 0.  0.
        -24    2    1    2    0    0 -0.47882560566E+02  0.19617483068E+02 -0.67840417905E+02  0.11699516864E+03  0.80049746631E+02 0.  0.
         11    1    4    4    0    0 -0.37382512857E+02  0.42620972017E+01 -0.84199207944E+02  0.92223231121E+02  0.00000000000E+00 0. -1.
        -12    1    4    4    0    0 -0.10500047709E+02  0.15355385866E+02  0.16358790039E+02  0.24771937520E+02  0.00000000000E+00 0.  1.
        -13    1    3    3    0    0 -0.34919566143E+02 -0.15632393155E+02 -0.63269037143E+02  0.73937263111E+02  0.00000000000E+00 0.  1.
         13    1    3    3    0    0  0.74176840868E+02 -0.23013332512E+02 -0.67915861595E+02  0.10317161165E+03  0.00000000000E+00 0. -1.
          2    1    1    2  501    0  0.86252858400E+01  0.19028242599E+02 -0.76787621814E+02  0.79578944678E+02  0.00000000000E+00 0. -1.
<scales pt_clust_5="13000.00000" pt_clust_6="13000.00000" pt_clust_7="13000.00000" pt_clust_8="13000.00000" pt_clust_9="20.89186"></scales>
<clustering>
<clus scale="   20.892">  1  9  2 -1</clus>
<clus scale="   80.050">  5  6 -1 -1</clus>
<clus scale="   95.714">  1  5  2 -1</clus>
<clus scale="  105.468">  7  8 -1 -1</clus>
<clus scale="   20.892">  1  5  2 -1</clus>
</clustering>
</event>
<event>
 9    1  0.1487426E-004  0.1049542E+03  0.7546771E-02  0.1274908E+00
         21   -1    0    0  501  502  0.00000000000E+00  0.00000000000E+00  0.10161339475E+03  0.10161339475E+03  0.00000000000E+00 0. -1.
         -4   -1    0    0    0  501 -0.00000000000E+00 -0.00000000000E+00 -0.30891941532E+03  0.30891941532E+03  0.00000000000E+00 0.  1.
         23    2    1    2    0    0 -0.21152996697E+02  0.45759817803E+02 -0.24121317039E+03  0.26297415427E+03  0.91816131756E+02 0.  0.
        -24    2    1    2    0    0  0.49306188802E+02 -0.33564758013E+02 -0.13422761178E+01  0.10082704190E+03  0.81280978334E+02 0.  0.
         11    1    4    4    0    0  0.27487929027E+02  0.39069033172E+01  0.34701606667E+02  0.44441553090E+02  0.00000000000E+00 0. -1.
        -12    1    4    4    0    0  0.21818259775E+02 -0.37471661331E+02 -0.36043882785E+02  0.56385488813E+02  0.00000000000E+00 0.  1.
        -11    1    3    3    0    0 -0.33593342159E+02  0.20522919056E+02 -0.22890152350E+03  0.23226194330E+03  0.00000000000E+00 0.  1.
         11    1    3    3    0    0  0.12440345462E+02  0.25236898747E+02 -0.12311646885E+02  0.30712210969E+02  0.00000000000E+00 0. -1.
         -3    1    1    2    0  502 -0.28153192104E+02 -0.12195059789E+02  0.35249425932E+02  0.46731613898E+02  0.00000000000E+00 0.  1.
<scales pt_clust_5="13000.00000" pt_clust_6="13000.00000" pt_clust_7="13000.00000" pt_clust_8="13000.00000" pt_clust_9="30.68097"></scales>
<clustering>
<clus scale="   30.681">  1  9  2 -1</clus>
<clus scale="   81.281">  5  6 -1 -1</clus>
<clus scale="   91.816">  7  8 -1 -1</clus>
<clus scale="   95.874">  1  5  2 -1</clus>
<clus scale="   30.681">  1  5  2 -1</clus>
</clustering>
</event>
<event>
 9    1  0.1487426E-004  0.1085798E+03  0.7546771E-02  0.1266992E+00
         21   -1    0    0  501  502  0.00000000000E+00  0.00000000000E+00  0.34795222541E+03  0.34795222541E+03  0.00000000000E+00 0. -1.
         -4   -1    0    0    0  501 -0.00000000000E+00 -0.00000000000E+00 -0.84444607951E+02  0.84444607951E+02  0.00000000000E+00 0.  1.
         23    2    1    2    0    0 -0.19680297100E+02 -0.59792293176E+02 -0.30412743787E+02  0.11261324309E+03  0.88285758294E+02 0.  0.
        -24    2    1    2    0    0  0.40850102969E+02  0.54282112346E+02  0.24924099979E+03  0.27003654902E+03  0.78634491134E+02 0.  0.
         11    1    4    4    0    0  0.36212302374E+02  0.46724863297E+02  0.25342771005E+03  0.26023095111E+03  0.00000000000E+00 0. -1.
        -12    1    4    4    0    0  0.46378005955E+01  0.75572490494E+01 -0.41867102608E+01  0.98055979097E+01  0.00000000000E+00 0.  1.
        -13    1    3    3    0    0 -0.96934367886E+01  0.22515642670E+02 -0.65230902724E+00  0.24522283513E+02  0.00000000000E+00 0. -1.
         13    1    3    3    0    0 -0.99868603118E+01 -0.82307935846E+02 -0.29760434760E+02  0.88090959577E+02  0.00000000000E+00 0.  1.
         -3    1    1    2    0  502 -0.21169805869E+02  0.55101808300E+01  0.44679361463E+02  0.49747041259E+02  0.00000000000E+00 0.  1.
<scales pt_clust_5="13000.00000" pt_clust_6="13000.00000" pt_clust_7="13000.00000" pt_clust_8="13000.00000" pt_clust_9="21.87516"></scales>
<clustering>
<clus scale="   21.875">  1  9  2 -1</clus>
<clus scale="   78.634">  5  6 -1 -1</clus>
<clus scale="   88.286">  7  8 -1 -1</clus>
<clus scale="  100.889">  1  5  2 -1</clus>
<clus scale="   21.875">  1  5  2 -1</clus>
</clustering>
</event>
<event>
 9    1  0.1487426E-004  0.9034026E+02  0.7546771E-02  0.1303007E+00
         -4   -1    0    0    0  501 -0.00000000000E+00  0.00000000000E+00  0.58114778542E+02  0.58114778542E+02  0.00000000000E+00 0.  1.
         21   -1    0    0  501  502  0.00000000000E+00 -0.00000000000E+00 -0.37062346591E+03  0.37062346591E+03  0.00000000000E+00 0. -1.
         23    2    1    2    0    0 -0.14199833308E+02 -0.84726451503E+01  0.44675741329E+01  0.90326579553E+02  0.88687714895E+02 0.  0.
        -24    2    1    2    0    0  0.28043477888E+02 -0.11756447643E+02 -0.22348059485E+03  0.24175607854E+03  0.87050413705E+02 0.  0.
         13    1    4    4    0    0  0.52758097903E+02 -0.29471945485E+02 -0.12796519644E+03  0.14151715078E+03  0.00000000000E+00 0. -1.
        -14    1    4    4    0    0 -0.24714620015E+02  0.17715497841E+02 -0.95515398404E+02  0.10023892776E+03  0.00000000000E+00 0.  1.
        -13    1    3    3    0    0 -0.20015353445E+02  0.31965544325E+02  0.24348663532E+02  0.44891734354E+02  0.00000000000E+00 0.  1.
         13    1    3    3    0    0  0.58155201368E+01 -0.40438189475E+02 -0.19881089400E+02  0.45434845199E+02  0.00000000000E+00 0. -1.
         -3    1    1    2    0  502 -0.13843644579E+02  0.20229092794E+02 -0.93495666651E+02  0.96655586352E+02  0.00000000000E+00 0.  1.
<scales pt_clust_5="13000.00000" pt_clust_6="13000.00000" pt_clust_7="13000.00000" pt_clust_8="13000.00000" pt_clust_9="24.51250"></scales>
<clustering>
<clus scale="   24.513">  2  9  1 -1</clus>
<clus scale="   87.050">  5  6 -1 -1</clus>
<clus scale="   88.688">  7  8 -1 -1</clus>
<clus scale="   88.733">  2  5  1 -1</clus>
<clus scale="   24.513">  2  5  1 -1</clus>
</clustering>
</event>
<event>
 9    1  0.1487426E-004  0.9148437E+02  0.7546771E-02  0.1304548E+00
         21   -1    0    0  501  502  0.00000000000E+00  0.00000000000E+00  0.16568946708E+03  0.16568946708E+03  0.00000000000E+00 0. -1.
          1   -1    0    0  502    0 -0.00000000000E+00 -0.00000000000E+00 -0.42930939006E+03  0.42930939006E+03  0.00000000000E+00 0. -1.
        -24    2    1    2    0    0 -0.16573120732E+02  0.14059754564E+02 -0.35151361237E+03  0.36109049591E+03  0.79700574175E+02 0.  0.
         23    2    1    2    0    0  0.41559228767E+02 -0.26479118157E+01 -0.38129196328E+02  0.10492656610E+03  0.88439627587E+02 0.  0.
         11    1    3    3    0    0  0.12303527705E+02  0.40245222141E+02 -0.14749879817E+03  0.15338497371E+03  0.00000000000E+00 0. -1.
        -12    1    3    3    0    0 -0.28876648437E+02 -0.26185467577E+02 -0.20401481420E+03  0.20770552219E+03  0.00000000000E+00 0.  1.
        -11    1    4    4    0    0 -0.37715764671E+01 -0.37562512588E+02 -0.31936020493E+01  0.37886227511E+02  0.00000000000E+00 0.  1.
         11    1    4    4    0    0  0.45330805234E+02  0.34914600772E+02 -0.34935594278E+02  0.67040338587E+02  0.00000000000E+00 0. -1.
          2    1    1    2  501    0 -0.24986108035E+02 -0.11411842748E+02  0.12602288573E+03  0.12898179514E+03  0.00000000000E+00 0. -1.
<scales pt_clust_5="13000.00000" pt_clust_6="13000.00000" pt_clust_7="13000.00000" pt_clust_8="13000.00000" pt_clust_9="27.46881"></scales>
<clustering>
<clus scale="   27.469">  1  9  2 -1</clus>
<clus scale="   79.701">  5  6 -1 -1</clus>
<clus scale="   83.066">  2  5  1 -1</clus>
<clus scale="   88.440">  7  8 -1 -1</clus>
<clus scale="   27.469">  1  5  2 -1</clus>
</clustering>
</event>
<event>
 9    1  0.2063111E-004  0.1676319E+03  0.7546771E-02  0.1182206E+00
         21   -1    0    0  501  502  0.00000000000E+00  0.00000000000E+00  0.12559757025E+03  0.12559757025E+03  0.00000000000E+00 0. -1.
          1   -1    0    0  502    0 -0.00000000000E+00 -0.00000000000E+00 -0.54090175732E+03  0.54090175732E+03  0.00000000000E+00 0. -1.
        -24    2    1    2    0    0  0.95781383818E+02 -0.92739806318E+02 -0.28214431840E+03  0.32183769429E+03  0.78735886980E+02 0.  0.
         23    2    1    2    0    0 -0.12635678051E+03  0.12185012064E+03  0.69953518409E+01  0.19828625585E+03  0.91951163286E+02 0.  0.
         13    1    3    3    0    0  0.10744557063E+03 -0.89546242460E+02 -0.23789730334E+03  0.27596776465E+03  0.00000000000E+00 0. -1.
        -14    1    3    3    0    0 -0.11664186809E+02 -0.31935638577E+01 -0.44247015061E+02  0.45869929647E+02  0.00000000000E+00 0.  1.
        -13    1    4    4    0    0 -0.30978991163E+02 -0.12429261641E+02  0.32635825803E+01  0.33538566005E+02  0.00000000000E+00 0.  1.
         13    1    4    4    0    0 -0.95377789351E+02  0.13427938228E+03  0.37317692606E+01  0.16474768984E+03  0.00000000000E+00 0. -1.
          2    1    1    2  501    0  0.30575396696E+02 -0.29110314323E+02 -0.14015522050E+03  0.14637537743E+03  0.00000000000E+00 0. -1.
<scales pt_clust_5="13000.00000" pt_clust_6="13000.00000" pt_clust_7="13000.00000" pt_clust_8="13000.00000" pt_clust_9="42.21690"></scales>
<clustering>
<clus scale="   42.217">  1  9  2 -1</clus>
<clus scale="   78.736">  5  6 -1 -1</clus>
<clus scale="   91.951">  7  8 -1 -1</clus>
<clus scale="  160.763">  2  5  1 -1</clus>
<clus scale="   42.217">  1  5  2 -1</clus>
</clustering>
</event>
<event>
 9    1  0.1487426E-004  0.1208020E+03  0.7546771E-02  0.1260282E+00
          1   -1    0    0  502    0 -0.00000000000E+00  0.00000000000E+00  0.41393968604E+03  0.41393968604E+03  0.00000000000E+00 0. -1.
         21   -1    0    0  501  502  0.00000000000E+00 -0.00000000000E+00 -0.74450719062E+02  0.74450719062E+02  0.00000000000E+00 0. -1.
        -24    2    1    2    0    0  0.31820438331E+02 -0.65318933591E+01  0.12194918252E+03  0.14780915764E+03  0.76946332204E+02 0.  0.
         23    2    1    2    0    0  0.64949753865E+02  0.20005291330E+01  0.16665762262E+02  0.11756695161E+03  0.96549302613E+02 0.  0.
         13    1    3    3    0    0  0.46732383438E+02 -0.77176791841E+01  0.12397365419E+03  0.13271377158E+03  0.00000000000E+00 0. -1.
        -14    1    3    3    0    0 -0.14911945107E+02  0.11857858250E+01 -0.20244716700E+01  0.15095386064E+02  0.00000000000E+00 0.  1.
        -13    1    4    4    0    0  0.69238708797E+02  0.37320549244E+02  0.92693870339E+00  0.78661816704E+02  0.00000000000E+00 0. -1.
         13    1    4    4    0    0 -0.42889549321E+01 -0.35320020111E+02  0.15738823559E+02  0.38905134906E+02  0.00000000000E+00 0.  1.
          2    1    1    2  501    0 -0.96770192196E+02  0.45313642260E+01  0.20087402220E+03  0.22301429585E+03  0.00000000000E+00 0. -1.
<scales pt_clust_5="13000.00000" pt_clust_6="13000.00000" pt_clust_7="13000.00000" pt_clust_8="13000.00000" pt_clust_9="72.60414"></scales>
<clustering>
<clus scale="   76.946">  5  6 -1 -1</clus>
<clus scale="   83.522">  1  5  2 -1</clus>
<clus scale="   72.604">  2  9  1 -1</clus>
<clus scale="   96.549">  7  8 -1 -1</clus>
<clus scale="   72.604">  2  5  1 -1</clus>
</clustering>
</event>
<event>
 9    1  0.1487426E-004  0.1025512E+03  0.7546771E-02  0.1281097E+00
         21   -1    0    0  501  502  0.00000000000E+00  0.00000000000E+00  0.44947852124E+02  0.44947852124E+02  0.00000000000E+00 0. -1.
         -4   -1    0    0    0  501 -0.00000000000E+00 -0.00000000000E+00 -0.42792243427E+03  0.42792243427E+03  0.00000000000E+00 0.  1.
        -24    2    1    2    0    0  0.94098604536E+00  0.28809645643E+02 -0.10994414482E+03  0.13889539961E+03  0.79833175529E+02 0.  0.
         23    2    1    2    0    0 -0.84466516578E+01 -0.73501181042E+02 -0.99658636504E+02  0.15477820804E+03  0.92469888700E+02 0.  0.
         13    1    3    3    0    0  0.30566646631E+02 -0.10403700053E+02 -0.63684954700E+02  0.71402593203E+02  0.00000000000E+00 0. -1.
        -14    1    3    3    0    0 -0.29625660586E+02  0.39213345695E+02 -0.46259190122E+02  0.67492806405E+02  0.00000000000E+00 0.  1.
        -13    1    4    4    0    0 -0.50175573551E+02 -0.47858006266E+02 -0.55149218720E+02  0.88596914564E+02  0.00000000000E+00 0. -1.
         13    1    4    4    0    0  0.41728921893E+02 -0.25643174775E+02 -0.44509417785E+02  0.66181293478E+02  0.00000000000E+00 0.  1.
         -3    1    1    2    0  502  0.75056656124E+01  0.44691535399E+02 -0.17337180082E+03  0.17919667874E+03  0.00000000000E+00 0.  1.
<scales pt_clust_5="13000.00000" pt_clust_6="13000.00000" pt_clust_7="13000.00000" pt_clust_8="13000.00000" pt_clust_9="45.31744"></scales>
<clustering>
<clus scale="   45.317">  1  9  2 -1</clus>
<clus scale="   79.833">  5  6 -1 -1</clus>
<clus scale="   91.320">  2  5  1 -1</clus>
<clus scale="   92.470">  7  8 -1 -1</clus>
<clus scale="   45.317">  1  5  2 -1</clus>
</clustering>
</event>
<event>
 9    1  0.1487426E-004  0.1678103E+03  0.7546771E-02  0.1215997E+00
         21   -1    0    0  501  502  0.00000000000E+00  0.00000000000E+00  0.79919958841E+02  0.79919958841E+02  0.00000000000E+00 0. -1.
          1   -1    0    0  502    0 -0.00000000000E+00 -0.00000000000E+00 -0.55243629421E+03  0.55243629421E+03  0.00000000000E+00 0. -1.
        -24    2    1    2    0    0  0.85902597027E+01  0.39549917426E+01 -0.21128854302E+03  0.22482207518E+03  0.76240950651E+02 0.  0.
         23    2    1    2    0    0 -0.83263277099E+02  0.11610564297E+03 -0.11405532478E+03  0.20345000223E+03  0.89274815346E+02 0.  0.
         11    1    3    3    0    0 -0.28101170956E+02 -0.46532657743E+01 -0.15144241807E+03  0.15409780881E+03  0.00000000000E+00 0. -1.
        -12    1    3    3    0    0  0.36691430659E+02  0.86082575169E+01 -0.59846124951E+02  0.70724266365E+02  0.00000000000E+00 0.  1.
        -13    1    4    4    0    0 -0.69709976950E+02  0.22428362692E+02 -0.41353269624E+02  0.84098782678E+02  0.00000000000E+00 0.  1.
         13    1    4    4    0    0 -0.13553300149E+02  0.93677280278E+02 -0.72702055153E+02  0.11935121955E+03  0.00000000000E+00 0. -1.
          2    1    1    2  501    0  0.74673017396E+02 -0.12006063471E+03 -0.14717246757E+03  0.20408417564E+03  0.00000000000E+00 0. -1.
<scales pt_clust_5="13000.00000" pt_clust_6="13000.00000" pt_clust_7="13000.00000" pt_clust_8="13000.00000" pt_clust_9="142.09271"></scales>
<clustering>
<clus scale="   76.241">  5  6 -1 -1</clus>
<clus scale="   76.825">  2  5  1 -1</clus>
<clus scale="   89.275">  7  8 -1 -1</clus>
<clus scale="  142.093">  1  9  2 -1</clus>
<clus scale="  142.093">  1  5  2 -1</clus>
</clustering>
</event>
<event>
 9    1  0.1487426E-004  0.2031530E+03  0.7546771E-02  0.1148527E+00
         21   -1    0    0  501  502  0.00000000000E+00  0.00000000000E+00  0.14825851485E+03  0.14825851485E+03  0.00000000000E+00 0.  1.
          1   -1    0    0  502    0 -0.00000000000E+00 -0.00000000000E+00 -0.78745616325E+03  0.78745616325E+03  0.00000000000E+00 0. -1.
         23    2    1    2    0    0 -0.12242826989E+03  0.13110294059E+03 -0.66633220995E+03  0.69675701048E+03  0.96410867300E+02 0.  0.
        -24    2    1    2    0    0  0.13628200566E+03 -0.11247695840E+03 -0.10478557606E+02  0.19475812080E+03  0.81222375054E+02 0.  0.
         13    1    4    4    0    0  0.93375740790E+02 -0.48701304926E+02  0.27754772158E+02  0.10890901454E+03  0.00000000000E+00 0. -1.
        -14    1    4    4    0    0  0.42906264874E+02 -0.63775653479E+02 -0.38233329764E+02  0.85849106267E+02  0.00000000000E+00 0.  1.
        -11    1    3    3    0    0 -0.32431862846E+02  0.60751776656E+02 -0.41511080136E+03  0.42078448344E+03  0.00000000000E+00 0. -1.
         11    1    3    3    0    0 -0.89996407045E+02  0.70351163938E+02 -0.25122140859E+03  0.27597252704E+03  0.00000000000E+00 0.  1.
          2    1    1    2  501    0 -0.13853735773E+02 -0.18625982189E+02  0.37613119150E+02  0.44199546825E+02  0.00000000000E+00 0. -1.
<scales pt_clust_5="13000.00000" pt_clust_6="13000.00000" pt_clust_7="13000.00000" pt_clust_8="13000.00000" pt_clust_9="23.21321"></scales>
<clustering>
<clus scale="   23.213">  1  9  2 -1</clus>
<clus scale="   81.222">  5  6 -1 -1</clus>
<clus scale="   96.411">  7  8 -1 -1</clus>
<clus scale="  196.401">  1  5  2 -1</clus>
<clus scale="   23.213">  1  5  2 -1</clus>
</clustering>
</event>
<event>
 9    1  0.1487426E-004  0.1292220E+03  0.7546771E-02  0.1231884E+00
          1   -1    0    0  502    0 -0.00000000000E+00  0.00000000000E+00  0.69971029669E+02  0.69971029669E+02  0.00000000000E+00 0. -1.
         21   -1    0    0  501  502  0.00000000000E+00 -0.00000000000E+00 -0.41064212263E+03  0.41064212263E+03  0.00000000000E+00 0.  1.
         23    2    1    2    0    0  0.63923961804E+02 -0.61104519035E+02 -0.28862732481E+02  0.13213792163E+03  0.93847418017E+02 0.  0.
        -24    2    1    2    0    0 -0.44173353453E+02  0.82838251823E+02 -0.27044705278E+03  0.29774851733E+03  0.81848091569E+02 0.  0.
         11    1    4    4    0    0 -0.27925461462E+02 -0.94680669768E+01 -0.84868059779E+02  0.89844661838E+02  0.00000000000E+00 0. -1.
        -12    1    4    4    0    0 -0.16247891991E+02  0.92306318799E+02 -0.18557899300E+03  0.20790385549E+03  0.00000000000E+00 0.  1.
        -11    1    3    3    0    0  0.36547480080E+02 -0.60069416395E+02  0.22583719211E+02  0.73851726179E+02  0.00000000000E+00 0. -1.
         11    1    3    3    0    0  0.27376481724E+02 -0.10351026399E+01 -0.51446451691E+02  0.58286195456E+02  0.00000000000E+00 0.  1.
          2    1    1    2  501    0 -0.19750608351E+02 -0.21733732788E+02 -0.41361307700E+02  0.50726713335E+02  0.00000000000E+00 0. -1.
<scales pt_clust_5="13000.00000" pt_clust_6="13000.00000" pt_clust_7="13000.00000" pt_clust_8="13000.00000" pt_clust_9="29.36736"></scales>
<clustering>
<clus scale="   29.367">  2  9  1 -1</clus>
<clus scale="   81.848">  5  6 -1 -1</clus>
<clus scale="   93.847">  7  8 -1 -1</clus>
<clus scale="  120.790">  2  5  1 -1</clus>
<clus scale="   29.367">  2  5  1 -1</clus>
</clustering>
</event>
<event>
 9    1  0.1487426E-004  0.9309289E+02  0.7546771E-02  0.1303997E+00
         21   -1    0    0  501  502  0.00000000000E+00  0.00000000000E+00  0.95646093682E+02  0.95646093682E+02  0.00000000000E+00 0.  1.
         -2   -1    0    0    0  501 -0.00000000000E+00 -0.00000000000E+00 -0.23969603285E+03  0.23969603285E+03  0.00000000000E+00 0.  1.
        -24    2    1    2    0    0 -0.24976529290E+01  0.97216426966E+01 -0.92866929517E+02  0.12174476555E+03  0.78081833577E+02 0.  0.
         23    2    1    2    0    0 -0.51462173659E+02 -0.36139220408E+02  0.27504494893E+02  0.11459597377E+03  0.91767866903E+02 0.  0.
         11    1    3    3    0    0  0.27440021425E+02 -0.21952460747E+02 -0.41615879543E+02  0.54467850507E+02  0.00000000000E+00 0. -1.
        -12    1    3    3    0    0 -0.29937674354E+02  0.31674103444E+02 -0.51251049973E+02  0.67276915046E+02  0.00000000000E+00 0.  1.
        -13    1    4    4    0    0 -0.32460185174E+02 -0.64467968951E+02  0.23577969419E+01  0.72217323743E+02  0.00000000000E+00 0.  1.
         13    1    4    4    0    0 -0.19001988485E+02  0.28328748543E+02  0.25146697951E+02  0.42378650028E+02  0.00000000000E+00 0. -1.
         -1    1    1    2    0  502  0.53959826588E+02  0.26417577712E+02 -0.78687504542E+02  0.99001387206E+02  0.00000000000E+00 0.  1.
<scales pt_clust_5="13000.00000" pt_clust_6="13000.00000" pt_clust_7="13000.00000" pt_clust_8="13000.00000" pt_clust_9="60.07957"></scales>
<clustering>
<clus scale="   60.080">  1  9  2 -1</clus>
<clus scale="   78.082">  5  6 -1 -1</clus>
<clus scale="   79.635">  2  5  1 -1</clus>
<clus scale="   91.768">  7  8 -1 -1</clus>
<clus scale="   60.080">  1  5  2 -1</clus>
</clustering>
</event>
<event>
 9    1  0.1487426E-004  0.1361508E+03  0.7546771E-02  0.1224223E+00
         21   -1    0    0  501  502  0.00000000000E+00  0.00000000000E+00  0.17608105009E+03  0.17608105009E+03  0.00000000000E+00 0. -1.
          1   -1    0    0  502    0 -0.00000000000E+00 -0.00000000000E+00 -0.25378040160E+03  0.25378040160E+03  0.00000000000E+00 0. -1.
         23    2    1    2    0    0  0.55059524881E+02 -0.78149676793E+02 -0.20452720883E+03  0.24707407014E+03  0.10037576261E+03 0.  0.
        -24    2    1    2    0    0 -0.36862800447E+02  0.61636002323E+02  0.96247159180E+02  0.14355727420E+03  0.78659471682E+02 0.  0.
         11    1    4    4    0    0 -0.36968941790E+02  0.52480326876E+01  0.74099249628E+02  0.82975558447E+02  0.00000000000E+00 0. -1.
        -12    1    4    4    0    0  0.10614134282E+00  0.56387969636E+02  0.22147909552E+02  0.60581715749E+02  0.00000000000E+00 0.  1.
        -13    1    3    3    0    0  0.28760039476E+02 -0.80302911439E+02 -0.20351487451E+03  0.22066717382E+03  0.00000000000E+00 0. -1.
         13    1    3    3    0    0  0.26299485405E+02  0.21532346456E+01 -0.10123343172E+01  0.26406896311E+02  0.00000000000E+00 0.  1.
          2    1    1    2  501    0 -0.18196724435E+02  0.16513674470E+02  0.30580698142E+02  0.39230107360E+02  0.00000000000E+00 0. -1.
<scales pt_clust_5="13000.00000" pt_clust_6="13000.00000" pt_clust_7="13000.00000" pt_clust_8="13000.00000" pt_clust_9="24.57279"></scales>
<clustering>
<clus scale="   24.573">  1  9  2 -1</clus>
<clus scale="   78.659">  5  6 -1 -1</clus>
<clus scale="  100.376">  7  8 -1 -1</clus>
<clus scale="  121.033">  1  5  2 -1</clus>
<clus scale="   24.573">  1  5  2 -1</clus>
</clustering>
</event>
<event>
 9    1  0.1487426E-004  0.1760987E+03  0.7546771E-02  0.1181839E+00
          1   -1    0    0  502    0 -0.00000000000E+00  0.00000000000E+00  0.71461965468E+03  0.71461965468E+03  0.00000000000E+00 0. -1.
         21   -1    0    0  501  502  0.00000000000E+00 -0.00000000000E+00 -0.10817136002E+03  0.10817136002E+03  0.00000000000E+00 0. -1.
        -24    2    1    2    0    0 -0.39744470186E+02 -0.10994379818E+03  0.30793366362E+03  0.33818794497E+03  0.76685613140E+02 0.  0.
         23    2    1    2    0    0  0.64684727490E+02 -0.10548015850E+03  0.72193235908E+02  0.17115311928E+03  0.93655481003E+02 0.  0.
         11    1    3    3    0    0 -0.12067097332E+02 -0.11063470422E+03  0.23067450573E+03  0.25611790295E+03  0.00000000000E+00 0. -1.
        -12    1    3    3    0    0 -0.27677372854E+02  0.69090604543E+00  0.77259157887E+02  0.82070042017E+02  0.00000000000E+00 0.  1.
        -13    1    4    4    0    0  0.19866837550E+02 -0.73260789774E+02 -0.52093513270E+01  0.76085293545E+02  0.00000000000E+00 0.  1.
         13    1    4    4    0    0  0.44817889940E+02 -0.32219368722E+02  0.77402587235E+02  0.95067825736E+02  0.00000000000E+00 0. -1.
          2    1    1    2  501    0 -0.24940257303E+02  0.21542395667E+03  0.22632139513E+03  0.31344995045E+03  0.00000000000E+00 0. -1.
<scales pt_clust_5="13000.00000" pt_clust_6="13000.00000" pt_clust_7="13000.00000" pt_clust_8="13000.00000" pt_clust_9="149.12884"></scales>
<clustering>
<clus scale="   76.686">  5  6 -1 -1</clus>
<clus scale="   93.655">  7  8 -1 -1</clus>
<clus scale="  139.814">  1  5  2 -1</clus>
<clus scale="  149.129">  2  9  1 -1</clus>
<clus scale="  149.129">  2  5  1 -1</clus>
</clustering>
</event>
<event>
 9    1  0.1487426E-004  0.1246339E+03  0.7546771E-02  0.1239422E+00
         21   -1    0    0  501  502  0.00000000000E+00  0.00000000000E+00  0.34368097169E+02  0.34368097169E+02  0.00000000000E+00 0. -1.
          1   -1    0    0  502    0 -0.00000000000E+00 -0.00000000000E+00 -0.51109375924E+03  0.51109375924E+03  0.00000000000E+00 0. -1.
         23    2    1    2    0    0  0.51536084715E+02  0.69750487668E+02 -0.25957198253E+03  0.28867951702E+03  0.91853964926E+02 0.  0.
        -24    2    1    2    0    0 -0.30249800718E+02 -0.77243290898E+02 -0.17957395405E+03  0.21294760711E+03  0.78856210706E+02 0.  0.
         13    1    4    4    0    0  0.27076885976E+01 -0.78509120443E+02 -0.14653770339E+03  0.16626578747E+03  0.00000000000E+00 0. -1.
        -14    1    4    4    0    0 -0.32957489315E+02  0.12658295443E+01 -0.33036250665E+02  0.46681819635E+02  0.00000000000E+00 0.  1.
        -13    1    3    3    0    0  0.64621849122E+02  0.20130046495E+02 -0.97600746121E+02  0.11877334633E+03  0.00000000000E+00 0. -1.
         13    1    3    3    0    0 -0.13085764407E+02  0.49620441173E+02 -0.16197123641E+03  0.16990617068E+03  0.00000000000E+00 0.  1.
          2    1    1    2  501    0 -0.21286283997E+02  0.74928032298E+01 -0.37579725488E+02  0.43834732284E+02  0.00000000000E+00 0. -1.
<scales pt_clust_5="13000.00000" pt_clust_6="13000.00000" pt_clust_7="13000.00000" pt_clust_8="13000.00000" pt_clust_9="22.56652"></scales>
<clustering>
<clus scale="   22.567">  1  9  2 -1</clus>
<clus scale="   78.856">  5  6 -1 -1</clus>
<clus scale="   91.854">  7  8 -1 -1</clus>
<clus scale="  115.390">  1  5  2 -1</clus>
<clus scale="   22.567">  1  5  2 -1</clus>
</clustering>
</event>
<event>
 9    1  0.1487426E-004  0.2101650E+03  0.7546771E-02  0.1141587E+00
          1   -1    0    0  502    0 -0.00000000000E+00  0.00000000000E+00  0.90047202130E+03  0.90047202130E+03  0.00000000000E+00 0. -1.
         21   -1    0    0  501  502  0.00000000000E+00 -0.00000000000E+00 -0.76809310657E+02  0.76809310657E+02  0.00000000000E+00 0.  1.
         23    2    1    2    0    0  0.46462339415E+02 -0.18456086944E+03  0.55145124849E+03  0.59067856558E+03  0.92634900854E+02 0.  0.
        -24    2    1    2    0    0 -0.10064586065E+03  0.15918352002E+03  0.18214281958E+03  0.27847217768E+03  0.94349163808E+02 0.  0.
         11    1    4    4    0    0 -0.65759949487E+02  0.16013599559E+03  0.16664010935E+03  0.24028490191E+03  0.00000000000E+00 0. -1.
        -12    1    4    4    0    0 -0.34885911158E+02 -0.95247557290E+00  0.15502710227E+02  0.38187275779E+02  0.00000000000E+00 0.  1.
        -13    1    3    3    0    0  0.22243142199E+02 -0.76592194534E+02  0.11190530736E+03  0.13741877402E+03  0.00000000000E+00 0.  1.
         13    1    3    3    0    0  0.24219197216E+02 -0.10796867491E+03  0.43954594113E+03  0.45325979155E+03  0.00000000000E+00 0. -1.
          2    1    1    2  501    0  0.54183521230E+02  0.25377349423E+02  0.90068642580E+02  0.10813058870E+03  0.00000000000E+00 0. -1.
<scales pt_clust_5="13000.00000" pt_clust_6="13000.00000" pt_clust_7="13000.00000" pt_clust_8="13000.00000" pt_clust_9="59.83196"></scales>
<clustering>
<clus scale="   59.832">  2  9  1 -1</clus>
<clus scale="   92.635">  7  8 -1 -1</clus>
<clus scale="   94.349">  5  6 -1 -1</clus>
<clus scale="  209.401">  1  7  2 -1</clus>
<clus scale="   59.832">  2  5  1 -1</clus>
</clustering>
</event>
<event>
 9    1  0.1487426E-004  0.9833194E+02  0.7546771E-02  0.1289539E+00
          1   -1    0    0  502    0 -0.00000000000E+00  0.00000000000E+00  0.22056031765E+03  0.22056031765E+03  0.00000000000E+00 0. -1.
         21   -1    0    0  501  502  0.00000000000E+00 -0.00000000000E+00 -0.16324367779E+03  0.16324367779E+03  0.00000000000E+00 0.  1.
        -24    2    1    2    0    0 -0.39156848399E+02 -0.58100828341E+01  0.18423734408E+03  0.20471286914E+03  0.79980897722E+02 0.  0.
         23    2    1    2    0    0  0.18418889776E+02 -0.16551442640E+02 -0.82639035247E+02  0.12532341335E+03  0.90904026500E+02 0.  0.
         13    1    3    3    0    0 -0.24628092641E+02 -0.42653857578E+02  0.11144974986E+03  0.12184802525E+03  0.00000000000E+00 0. -1.
        -14    1    3    3    0    0 -0.14528755758E+02  0.36843774744E+02  0.72787594218E+02  0.82864843892E+02  0.00000000000E+00 0.  1.
        -13    1    4    4    0    0 -0.25770620374E+02 -0.68647036775E+01 -0.74797856557E+02  0.79410127670E+02  0.00000000000E+00 0.  1.
         13    1    4    4    0    0  0.44189510150E+02 -0.96867389620E+01 -0.78411786902E+01  0.45913285684E+02  0.00000000000E+00 0. -1.
          2    1    1    2  501    0  0.20737958622E+02  0.22361525474E+02 -0.44281668969E+02  0.53767712951E+02  0.00000000000E+00 0. -1.
<scales pt_clust_5="13000.00000" pt_clust_6="13000.00000" pt_clust_7="13000.00000" pt_clust_8="13000.00000" pt_clust_9="30.49755"></scales>
<clustering>
<clus scale="   30.498">  2  9  1 -1</clus>
<clus scale="   79.981">  5  6 -1 -1</clus>
<clus scale="   88.332">  1  5  2 -1</clus>
<clus scale="   90.904">  7  8 -1 -1</clus>
<clus scale="   30.498">  2  5  1 -1</clus>
</clustering>
</event>
<event>
 9    1  0.1487426E-004  0.1149589E+03  0.7546771E-02  0.1256450E+00
         21   -1    0    0  501  502  0.00000000000E+00  0.00000000000E+00  0.38287762469E+03  0.38287762469E+03  0.00000000000E+00 0.  1.
         -4   -1    0    0    0  501 -0.00000000000E+00 -0.00000000000E+00 -0.13271745329E+03  0.13271745329E+03  0.00000000000E+00 0.  1.
        -24    2    1    2    0    0 -0.69362647875E+02  0.36118259918E+02 -0.56421751950E+02  0.12369572910E+03  0.77469437095E+02 0.  0.
         23    2    1    2    0    0  0.61383448414E+02  0.12514201612E+02  0.35086533794E+02  0.11596723678E+03  0.91064824004E+02 0.  0.
         13    1    3    3    0    0 -0.21528313778E+02 -0.20732276394E+02 -0.35706535258E+02  0.46564495474E+02  0.00000000000E+00 0. -1.
        -14    1    3    3    0    0 -0.47834334097E+02  0.56850536312E+02 -0.20715216692E+02  0.77131233622E+02  0.00000000000E+00 0.  1.
        -11    1    4    4    0    0  0.40635284713E+00 -0.33896355638E+02  0.11176715463E+02  0.35693795213E+02  0.00000000000E+00 0.  1.
         11    1    4    4    0    0  0.60977095567E+02  0.46410557250E+02  0.23909818330E+02  0.80273441565E+02  0.00000000000E+00 0. -1.
         -3    1    1    2    0  502  0.79791994605E+01 -0.48632461530E+02  0.27149538956E+03  0.27593211211E+03  0.00000000000E+00 0.  1.
<scales pt_clust_5="13000.00000" pt_clust_6="13000.00000" pt_clust_7="13000.00000" pt_clust_8="13000.00000" pt_clust_9="49.28269"></scales>
<clustering>
<clus scale="   49.283">  1  9  2 -1</clus>
<clus scale="   77.469">  5  6 -1 -1</clus>
<clus scale="   91.065">  7  8 -1 -1</clus>
<clus scale="  104.519">  2  5  1 -1</clus>
<clus scale="   49.283">  1  5  2 -1</clus>
</clustering>
</event>
<event>
 9    1  0.1487426E-004  0.9782291E+02  0.7546771E-02  0.1290762E+00
         21   -1    0    0  501  502  0.00000000000E+00  0.00000000000E+00  0.11601117705E+03  0.11601117705E+03  0.00000000000E+00 0. -1.
          1   -1    0    0  502    0 -0.00000000000E+00 -0.00000000000E+00 -0.17649177855E+03  0.17649177855E+03  0.00000000000E+00 0. -1.
         23    2    1    2    0    0  0.40426200657E+02 -0.26347840242E+02 -0.76479232290E+02  0.12886399932E+03  0.91806159732E+02 0.  0.
        -24    2    1    2    0    0 -0.52316538099E+01  0.23658543208E+02 -0.43078806415E+02  0.94820121401E+02  0.80919558774E+02 0.  0.
         11    1    4    4    0    0  0.34082098547E+02  0.84521500927E-01 -0.35065032696E+01  0.34262109544E+02  0.00000000000E+00 0. -1.
        -12    1    4    4    0    0 -0.39313752357E+02  0.23574021707E+02 -0.39572303145E+02  0.60558011857E+02  0.00000000000E+00 0.  1.
        -11    1    3    3    0    0 -0.13456128837E+02 -0.44786105493E+02 -0.34841249112E+02  0.58316166611E+02  0.00000000000E+00 0.  1.
         11    1    3    3    0    0  0.53882329494E+02  0.18438265251E+02 -0.41637983179E+02  0.70547832712E+02  0.00000000000E+00 0. -1.
          2    1    1    2  501    0 -0.35194546847E+02  0.26892970339E+01  0.59077437203E+02  0.68818834870E+02  0.00000000000E+00 0. -1.
<scales pt_clust_5="13000.00000" pt_clust_6="13000.00000" pt_clust_7="13000.00000" pt_clust_8="13000.00000" pt_clust_9="35.29715"></scales>
<clustering>
<clus scale="   35.297">  1  9  2 -1</clus>
<clus scale="   80.920">  5  6 -1 -1</clus>
<clus scale="   87.687">  1  5  2 -1</clus>
<clus scale="   91.806">  7  8 -1 -1</clus>
<clus scale="   35.297">  1  5  2 -1</clus>
</clustering>
</event>
<event>
 9    1  0.1487426E-004  0.1489545E+03  0.7546771E-02  0.1216945E+00
         21   -1    0    0  501  502  0.00000000000E+00  0.00000000000E+00  0.80393646923E+02  0.80393646923E+02  0.00000000000E+00 0. -1.
          1   -1    0    0  502    0 -0.00000000000E+00 -0.00000000000E+00 -0.10242552759E+04  0.10242552759E+04  0.00000000000E+00 0. -1.
        -24    2    1    2    0    0  0.31792436386E+02 -0.63980857080E+02 -0.43457909541E+03  0.44771895302E+03  0.80554091410E+02 0.  0.
         23    2    1    2    0    0  0.80060810054E+02 -0.72595170768E+02 -0.27648792133E+02  0.14396289385E+03  0.91000367992E+02 0.  0.
         13    1    3    3    0    0  0.27938988051E+02 -0.78913531248E+02 -0.41171827207E+03  0.42014267580E+03  0.00000000000E+00 0. -1.
        -14    1    3    3    0    0  0.38534483347E+01  0.14932674168E+02 -0.22860823338E+02  0.27576277224E+02  0.00000000000E+00 0.  1.
        -11    1    4    4    0    0  0.30021355497E+02 -0.27639296425E+02 -0.57385532177E+02  0.70415280983E+02  0.00000000000E+00 0.  1.
         11    1    4    4    0    0  0.50039454557E+02 -0.44955874343E+02  0.29736740044E+02  0.73547612870E+02  0.00000000000E+00 0. -1.
          2    1    1    2  501    0 -0.11185324644E+03  0.13657602785E+03 -0.48163374145E+03  0.51296707597E+03  0.00000000000E+00 0. -1.
<scales pt_clust_5="13000.00000" pt_clust_6="13000.00000" pt_clust_7="13000.00000" pt_clust_8="13000.00000" pt_clust_9="117.92542"></scales>
<clustering>
<clus scale="   80.554">  5  6 -1 -1</clus>
<clus scale="   91.000">  7  8 -1 -1</clus>
<clus scale="  107.672">  2  5  1 -1</clus>
<clus scale="  117.925">  1  9  2 -1</clus>
<clus scale="  117.925">  1  5  2 -1</clus>
</clustering>
</event>
<event>
 9    1  0.1487426E-004  0.1340298E+03  0.7546771E-02  0.1224191E+00
         21   -1    0    0  501  502  0.00000000000E+00  0.00000000000E+00  0.27548878415E+03  0.27548878415E+03  0.00000000000E+00 0.  1.
         -2   -1    0    0    0  501 -0.00000000000E+00 -0.00000000000E+00 -0.15279813918E+03  0.15279813918E+03  0.00000000000E+00 0.  1.
        -24    2    1    2    0    0 -0.51304033461E+02 -0.10533946357E+03 -0.59966582401E+02  0.15373339866E+03  0.79432112035E+02 0.  0.
         23    2    1    2    0    0  0.45556636015E+02  0.16710073347E+02  0.14616336352E+03  0.17853267544E+03  0.90308104446E+02 0.  0.
         11    1    3    3    0    0  0.17386241962E+01 -0.56289128983E+02  0.50470427799E+01  0.56541679287E+02  0.00000000000E+00 0. -1.
        -12    1    3    3    0    0 -0.53042657657E+02 -0.49050334589E+02 -0.65013625181E+02  0.97191719368E+02  0.00000000000E+00 0.  1.
        -13    1    4    4    0    0  0.33242544344E+02 -0.26573842759E+02  0.11801159268E+03  0.12545107365E+03  0.00000000000E+00 0.  1.
         13    1    4    4    0    0  0.12314091671E+02  0.43283916106E+02  0.28151770838E+02  0.53081601789E+02  0.00000000000E+00 0. -1.
         -1    1    1    2    0  502  0.57473974465E+01  0.88629390225E+02  0.36493863858E+02  0.96020849238E+02  0.00000000000E+00 0.  1.
<scales pt_clust_5="13000.00000" pt_clust_6="13000.00000" pt_clust_7="13000.00000" pt_clust_8="13000.00000" pt_clust_9="88.81555"></scales>
<clustering>
<clus scale="   79.432">  5  6 -1 -1</clus>
<clus scale="   88.816">  1  9  2 -1</clus>
<clus scale="   90.308">  7  8 -1 -1</clus>
<clus scale="  126.956">  2  5  1 -1</clus>
<clus scale="   88.816">  1  5  2 -1</clus>
</clustering>
</event>
<event>
 9    1  0.1487426E-004  0.1012082E+03  0.7546771E-02  0.1278616E+00
          1   -1    0    0  502    0 -0.00000000000E+00  0.00000000000E+00  0.86911761824E+02  0.86911761824E+02  0.00000000000E+00 0. -1.
         21   -1    0    0  501  502  0.00000000000E+00 -0.00000000000E+00 -0.22757069921E+03  0.22757069921E+03  0.00000000000E+00 0.  1.
        -24    2    1    2    0    0 -0.61506609034E+02  0.29240312621E+01  0.24593201331E+02  0.10608621098E+03  0.82812110797E+02 0.  0.
         23    2    1    2    0    0  0.35077803101E+02 -0.18711424441E+02 -0.10452270398E+03  0.14030963015E+03  0.84742120524E+02 0.  0.
         13    1    3    3    0    0 -0.74617220412E+02  0.20797637611E+02  0.30332862546E+02  0.83188664267E+02  0.00000000000E+00 0. -1.
        -14    1    3    3    0    0  0.13110611378E+02 -0.17873606349E+02 -0.57396612156E+01  0.22897546713E+02  0.00000000000E+00 0.  1.
        -13    1    4    4    0    0  0.37425369502E+01 -0.41187898633E+02 -0.90098902945E+02  0.99137590694E+02  0.00000000000E+00 0.  1.
         13    1    4    4    0    0  0.31335266151E+02  0.22476474192E+02 -0.14423801037E+02  0.41172039459E+02  0.00000000000E+00 0. -1.
          2    1    1    2  501    0  0.26428805933E+02  0.15787393179E+02 -0.60729434733E+02  0.68086619900E+02  0.00000000000E+00 0. -1.
<scales pt_clust_5="13000.00000" pt_clust_6="13000.00000" pt_clust_7="13000.00000" pt_clust_8="13000.00000" pt_clust_9="30.78512"></scales>
<clustering>
<clus scale="   30.785">  2  9  1 -1</clus>
<clus scale="   82.812">  5  6 -1 -1</clus>
<clus scale="   84.742">  7  8 -1 -1</clus>
<clus scale="   99.598">  1  5  2 -1</clus>
<clus scale="   30.785">  2  5  1 -1</clus>
</clustering>
</event>
<event>
 9    1  0.1487426E-004  0.9310588E+02  0.7546771E-02  0.1300932E+00
          1   -1    0    0  502    0 -0.00000000000E+00  0.00000000000E+00  0.19277609412E+03  0.19277609412E+03  0.00000000000E+00 0. -1.
         21   -1    0    0  501  502  0.00000000000E+00 -0.00000000000E+00 -0.63125157303E+02  0.63125157303E+02  0.00000000000E+00 0.  1.
        -24    2    1    2    0    0 -0.22299834808E+02 -0.23133854397E+02  0.76606367919E+02  0.11605143795E+03  0.81036675606E+02 0.  0.
         23    2    1    2    0    0  0.14304402215E+02 -0.85777732667E+01  0.21175390911E+02  0.94185836673E+02  0.90246221708E+02 0.  0.
         11    1    3    3    0    0  0.14174137881E+02  0.20892518256E+02  0.74511673368E+01  0.26323438196E+02  0.00000000000E+00 0. -1.
        -12    1    3    3    0    0 -0.36473972690E+02 -0.44026372653E+02  0.69155200582E+02  0.89727999757E+02  0.00000000000E+00 0.  1.
        -13    1    4    4    0    0  0.16848098314E+02 -0.48465462402E+02  0.16738393152E+02  0.53971596863E+02  0.00000000000E+00 0.  1.
         13    1    4    4    0    0 -0.25436960991E+01  0.39887689135E+02  0.44369977594E+01  0.40214239810E+02  0.00000000000E+00 0. -1.
          2    1    1    2  501    0  0.79954325930E+01  0.31711627664E+02  0.31869177988E+02  0.45663976799E+02  0.00000000000E+00 0. -1.
<scales pt_clust_5="13000.00000" pt_clust_6="13000.00000" pt_clust_7="13000.00000" pt_clust_8="13000.00000" pt_clust_9="32.70406"></scales>
<clustering>
<clus scale="   32.704">  2  9  1 -1</clus>
<clus scale="   81.037">  5  6 -1 -1</clus>
<clus scale="   84.210">  1  5  2 -1</clus>
<clus scale="   90.246">  7  8 -1 -1</clus>
<clus scale="   32.704">  2  5  1 -1</clus>
</clustering>
</event>
<event>
 9    1  0.1487426E-004  0.1009472E+03  0.7546771E-02  0.1291442E+00
          3   -1    0    0  502    0 -0.00000000000E+00  0.00000000000E+00  0.10947514763E+03  0.10947514763E+03  0.00000000000E+00 0. -1.
         21   -1    0    0  501  502  0.00000000000E+00 -0.00000000000E+00 -0.17938194406E+03  0.17938194406E+03  0.00000000000E+00 0.  1.
         23    2    1    2    0    0 -0.30946438845E+02  0.34187943150E+02  0.64175029743E+02  0.12121788561E+03  0.91917592525E+02 0.  0.
        -24    2    1    2    0    0  0.37799936554E+01 -0.28960612776E+02 -0.98934128309E+02  0.12291000542E+03  0.66827406379E+02 0.  0.
         11    1    4    4    0    0  0.11962888133E+02 -0.25995226915E+02 -0.55846214170E+01  0.29155625722E+02  0.00000000000E+00 0. -1.
        -12    1    4    4    0    0 -0.81828944780E+01 -0.29653858608E+01 -0.93349506892E+02  0.93754379697E+02  0.00000000000E+00 0.  1.
        -11    1    3    3    0    0  0.30939688075E+02  0.11223694075E+02  0.37835411278E+02  0.50147322496E+02  0.00000000000E+00 0. -1.
         11    1    3    3    0    0 -0.61886126920E+02  0.22964249075E+02  0.26339618465E+02  0.71070563116E+02  0.00000000000E+00 0.  1.
          4    1    1    2  501    0  0.27166445189E+02 -0.52273303741E+01 -0.35147697861E+02  0.44729200664E+02  0.00000000000E+00 0. -1.
<scales pt_clust_5="13000.00000" pt_clust_6="13000.00000" pt_clust_7="13000.00000" pt_clust_8="13000.00000" pt_clust_9="27.66479"></scales>
<clustering>
<clus scale="   27.665">  2  9  1 -1</clus>
<clus scale="   66.827">  5  6 -1 -1</clus>
<clus scale="   78.787">  2  5  1 -1</clus>
<clus scale="   91.918">  7  8 -1 -1</clus>
<clus scale="   27.665">  2  5  1 -1</clus>
</clustering>
</event>
<event>
 9    1  0.1487426E-004  0.1450349E+03  0.7546771E-02  0.1212176E+00
          1   -1    0    0  502    0 -0.00000000000E+00  0.00000000000E+00  0.94088384423E+03  0.94088384423E+03  0.00000000000E+00 0. -1.
         21   -1    0    0  501  502  0.00000000000E+00 -0.00000000000E+00 -0.13036947375E+03  0.13036947375E+03  0.00000000000E+00 0. -1.
         23    2    1    2    0    0 -0.43810626104E+02  0.84955240224E+02 -0.66656955010E+01  0.12921540847E+03  0.86691559502E+02 0.  0.
        -24    2    1    2    0    0 -0.11642838512E+03 -0.70771603398E+01  0.43044008489E+02  0.14766509303E+03  0.79665161596E+02 0.  0.
         13    1    4    4    0    0 -0.81814275205E+02 -0.26854775310E+02  0.59363082401E+02  0.10458838433E+03  0.00000000000E+00 0. -1.
        -14    1    4    4    0    0 -0.34614109912E+02  0.19777614970E+02 -0.16319073912E+02  0.43076708698E+02  0.00000000000E+00 0.  1.
        -11    1    3    3    0    0  0.69182740117E+01  0.61569061731E+02  0.22851409367E+02  0.66036344446E+02  0.00000000000E+00 0.  1.
         11    1    3    3    0    0 -0.50728900116E+02  0.23386178494E+02 -0.29517104868E+02  0.63179064027E+02  0.00000000000E+00 0. -1.
          2    1    1    2  501    0  0.16023901122E+03 -0.77878079884E+02  0.77413605749E+03  0.79437281648E+03  0.00000000000E+00 0. -1.
<scales pt_clust_5="13000.00000" pt_clust_6="13000.00000" pt_clust_7="13000.00000" pt_clust_8="13000.00000" pt_clust_9="121.19653"></scales>
<clustering>
<clus scale="   79.665">  5  6 -1 -1</clus>
<clus scale="   86.692">  7  8 -1 -1</clus>
<clus scale="  129.043">  1  7  2 -1</clus>
<clus scale="  121.197">  2  9  1 -1</clus>
<clus scale="  121.197">  2  5  1 -1</clus>
</clustering>
</event>
<event>
 9    1  0.1487426E-004  0.9984923E+02  0.7546771E-02  0.1285694E+00
         21   -1    0    0  501  502  0.00000000000E+00  0.00000000000E+00  0.25973418569E+03  0.25973418569E+03  0.00000000000E+00 0. -1.
          1   -1    0    0  502    0 -0.00000000000E+00 -0.00000000000E+00 -0.87878385822E+02  0.87878385822E+02  0.00000000000E+00 0. -1.
        -24    2    1    2    0    0 -0.30555378355E+02  0.28995246110E+02  0.21144300810E+00  0.90267727291E+02  0.79836473111E+02 0.  0.
         23    2    1    2    0    0  0.13356926998E+02 -0.46009320634E+02  0.20261513855E+02  0.10404112405E+03  0.90104170085E+02 0.  0.
         11    1    3    3    0    0  0.16393057544E+02  0.14111226974E+02 -0.26525873555E+02  0.34226905063E+02  0.00000000000E+00 0. -1.
        -12    1    3    3    0    0 -0.46948435899E+02  0.14884019135E+02  0.26737316563E+02  0.56040822228E+02  0.00000000000E+00 0.  1.
        -11    1    4    4    0    0 -0.34285205297E+02 -0.36572892716E+02 -0.29392896809E+01  0.50216443599E+02  0.00000000000E+00 0.  1.
         11    1    4    4    0    0  0.47642132294E+02 -0.94364279174E+01  0.23200803536E+02  0.53824680455E+02  0.00000000000E+00 0. -1.
          2    1    1    2  501    0  0.17198451357E+02  0.17014074524E+02  0.15138284300E+03  0.15330372016E+03  0.00000000000E+00 0. -1.
<scales pt_clust_5="13000.00000" pt_clust_6="13000.00000" pt_clust_7="13000.00000" pt_clust_8="13000.00000" pt_clust_9="24.19226"></scales>
<clustering>
<clus scale="   24.192">  1  9  2 -1</clus>
<clus scale="   79.836">  5  6 -1 -1</clus>
<clus scale="   90.104">  7  8 -1 -1</clus>
<clus scale="   90.692">  2  5  1 -1</clus>
<clus scale="   24.192">  1  5  2 -1</clus>
</clustering>
</event>
<event>
 9    1  0.1487426E-004  0.1349424E+03  0.7546771E-02  0.1222613E+00
          1   -1    0    0  502    0 -0.00000000000E+00  0.00000000000E+00  0.73719110823E+02  0.73719110823E+02  0.00000000000E+00 0. -1.
         21   -1    0    0  501  502  0.00000000000E+00 -0.00000000000E+00 -0.33421446240E+03  0.33421446240E+03  0.00000000000E+00 0.  1.
         23    2    1    2    0    0  0.10202098818E+02  0.10742735574E+03 -0.47092778721E+02  0.14885934223E+03  0.91085972471E+02 0.  0.
        -24    2    1    2    0    0  0.65108822451E+01 -0.84984638492E+02 -0.15894184631E+03  0.19784539767E+03  0.81335788586E+02 0.  0.
         13    1    4    4    0    0 -0.21798459335E+00 -0.31156850549E+02 -0.13593966342E+01  0.31187254009E+02  0.00000000000E+00 0. -1.
        -14    1    4    4    0    0  0.67288668385E+01 -0.53827787943E+02 -0.15758244968E+03  0.16665814367E+03  0.00000000000E+00 0.  1.
        -13    1    3    3    0    0 -0.22642020027E+02  0.10497919620E+03 -0.28812446199E+02  0.11119105073E+03  0.00000000000E+00 0. -1.
         13    1    3    3    0    0  0.32844118845E+02  0.24481595385E+01 -0.18280332521E+02  0.37668291505E+02  0.00000000000E+00 0.  1.
          2    1    1    2  501    0 -0.16712981063E+02 -0.22442717248E+02 -0.54460726542E+02  0.61228833314E+02  0.00000000000E+00 0. -1.
<scales pt_clust_5="13000.00000" pt_clust_6="13000.00000" pt_clust_7="13000.00000" pt_clust_8="13000.00000" pt_clust_9="27.98212"></scales>
<clustering>
<clus scale="   27.982">  2  9  1 -1</clus>
<clus scale="   81.336">  5  6 -1 -1</clus>
<clus scale="   91.086">  7  8 -1 -1</clus>
<clus scale="  128.563">  2  5  1 -1</clus>
<clus scale="   27.982">  2  5  1 -1</clus>
</clustering>
</event>
<event>
 9    1  0.1487426E-004  0.3670816E+03  0.7546771E-02  0.1055814E+00
         -4   -1    0    0    0  501 -0.00000000000E+00  0.00000000000E+00  0.50567674617E+03  0.50567674617E+03  0.00000000000E+00 0.  1.
         21   -1    0    0  501  502  0.00000000000E+00 -0.00000000000E+00 -0.21874920217E+03  0.21874920217E+03  0.00000000000E+00 0. -1.
        -24    2    1    2    0    0 -0.13267097782E+03 -0.20326160070E+03  0.11739145061E+03  0.28122423286E+03  0.79934034024E+02 0.  0.
         23    2    1    2    0    0 -0.34680024076E+02 -0.39486534943E+02  0.59975636303E+01  0.10604023205E+03  0.91905764409E+02 0.  0.
         13    1    3    3    0    0 -0.14313344570E+03 -0.19038427700E+03  0.11487698061E+03  0.26444295582E+03  0.00000000000E+00 0. -1.
        -14    1    3    3    0    0  0.10462467880E+02 -0.12877323702E+02  0.25144700053E+01  0.16781277045E+02  0.00000000000E+00 0.  1.
        -13    1    4    4    0    0  0.50633296324E+01 -0.47557893604E+02  0.32291697147E+02  0.57707402087E+02  0.00000000000E+00 0. -1.
         13    1    4    4    0    0 -0.39743353708E+02  0.80713586613E+01 -0.26294133516E+02  0.48332829960E+02  0.00000000000E+00 0.  1.
         -3    1    1    2    0  502  0.16735100190E+03  0.24274813565E+03  0.16353852976E+03  0.33716148344E+03  0.00000000000E+00 0.  1.
<scales pt_clust_5="13000.00000" pt_clust_6="13000.00000" pt_clust_7="13000.00000" pt_clust_8="13000.00000" pt_clust_9="294.84420"></scales>
<clustering>
<clus scale="   79.934">  5  6 -1 -1</clus>
<clus scale="   91.906">  7  8 -1 -1</clus>
<clus scale="   99.920">  5  7 -1 -1</clus>
<clus scale="  294.844">  2  9  1 -1</clus>
<clus scale="  294.844">  2  5  1 -1</clus>
</clustering>
</event>
<event>
 9    1  0.1487426E-004  0.1023847E+03  0.7546771E-02  0.1282519E+00
         21   -1    0    0  501  502  0.00000000000E+00  0.00000000000E+00  0.18610384256E+03  0.18610384256E+03  0.00000000000E+00 0. -1.
          3   -1    0    0  502    0 -0.00000000000E+00 -0.00000000000E+00 -0.44964385317E+03  0.44964385317E+03  0.00000000000E+00 0. -1.
         23    2    1    2    0    0 -0.30010961261E+01  0.37490825180E+02 -0.31183420440E+03  0.32735341933E+03  0.92223215934E+02 0.  0.
        -24    2    1    2    0    0  0.20203654768E+02 -0.59301344747E+02 -0.10957703842E+03  0.14809782371E+03  0.77466127332E+02 0.  0.
         13    1    4    4    0    0  0.36381619599E+02 -0.68692593797E+02 -0.71234506223E+02  0.10543552326E+03  0.00000000000E+00 0. -1.
        -14    1    4    4    0    0 -0.16177964831E+02  0.93912490495E+01 -0.38342532198E+02  0.42662300455E+02  0.00000000000E+00 0.  1.
        -13    1    3    3    0    0 -0.30953597327E+02  0.57383881981E+02 -0.21081521617E+03  0.22066737518E+03  0.00000000000E+00 0.  1.
         13    1    3    3    0    0  0.27952501201E+02 -0.19893056801E+02 -0.10101898823E+03  0.10668604414E+03  0.00000000000E+00 0. -1.
          4    1    1    2  501    0 -0.17202558642E+02  0.21810519567E+02  0.15787123221E+03  0.16029645270E+03  0.00000000000E+00 0. -1.
<scales pt_clust_5="13000.00000" pt_clust_6="13000.00000" pt_clust_7="13000.00000" pt_clust_8="13000.00000" pt_clust_9="27.77817"></scales>
<clustering>
<clus scale="   27.778">  1  9  2 -1</clus>
<clus scale="   77.466">  5  6 -1 -1</clus>
<clus scale="   89.323">  1  5  2 -1</clus>
<clus scale="   92.223">  7  8 -1 -1</clus>
<clus scale="   27.778">  1  5  2 -1</clus>
</clustering>
</event>
<event>
 9    1  0.1487426E-004  0.1667269E+03  0.7546771E-02  0.1211259E+00
         21   -1    0    0  501  502  0.00000000000E+00  0.00000000000E+00  0.12103667054E+03  0.12103667054E+03  0.00000000000E+00 0. -1.
          1   -1    0    0  502    0 -0.00000000000E+00 -0.00000000000E+00 -0.38160467343E+03  0.38160467343E+03  0.00000000000E+00 0. -1.
        -24    2    1    2    0    0  0.82086097377E+01  0.37285582505E+02 -0.29875687217E+02  0.91626328413E+02  0.77751086393E+02 0.  0.
         23    2    1    2    0    0  0.12899574901E+03 -0.66767488251E+02 -0.20769889771E+03  0.26880771584E+03  0.89559785802E+02 0.  0.
         11    1    3    3    0    0 -0.22223820330E+01  0.60196250756E+02 -0.27872651301E+02  0.66373279846E+02  0.00000000000E+00 0. -1.
        -12    1    3    3    0    0  0.10430991771E+02 -0.22910668252E+02 -0.20030359162E+01  0.25253048567E+02  0.00000000000E+00 0.  1.
        -11    1    4    4    0    0  0.87640090358E+02 -0.34511750480E+01 -0.14970305533E+03  0.17350418099E+03  0.00000000000E+00 0. -1.
         11    1    4    4    0    0  0.41355658648E+02 -0.63316313203E+02 -0.57995842385E+02  0.95303534844E+02  0.00000000000E+00 0.  1.
          2    1    1    2  501    0 -0.13720435874E+03  0.29481905747E+02 -0.22993417961E+02  0.14220729972E+03  0.00000000000E+00 0. -1.
<scales pt_clust_5="13000.00000" pt_clust_6="13000.00000" pt_clust_7="13000.00000" pt_clust_8="13000.00000" pt_clust_9="140.63042"></scales>
<clustering>
<clus scale="   77.751">  5  6 -1 -1</clus>
<clus scale="   86.619">  2  5  1 -1</clus>
<clus scale="   89.560">  7  8 -1 -1</clus>
<clus scale="  140.630">  1  9  2 -1</clus>
<clus scale="  140.630">  1  5  2 -1</clus>
</clustering>
</event>
<event>
 9    1  0.3435049E-004  0.9401540E+02  0.7546771E-02  0.1298996E+00
          1   -1    0    0  502    0 -0.00000000000E+00  0.00000000000E+00  0.46723487975E+03  0.46723487975E+03  0.00000000000E+00 0. -1.
         21   -1    0    0  501  502  0.00000000000E+00 -0.00000000000E+00 -0.19282876959E+03  0.19282876959E+03  0.00000000000E+00 0. -1.
         23    2    1    2    0    0 -0.58919665520E+01  0.28913158039E+02  0.44002430902E+03  0.45006833412E+03  0.89829988680E+02 0.  0.
        -24    2    1    2    0    0  0.14032516365E+01  0.62338822624E+00 -0.59597348892E+02  0.99845522868E+02  0.80093237628E+02 0.  0.
         11    1    4    4    0    0  0.35813283279E+02  0.13710671558E+02 -0.13068412736E+02  0.40513666648E+02  0.00000000000E+00 0. -1.
        -12    1    4    4    0    0 -0.34410031643E+02 -0.13087283332E+02 -0.46528936157E+02  0.59331856220E+02  0.00000000000E+00 0.  1.
        -11    1    3    3    0    0  0.74028164769E+01  0.60140114448E+02  0.28633695496E+03  0.29267812838E+03  0.00000000000E+00 0. -1.
         11    1    3    3    0    0 -0.13294783029E+02 -0.31226956409E+02  0.15368735407E+03  0.15739020574E+03  0.00000000000E+00 0.  1.
          2    1    1    2  501    0  0.44887149155E+01 -0.29536546265E+02 -0.10602084998E+03  0.11014979236E+03  0.00000000000E+00 0. -1.
<scales pt_clust_5="13000.00000" pt_clust_6="13000.00000" pt_clust_7="13000.00000" pt_clust_8="13000.00000" pt_clust_9="29.87568"></scales>
<clustering>
<clus scale="   29.876">  2  9  1 -1</clus>
<clus scale="   80.093">  5  6 -1 -1</clus>
<clus scale="   84.761">  2  5  1 -1</clus>
<clus scale="   89.830">  7  8 -1 -1</clus>
<clus scale="   29.876">  2  5  1 -1</clus>
</clustering>
</event>
<event>
 9    1  0.1487426E-004  0.1653743E+03  0.7546771E-02  0.1186489E+00
          1   -1    0    0  502    0 -0.00000000000E+00  0.00000000000E+00  0.63030151934E+03  0.63030151934E+03  0.00000000000E+00 0. -1.
         21   -1    0    0  501  502  0.00000000000E+00 -0.00000000000E+00 -0.94236404558E+02  0.94236404558E+02  0.00000000000E+00 0.  1.
        -24    2    1    2    0    0 -0.12068452131E+03 -0.53650818587E+02  0.46453302850E+03  0.48822375038E+03  0.71612372146E+02 0.  0.
         23    2    1    2    0    0  0.15017603507E+03  0.19226177483E+02  0.62235585953E+02  0.19004074467E+03  0.96538743857E+02 0.  0.
         13    1    3    3    0    0 -0.11237947385E+03 -0.69598452431E+02  0.40384123680E+03  0.42492450537E+03  0.00000000000E+00 0. -1.
        -14    1    3    3    0    0 -0.83050474618E+01  0.15947633844E+02  0.60691791706E+02  0.63299245011E+02  0.00000000000E+00 0.  1.
        -11    1    4    4    0    0  0.26335889023E+02 -0.24135450240E+02  0.45375666905E+02  0.57749893126E+02  0.00000000000E+00 0. -1.
         11    1    4    4    0    0  0.12384014605E+03  0.43361627723E+02  0.16859919048E+02  0.13229085155E+03  0.00000000000E+00 0.  1.
          2    1    1    2  501    0 -0.29491513758E+02  0.34424641104E+02  0.92965003236E+01  0.46273428846E+02  0.00000000000E+00 0. -1.
<scales pt_clust_5="13000.00000" pt_clust_6="13000.00000" pt_clust_7="13000.00000" pt_clust_8="13000.00000" pt_clust_9="45.32996"></scales>
<clustering>
<clus scale="   45.330">  2  9  1 -1</clus>
<clus scale="   71.612">  5  6 -1 -1</clus>
<clus scale="   96.539">  7  8 -1 -1</clus>
<clus scale="  152.175">  1  5  2 -1</clus>
<clus scale="   45.330">  2  5  1 -1</clus>
</clustering>
</event>
<event>
 9    1  0.2059334E-004  0.9563081E+02  0.7546771E-02  0.1292115E+00
         21   -1    0    0  501  502  0.00000000000E+00  0.00000000000E+00  0.11621489111E+03  0.11621489111E+03  0.00000000000E+00 0.  1.
          1   -1    0    0  502    0 -0.00000000000E+00 -0.00000000000E+00 -0.77481194902E+03  0.77481194902E+03  0.00000000000E+00 0. -1.
        -24    2    1    2    0    0 -0.34571117870E+02  0.27839587977E+01 -0.43067949425E+03  0.44047644816E+03  0.85625708766E+02 0.  0.
         23    2    1    2    0    0 -0.23588899701E+02 -0.30071966649E+02  0.85938590808E+02  0.13018667880E+03  0.90013168925E+02 0.  0.
         11    1    3    3    0    0 -0.40548434977E+02  0.22469868235E+02 -0.11311121892E+03  0.12224245745E+03  0.00000000000E+00 0. -1.
        -12    1    3    3    0    0  0.59773171064E+01 -0.19685909437E+02 -0.31756827533E+03  0.31823399071E+03  0.00000000000E+00 0.  1.
        -13    1    4    4    0    0 -0.38742628829E+02 -0.47510674611E+02  0.87715825317E+02  0.10701551991E+03  0.00000000000E+00 0. -1.
         13    1    4    4    0    0  0.15153729128E+02  0.17438707962E+02 -0.17772345086E+01  0.23171158892E+02  0.00000000000E+00 0.  1.
          2    1    1    2  501    0  0.58160017571E+02  0.27288007851E+02 -0.31385615447E+03  0.32036371317E+03  0.00000000000E+00 0. -1.
<scales pt_clust_5="13000.00000" pt_clust_6="13000.00000" pt_clust_7="13000.00000" pt_clust_8="13000.00000" pt_clust_9="64.24350"></scales>
<clustering>
<clus scale="   64.243">  1  9  2 -1</clus>
<clus scale="   85.626">  5  6 -1 -1</clus>
<clus scale="   90.013">  7  8 -1 -1</clus>
<clus scale="   91.513">  2  5  1 -1</clus>
<clus scale="   64.243">  1  5  2 -1</clus>
</clustering>
</event>
<event>
 9    1  0.1487426E-004  0.1847838E+03  0.7546771E-02  0.1174203E+00
          1   -1    0    0  502    0 -0.00000000000E+00  0.00000000000E+00  0.66800032408E+03  0.66800032408E+03  0.00000000000E+00 0. -1.
         21   -1    0    0  501  502  0.00000000000E+00 -0.00000000000E+00 -0.10882622981E+03  0.10882622981E+03  0.00000000000E+00 0. -1.
        -24    2    1    2    0    0 -0.10801416075E+03 -0.52182495685E+02  0.24694922788E+03  0.28574496986E+03  0.79222439176E+02 0.  0.
         23    2    1    2    0    0 -0.70274477119E+02  0.11101507217E+03  0.24390221161E+03  0.29129145514E+03  0.89997636772E+02 0.  0.
         11    1    3    3    0    0 -0.11217183714E+03 -0.30690871185E+02  0.23112602660E+03  0.25873478852E+03  0.00000000000E+00 0. -1.
        -12    1    3    3    0    0  0.41576763971E+01 -0.21491624500E+02  0.15823201285E+02  0.27010181332E+02  0.00000000000E+00 0.  1.
        -13    1    4    4    0    0 -0.19339743667E+02  0.54595423317E+02  0.32005532233E+02  0.66174315454E+02  0.00000000000E+00 0. -1.
         13    1    4    4    0    0 -0.50934733452E+02  0.56419648855E+02  0.21189667938E+03  0.22511713968E+03  0.00000000000E+00 0.  1.
          2    1    1    2  501    0  0.17828863787E+03 -0.58832576487E+02  0.68322654776E+02  0.19979012889E+03  0.00000000000E+00 0. -1.
<scales pt_clust_5="13000.00000" pt_clust_6="13000.00000" pt_clust_7="13000.00000" pt_clust_8="13000.00000" pt_clust_9="161.38611"></scales>
<clustering>
<clus scale="   79.222">  5  6 -1 -1</clus>
<clus scale="   89.998">  7  8 -1 -1</clus>
<clus scale="  143.758">  1  5  2 -1</clus>
<clus scale="  161.386">  2  9  1 -1</clus>
<clus scale="  161.386">  2  5  1 -1</clus>
</clustering>
</event>
<event>
 9    1  0.1487426E-004  0.1364896E+03  0.7546771E-02  0.1241386E+00
         21   -1    0    0  501  502  0.00000000000E+00  0.00000000000E+00  0.92485731226E+02  0.92485731226E+02  0.00000000000E+00 0. -1.
          1   -1    0    0  502    0 -0.00000000000E+00 -0.00000000000E+00 -0.70180405488E+03  0.70180405488E+03  0.00000000000E+00 0. -1.
        -24    2    1    2    0    0  0.25507052885E+02 -0.13672802641E+02 -0.20744938847E+03  0.22396972028E+03  0.79307197324E+02 0.  0.
         23    2    1    2    0    0  0.82543734361E+02  0.55295309426E+02  0.16500678402E+02  0.13622268128E+03  0.91724081793E+02 0.  0.
         13    1    3    3    0    0  0.50942511219E+02 -0.11966708774E+02 -0.92960981428E+02  0.10667748420E+03  0.00000000000E+00 0. -1.
        -14    1    3    3    0    0 -0.25435458334E+02 -0.17060938671E+01 -0.11448840704E+03  0.11729223607E+03  0.00000000000E+00 0.  1.
        -11    1    4    4    0    0  0.53232848465E+02 -0.10873253194E+02 -0.16360049069E+02  0.56741651335E+02  0.00000000000E+00 0.  1.
         11    1    4    4    0    0  0.29310885896E+02  0.66168562620E+02  0.32860727472E+02  0.79481029945E+02  0.00000000000E+00 0. -1.
          2    1    1    2  501    0 -0.10805078725E+03 -0.41622506784E+02 -0.41836961359E+03  0.43409738454E+03  0.00000000000E+00 0. -1.
<scales pt_clust_5="13000.00000" pt_clust_6="13000.00000" pt_clust_7="13000.00000" pt_clust_8="13000.00000" pt_clust_9="101.07473"></scales>
<clustering>
<clus scale="   79.307">  5  6 -1 -1</clus>
<clus scale="   84.423">  2  5  1 -1</clus>
<clus scale="   91.724">  7  8 -1 -1</clus>
<clus scale="  101.075">  1  9  2 -1</clus>
<clus scale="  101.075">  1  5  2 -1</clus>
</clustering>
</event>
<event>
 9    1  0.1487426E-004  0.9401172E+02  0.7546771E-02  0.1296425E+00
         -2   -1    0    0    0  501 -0.00000000000E+00  0.00000000000E+00  0.13854474629E+03  0.13854474629E+03  0.00000000000E+00 0.  1.
         21   -1    0    0  501  502  0.00000000000E+00 -0.00000000000E+00 -0.35171559214E+03  0.35171559214E+03  0.00000000000E+00 0.  1.
         23    2    1    2    0    0 -0.55290647225E+01 -0.13472821555E+02  0.90631486962E+02  0.13021098403E+03  0.92351212527E+02 0.  0.
        -24    2    1    2    0    0 -0.37376341567E+02  0.38736179726E+02 -0.77792951941E+02  0.12862042060E+03  0.87143483375E+02 0.  0.
         11    1    4    4    0    0 -0.10900298045E+02 -0.28240537832E+02 -0.26098158485E+02  0.39968216758E+02  0.00000000000E+00 0. -1.
        -12    1    4    4    0    0 -0.26476043522E+02  0.66976717558E+02 -0.51694793456E+02  0.88652203841E+02  0.00000000000E+00 0.  1.
        -13    1    3    3    0    0 -0.46349350456E+02  0.18914600930E+00  0.27797310117E+02  0.54046170204E+02  0.00000000000E+00 0.  1.
         13    1    3    3    0    0  0.40820285734E+02 -0.13661967564E+02  0.62834176845E+02  0.76164813825E+02  0.00000000000E+00 0. -1.
         -1    1    1    2    0  502  0.42905406290E+02 -0.25263358171E+02 -0.22600938088E+03  0.23142893380E+03  0.00000000000E+00 0.  1.
<scales pt_clust_5="13000.00000" pt_clust_6="13000.00000" pt_clust_7="13000.00000" pt_clust_8="13000.00000" pt_clust_9="49.79067"></scales>
<clustering>
<clus scale="   49.791">  2  9  1 -1</clus>
<clus scale="   87.143">  5  6 -1 -1</clus>
<clus scale="   88.901">  2  5  1 -1</clus>
<clus scale="   92.351">  7  8 -1 -1</clus>
<clus scale="   49.791">  2  5  1 -1</clus>
</clustering>
</event>
<event>
 9    1  0.1487426E-004  0.9332377E+02  0.7546771E-02  0.1302632E+00
         21   -1    0    0  501  502  0.00000000000E+00  0.00000000000E+00  0.54219823651E+02  0.54219823651E+02  0.00000000000E+00 0.  1.
         -4   -1    0    0    0  501 -0.00000000000E+00 -0.00000000000E+00 -0.22545194187E+03  0.22545194187E+03  0.00000000000E+00 0.  1.
        -24    2    1    2    0    0 -0.78020407043E+01 -0.40415599123E+01 -0.93183850390E+02  0.12266884404E+03  0.79291924422E+02 0.  0.
         23    2    1    2    0    0  0.36842942248E+02 -0.11747158626E+02 -0.42038259875E+02  0.10812165443E+03  0.91802389590E+02 0.  0.
         11    1    3    3    0    0 -0.29729522848E+02 -0.32506263738E+01 -0.32334806938E+01  0.30080998953E+02  0.00000000000E+00 0. -1.
        -12    1    3    3    0    0  0.21927482144E+02 -0.79093353854E+00 -0.89950369696E+02  0.92587845086E+02  0.00000000000E+00 0.  1.
        -13    1    4    4    0    0  0.18919943047E+02  0.40313926412E+02 -0.17671533516E+02  0.47910959127E+02  0.00000000000E+00 0.  1.
         13    1    4    4    0    0  0.17922999202E+02 -0.52061085038E+02 -0.24366726359E+02  0.60210695305E+02  0.00000000000E+00 0. -1.
         -3    1    1    2    0  502 -0.29040901544E+02  0.15788718538E+02 -0.36010007949E+02  0.48881267046E+02  0.00000000000E+00 0.  1.
<scales pt_clust_5="13000.00000" pt_clust_6="13000.00000" pt_clust_7="13000.00000" pt_clust_8="13000.00000" pt_clust_9="33.05539"></scales>
<clustering>
<clus scale="   33.055">  1  9  2 -1</clus>
<clus scale="   79.292">  5  6 -1 -1</clus>
<clus scale="   81.048">  2  5  1 -1</clus>
<clus scale="   91.802">  7  8 -1 -1</clus>
<clus scale="   33.055">  1  5  2 -1</clus>
</clustering>
</event>
<event>
 9    1  0.1487426E-004  0.1817703E+03  0.7546771E-02  0.1169032E+00
          1   -1    0    0  502    0 -0.00000000000E+00  0.00000000000E+00  0.85250956087E+03  0.85250956087E+03  0.00000000000E+00 0. -1.
         21   -1    0    0  501  502  0.00000000000E+00 -0.00000000000E+00 -0.12652458654E+03  0.12652458654E+03  0.00000000000E+00 0. -1.
         23    2    1    2    0    0  0.42156283602E+02  0.14717331041E+03  0.74050446473E+03  0.76314286386E+03  0.10297102905E+03 0.  0.
        -24    2    1    2    0    0 -0.53137291269E+02 -0.12163134429E+03  0.35085680084E+02  0.15902611405E+03  0.80253002224E+02 0.  0.
         13    1    4    4    0    0 -0.60920336881E+02 -0.59942234652E+02  0.44142049320E+02  0.96191888738E+02  0.00000000000E+00 0. -1.
        -14    1    4    4    0    0  0.77830456118E+01 -0.61689109640E+02 -0.90563692355E+01  0.62834225315E+02  0.00000000000E+00 0.  1.
        -13    1    3    3    0    0  0.21377983924E+02 -0.11129514341E+02  0.12242291541E+03  0.12477281156E+03  0.00000000000E+00 0.  1.
         13    1    3    3    0    0  0.20778299678E+02  0.15830282475E+03  0.61808154932E+03  0.63837005230E+03  0.00000000000E+00 0. -1.
          2    1    1    2  501    0  0.10981007667E+02 -0.25541966117E+02 -0.49605170490E+02  0.56865169497E+02  0.00000000000E+00 0. -1.
<scales pt_clust_5="13000.00000" pt_clust_6="13000.00000" pt_clust_7="13000.00000" pt_clust_8="13000.00000" pt_clust_9="27.80242"></scales>
<clustering>
<clus scale="   27.802">  2  9  1 -1</clus>
<clus scale="   80.253">  5  6 -1 -1</clus>
<clus scale="  102.971">  7  8 -1 -1</clus>
<clus scale="  169.935">  2  5  1 -1</clus>
<clus scale="   27.802">  2  5  1 -1</clus>
</clustering>
</event>
<event>
 9    1  0.1487426E-004  0.1206960E+03  0.7546771E-02  0.1243439E+00
          3   -1    0    0  502    0 -0.00000000000E+00  0.00000000000E+00  0.11197960094E+03  0.11197960094E+03  0.00000000000E+00 0. -1.
         21   -1    0    0  501  502  0.00000000000E+00 -0.00000000000E+00 -0.29356742445E+03  0.29356742445E+03  0.00000000000E+00 0.  1.
         23    2    1    2    0    0 -0.83248272800E+02  0.27283418441E+02  0.20765223062E+02  0.12617597368E+03  0.88399785060E+02 0.  0.
        -24    2    1    2    0    0  0.74680864424E+02  0.40169091607E+02 -0.15954089778E+03  0.19902105679E+03  0.83458346204E+02 0.  0.
         13    1    4    4    0    0  0.89408588645E+02  0.29867624450E+02 -0.10268563001E+03  0.13939264444E+03  0.00000000000E+00 0. -1.
        -14    1    4    4    0    0 -0.14727724221E+02  0.10301467156E+02 -0.56855267774E+02  0.59628412355E+02  0.00000000000E+00 0.  1.
        -13    1    3    3    0    0 -0.88999988809E+02  0.47249480194E+02  0.65034073528E+01  0.10097428234E+03  0.00000000000E+00 0.  1.
         13    1    3    3    0    0  0.57517160097E+01 -0.19966061753E+02  0.14261815709E+02  0.25201691338E+02  0.00000000000E+00 0. -1.
          4    1    1    2  501    0  0.85674083759E+01 -0.67452510048E+02 -0.42812148792E+02  0.80349994911E+02  0.00000000000E+00 0. -1.
<scales pt_clust_5="13000.00000" pt_clust_6="13000.00000" pt_clust_7="13000.00000" pt_clust_8="13000.00000" pt_clust_9="67.99442"></scales>
<clustering>
<clus scale="   67.994">  2  9  1 -1</clus>
<clus scale="   83.458">  5  6 -1 -1</clus>
<clus scale="   88.400">  7  8 -1 -1</clus>
<clus scale="  117.125">  2  5  1 -1</clus>
<clus scale="   67.994">  2  5  1 -1</clus>
</clustering>
</event>
<event>
 9    1  0.1487426E-004  0.1682114E+03  0.7546771E-02  0.1204298E+00
          1   -1    0    0  502    0 -0.00000000000E+00  0.00000000000E+00  0.67269335910E+03  0.67269335910E+03  0.00000000000E+00 0. -1.
         21   -1    0    0  501  502  0.00000000000E+00 -0.00000000000E+00 -0.83694115901E+02  0.83694115901E+02  0.00000000000E+00 0. -1.
         23    2    1    2    0    0 -0.14728756428E+02 -0.22275587179E+02  0.12605957099E+03  0.15962123522E+03  0.94206078592E+02 0.  0.
        -24    2    1    2    0    0  0.67933578123E+02  0.15904103040E+03  0.39091107282E+03  0.43329251517E+03  0.70865481448E+02 0.  0.
         11    1    4    4    0    0  0.30403542025E+02  0.12108243122E+03  0.20642997980E+03  0.24124399905E+03  0.00000000000E+00 0. -1.
        -12    1    4    4    0    0  0.37530036098E+02  0.37958599178E+02  0.18448109302E+03  0.19204851612E+03  0.00000000000E+00 0.  1.
        -13    1    3    3    0    0 -0.42045544437E+02  0.75719599099E+01  0.10636016066E+03  0.11461957145E+03  0.00000000000E+00 0. -1.
         13    1    3    3    0    0  0.27316788009E+02 -0.29847547089E+02  0.19699410331E+02  0.45001663767E+02  0.00000000000E+00 0.  1.
          2    1    1    2  501    0 -0.53204821695E+02 -0.13676544322E+03  0.72028599386E+02  0.16347372462E+03  0.00000000000E+00 0. -1.
<scales pt_clust_5="13000.00000" pt_clust_6="13000.00000" pt_clust_7="13000.00000" pt_clust_8="13000.00000" pt_clust_9="152.55539"></scales>
<clustering>
<clus scale="   70.865">  5  6 -1 -1</clus>
<clus scale="   94.206">  7  8 -1 -1</clus>
<clus scale="   97.918">  1  7  2 -1</clus>
<clus scale="  152.555">  2  9  1 -1</clus>
<clus scale="  152.555">  2  5  1 -1</clus>
</clustering>
</event>
<event>
 9    1  0.1487426E-004  0.1361239E+03  0.7546771E-02  0.1222531E+00
          1   -1    0    0  502    0 -0.00000000000E+00  0.00000000000E+00  0.29471821483E+03  0.29471821483E+03  0.00000000000E+00 0. -1.
         21   -1    0    0  501  502  0.00000000000E+00 -0.00000000000E+00 -0.90459334808E+02  0.90459334808E+02  0.00000000000E+00 0. -1.
         23    2    1    2    0    0  0.89769740821E+02  0.15455539145E+02  0.12648558352E+03  0.18079443215E+03  0.91599911589E+02 0.  0.
        -24    2    1    2    0    0 -0.12138681555E+03 -0.89835284919E+01  0.28842475144E+02  0.14576783266E+03  0.74839226948E+02 0.  0.
         11    1    4    4    0    0 -0.75676187034E+02  0.46608251112E+01  0.52793482348E+02  0.92389178766E+02  0.00000000000E+00 0. -1.
        -12    1    4    4    0    0 -0.45710628520E+02 -0.13644353603E+02 -0.23951007204E+02  0.53378653889E+02  0.00000000000E+00 0.  1.
        -13    1    3    3    0    0  0.54589148449E+02  0.10194684637E+02  0.68157273325E+01  0.55949627902E+02  0.00000000000E+00 0. -1.
         13    1    3    3    0    0  0.35180592372E+02  0.52608545084E+01  0.11966985618E+03  0.12484480425E+03  0.00000000000E+00 0.  1.
          2    1    1    2  501    0  0.31617074732E+02 -0.64720106530E+01  0.48930821366E+02  0.58615284833E+02  0.00000000000E+00 0. -1.
<scales pt_clust_5="13000.00000" pt_clust_6="13000.00000" pt_clust_7="13000.00000" pt_clust_8="13000.00000" pt_clust_9="32.27270"></scales>
<clustering>
<clus scale="   32.273">  2  9  1 -1</clus>
<clus scale="   74.839">  5  6 -1 -1</clus>
<clus scale="   91.600">  7  8 -1 -1</clus>
<clus scale="  125.459">  2  5  1 -1</clus>
<clus scale="   32.273">  2  5  1 -1</clus>
</clustering>
</event>
<event>
 9    1  0.1487426E-004  0.1818478E+03  0.7546771E-02  0.1166999E+00
          1   -1    0    0  502    0 -0.00000000000E+00  0.00000000000E+00  0.15764763913E+04  0.15764763913E+04  0.00000000000E+00 0. -1.
         21   -1    0    0  501  502  0.00000000000E+00 -0.00000000000E+00 -0.14525381920E+03  0.14525381920E+03  0.00000000000E+00 0.  1.
        -24    2    1    2    0    0  0.13258723447E+03 -0.64189288975E+02  0.48328370509E+03  0.51189757477E+03  0.82318575581E+02 0.  0.
         23    2    1    2    0    0 -0.27091017714E+03 -0.28707683626E+01  0.39428158993E+02  0.28840874069E+03  0.90688789813E+02 0.  0.
         13    1    3    3    0    0  0.63704872714E+02 -0.42264151783E+02  0.36775380254E+03  0.37561606544E+03  0.00000000000E+00 0. -1.
        -14    1    3    3    0    0  0.68882361758E+02 -0.21925137191E+02  0.11552990255E+03  0.13628150933E+03  0.00000000000E+00 0.  1.
        -11    1    4    4    0    0 -0.61753954434E+02 -0.22390033741E+02  0.42649722419E+02  0.78318984426E+02  0.00000000000E+00 0. -1.
         11    1    4    4    0    0 -0.20915622270E+03  0.19519265378E+02 -0.32215634255E+01  0.21008975627E+03  0.00000000000E+00 0.  1.
          2    1    1    2  501    0  0.13832294267E+03  0.67060057337E+02  0.90851070797E+03  0.92142389499E+03  0.00000000000E+00 0. -1.
<scales pt_clust_5="13000.00000" pt_clust_6="13000.00000" pt_clust_7="13000.00000" pt_clust_8="13000.00000" pt_clust_9="153.72154"></scales>
<clustering>
<clus scale="   82.319">  5  6 -1 -1</clus>
<clus scale="   90.689">  7  8 -1 -1</clus>
<clus scale="  153.722">  2  9  1 -1</clus>
<clus scale="  177.822">  1  5  2 -1</clus>
<clus scale="  153.722">  2  5  1 -1</clus>
</clustering>
</event>
<event>
 9    1  0.1487426E-004  0.1911740E+03  0.7546771E-02  0.1158921E+00
         21   -1    0    0  501  502  0.00000000000E+00  0.00000000000E+00  0.56188301809E+03  0.56188301809E+03  0.00000000000E+00 0.  1.
         -4   -1    0    0    0  501 -0.00000000000E+00 -0.00000000000E+00 -0.10360373580E+03  0.10360373580E+03  0.00000000000E+00 0.  1.
        -24    2    1    2    0    0 -0.17754504275E+03  0.47423749098E+01  0.90069420310E+02  0.21310675502E+03  0.75876585545E+02 0.  0.
         23    2    1    2    0    0  0.14344279081E+03 -0.49871221051E+01  0.38004767439E+03  0.41628072891E+03  0.90844398990E+02 0.  0.
         13    1    3    3    0    0 -0.11154781152E+03  0.10228157572E+02  0.15023558596E+02  0.11301874524E+03  0.00000000000E+00 0. -1.
        -14    1    3    3    0    0 -0.65997231235E+02 -0.54857826622E+01  0.75045861714E+02  0.10008800978E+03  0.00000000000E+00 0.  1.
        -13    1    4    4    0    0  0.42811845645E+02  0.28752680411E+02  0.20657259963E+03  0.21291268087E+03  0.00000000000E+00 0.  1.
         13    1    4    4    0    0  0.10063094516E+03 -0.33739802516E+02  0.17347507476E+03  0.20336804803E+03  0.00000000000E+00 0. -1.
         -3    1    1    2    0  502  0.34102251948E+02  0.24474719529E+00 -0.11837812409E+02  0.36099269962E+02  0.00000000000E+00 0.  1.
<scales pt_clust_5="13000.00000" pt_clust_6="13000.00000" pt_clust_7="13000.00000" pt_clust_8="13000.00000" pt_clust_9="34.10315"></scales>
<clustering>
<clus scale="   34.103">  1  9  2 -1</clus>
<clus scale="   75.877">  5  6 -1 -1</clus>
<clus scale="   90.844">  7  8 -1 -1</clus>
<clus scale="  184.532">  2  5  1 -1</clus>
<clus scale="   34.103">  1  5  2 -1</clus>
</clustering>
</event>
<event>
 9    1  0.1487426E-004  0.1076437E+03  0.7546771E-02  0.1270156E+00
          1   -1    0    0  502    0 -0.00000000000E+00  0.00000000000E+00  0.15539507081E+03  0.15539507081E+03  0.00000000000E+00 0. -1.
         21   -1    0    0  501  502  0.00000000000E+00 -0.00000000000E+00 -0.11604661431E+03  0.11604661431E+03  0.00000000000E+00 0.  1.
         23    2    1    2    0    0 -0.39403463553E+02  0.28156813454E+02  0.47098780162E+02  0.11306615445E+03  0.90665435009E+02 0.  0.
        -24    2    1    2    0    0  0.33635048747E+02 -0.73501996503E+02 -0.53703510888E+01  0.11260300065E+03  0.78209558816E+02 0.  0.
         13    1    4    4    0    0  0.37202210363E+01 -0.41432626435E+02  0.33955052357E+02  0.53697748169E+02  0.00000000000E+00 0. -1.
        -14    1    4    4    0    0  0.29914827711E+02 -0.32069370069E+02 -0.39325403446E+02  0.58905252480E+02  0.00000000000E+00 0.  1.
        -13    1    3    3    0    0 -0.66506783594E+02  0.30674727460E+02  0.44554580775E+02  0.85727485889E+02  0.00000000000E+00 0. -1.
         13    1    3    3    0    0  0.27103320040E+02 -0.25179140065E+01  0.25441993865E+01  0.27338668561E+02  0.00000000000E+00 0.  1.
          2    1    1    2  501    0  0.57684148062E+01  0.45345183050E+02 -0.23799725782E+01  0.45772530022E+02  0.00000000000E+00 0. -1.
<scales pt_clust_5="13000.00000" pt_clust_6="13000.00000" pt_clust_7="13000.00000" pt_clust_8="13000.00000" pt_clust_9="45.71061"></scales>
<clustering>
<clus scale="   45.711">  2  9  1 -1</clus>
<clus scale="   78.210">  5  6 -1 -1</clus>
<clus scale="   90.665">  7  8 -1 -1</clus>
<clus scale="   97.384">  2  5  1 -1</clus>
<clus scale="   45.711">  2  5  1 -1</clus>
</clustering>
</event>
<event>
 9    1  0.1487426E-004  0.1804358E+03  0.7546771E-02  0.1177788E+00
          1   -1    0    0  502    0 -0.00000000000E+00  0.00000000000E+00  0.44840483543E+03  0.44840483543E+03  0.00000000000E+00 0. -1.
         21   -1    0    0  501  502  0.00000000000E+00 -0.00000000000E+00 -0.38498596419E+03  0.38498596419E+03  0.00000000000E+00 0. -1.
        -24    2    1    2    0    0 -0.10051699443E+03  0.62771764129E+02 -0.18220530633E+03  0.23123116387E+03  0.78899410342E+02 0.  0.
         23    2    1    2    0    0  0.17417514873E+03  0.75789316199E+02  0.35386658733E+03  0.41152617607E+03  0.89728641368E+02 0.  0.
         13    1    3    3    0    0 -0.11321218157E+03  0.55184514722E+02 -0.15050146213E+03  0.19624734094E+03  0.00000000000E+00 0. -1.
        -14    1    3    3    0    0  0.12695187149E+02  0.75872494066E+01 -0.31703844198E+02  0.34983822936E+02  0.00000000000E+00 0.  1.
        -13    1    4    4    0    0  0.10873584532E+03  0.33610792691E+00  0.16012284518E+03  0.19355341014E+03  0.00000000000E+00 0. -1.
         13    1    4    4    0    0  0.65439303403E+02  0.75453208272E+02  0.19374374214E+03  0.21797276593E+03  0.00000000000E+00 0.  1.
          2    1    1    2  501    0 -0.73658154302E+02 -0.13856108033E+03 -0.10824240976E+03  0.19063345967E+03  0.00000000000E+00 0. -1.
<scales pt_clust_5="13000.00000" pt_clust_6="13000.00000" pt_clust_7="13000.00000" pt_clust_8="13000.00000" pt_clust_9="156.54347"></scales>
<clustering>
<clus scale="   78.899">  5  6 -1 -1</clus>
<clus scale="   89.729">  7  8 -1 -1</clus>
<clus scale="  142.370">  1  5  2 -1</clus>
<clus scale="  156.543">  2  9  1 -1</clus>
<clus scale="  156.543">  2  5  1 -1</clus>
</clustering>
</event>
<event>
 9    1  0.1487426E-004  0.1376509E+03  0.7546771E-02  0.1219614E+00
         -4   -1    0    0    0  501 -0.00000000000E+00  0.00000000000E+00  0.42174536982E+03  0.42174536982E+03  0.00000000000E+00 0.  1.
         21   -1    0    0  501  502  0.00000000000E+00 -0.00000000000E+00 -0.13794631606E+03  0.13794631606E+03  0.00000000000E+00 0.  1.
        -24    2    1    2    0    0  0.13477216160E+02 -0.10423103080E+03  0.30659839973E+03  0.33381871862E+03  0.79916300280E+02 0.  0.
         23    2    1    2    0    0 -0.82887204914E+01  0.66819993577E+02 -0.91826367692E+02  0.14718856015E+03  0.93267229008E+02 0.  0.
         13    1    3    3    0    0 -0.19296090290E+02 -0.86252130537E+01  0.17105134921E+02  0.27190421868E+02  0.00000000000E+00 0. -1.
        -14    1    3    3    0    0  0.32773306449E+02 -0.95605817742E+02  0.28949326481E+03  0.30662829675E+03  0.00000000000E+00 0.  1.
        -11    1    4    4    0    0 -0.45799246294E+02  0.61513637651E+02 -0.55170039932E+02  0.94473445392E+02  0.00000000000E+00 0.  1.
         11    1    4    4    0    0  0.37510525803E+02  0.53063559263E+01 -0.36656327760E+02  0.52715114759E+02  0.00000000000E+00 0. -1.
         -3    1    1    2    0  502 -0.51884956682E+01  0.37411037218E+02  0.69027021726E+02  0.78684407105E+02  0.00000000000E+00 0.  1.
<scales pt_clust_5="13000.00000" pt_clust_6="13000.00000" pt_clust_7="13000.00000" pt_clust_8="13000.00000" pt_clust_9="37.76914"></scales>
<clustering>
<clus scale="   37.769">  2  9  1 -1</clus>
<clus scale="   79.916">  5  6 -1 -1</clus>
<clus scale="   93.267">  7  8 -1 -1</clus>
<clus scale="  128.979">  1  5  2 -1</clus>
<clus scale="   37.769">  2  5  1 -1</clus>
</clustering>
</event>
<event>
 9    1  0.1487426E-004  0.3653512E+03  0.7546771E-02  0.1056485E+00
          1   -1    0    0  502    0 -0.00000000000E+00  0.00000000000E+00  0.96463552723E+03  0.96463552723E+03  0.00000000000E+00 0. -1.
         21   -1    0    0  501  502  0.00000000000E+00 -0.00000000000E+00 -0.24610067711E+03  0.24610067711E+03  0.00000000000E+00 0.  1.
        -24    2    1    2    0    0  0.15224942532E+03 -0.13682241468E+03 -0.92349647150E+01  0.22047465332E+03  0.81385057068E+02 0.  0.
         23    2    1    2    0    0  0.10366638790E+03 -0.26019739355E+02 -0.55265613083E+02  0.15052650235E+03  0.90444419969E+02 0.  0.
         11    1    3    3    0    0  0.58799582170E+02 -0.10544306105E+03 -0.15382449753E+02  0.12170558634E+03  0.00000000000E+00 0. -1.
        -12    1    3    3    0    0  0.93449843154E+02 -0.31379353631E+02  0.61474850381E+01  0.98769066980E+02  0.00000000000E+00 0.  1.
        -11    1    4    4    0    0  0.84112244150E+02 -0.41478663049E+02 -0.73902955273E+02  0.11940266288E+03  0.00000000000E+00 0.  1.
         11    1    4    4    0    0  0.19554143748E+02  0.15458923693E+02  0.18637342189E+02  0.31123839470E+02  0.00000000000E+00 0. -1.
          2    1    1    2  501    0 -0.25591581322E+03  0.16284215403E+03  0.78303542792E+03  0.83973504867E+03  0.00000000000E+00 0. -1.
<scales pt_clust_5="13000.00000" pt_clust_6="13000.00000" pt_clust_7="13000.00000" pt_clust_8="13000.00000" pt_clust_9="303.33243"></scales>
<clustering>
<clus scale="   81.385">  5  6 -1 -1</clus>
<clus scale="   90.444">  7  8 -1 -1</clus>
<clus scale="  118.248">  5  7 -1 -1</clus>
<clus scale="  303.332">  2  9  1 -1</clus>
<clus scale="  303.332">  2  5  1 -1</clus>
</clustering>
</event>
<event>
 9    1  0.1487426E-004  0.1257249E+03  0.7546771E-02  0.1235642E+00
         21   -1    0    0  501  502  0.00000000000E+00  0.00000000000E+00  0.60934850627E+03  0.60934850627E+03  0.00000000000E+00 0. -1.
          1   -1    0    0  502    0 -0.00000000000E+00 -0.00000000000E+00 -0.50162901932E+02  0.50162901932E+02  0.00000000000E+00 0. -1.
         23    2    1    2    0    0 -0.52359242521E+02  0.58892165355E+02  0.15591293751E+03  0.19677924407E+03  0.90572895498E+02 0.  0.
        -24    2    1    2    0    0  0.62159739268E+02 -0.87869058616E+02  0.40928872889E+03  0.43155680395E+03  0.84493826924E+02 0.  0.
         13    1    4    4    0    0  0.52036048455E+02 -0.32442772190E+02  0.32112153886E+03  0.32692403786E+03  0.00000000000E+00 0. -1.
        -14    1    4    4    0    0  0.10123690813E+02 -0.55426286426E+02  0.88167190031E+02  0.10463276609E+03  0.00000000000E+00 0.  1.
        -13    1    3    3    0    0  0.85399175289E+01  0.27128095589E+02  0.23283219362E+01  0.28535676700E+02  0.00000000000E+00 0.  1.
         13    1    3    3    0    0 -0.60899160049E+02  0.31764069766E+02  0.15358461557E+03  0.16824356737E+03  0.00000000000E+00 0. -1.
          2    1    1    2  501    0 -0.98004967474E+01  0.28976893261E+02 -0.60160620613E+01  0.31175360179E+02  0.00000000000E+00 0. -1.
<scales pt_clust_5="13000.00000" pt_clust_6="13000.00000" pt_clust_7="13000.00000" pt_clust_8="13000.00000" pt_clust_9="30.58939"></scales>
<clustering>
<clus scale="   30.589">  1  9  2 -1</clus>
<clus scale="   84.494">  5  6 -1 -1</clus>
<clus scale="   90.573">  7  8 -1 -1</clus>
<clus scale="  121.419">  1  5  2 -1</clus>
<clus scale="   30.589">  1  5  2 -1</clus>
</clustering>
</event>
<event>
 9    1  0.1487426E-004  0.2189876E+03  0.7546771E-02  0.1136050E+00
         -2   -1    0    0    0  501 -0.00000000000E+00  0.00000000000E+00  0.14075886411E+03  0.14075886411E+03  0.00000000000E+00 0.  1.
         21   -1    0    0  501  502  0.00000000000E+00 -0.00000000000E+00 -0.10029940830E+04  0.10029940830E+04  0.00000000000E+00 0. -1.
         23    2    1    2    0    0  0.22544779889E+02  0.19686778082E+03 -0.72746998738E+02  0.23328900366E+03  0.99329971195E+02 0.  0.
        -24    2    1    2    0    0  0.15592708933E+02 -0.18116236161E+03 -0.82942565908E+03  0.85305203470E+03  0.81779680490E+02 0.  0.
         11    1    4    4    0    0  0.35195904651E+02 -0.16903841938E+03 -0.66640764853E+03  0.68841258918E+03  0.00000000000E+00 0. -1.
        -12    1    4    4    0    0 -0.19603195718E+02 -0.12123942227E+02 -0.16301801055E+03  0.16463944552E+03  0.00000000000E+00 0.  1.
        -13    1    3    3    0    0 -0.76549834729E+01  0.17314418655E+03 -0.84923429051E+02  0.19300128732E+03  0.00000000000E+00 0.  1.
         13    1    3    3    0    0  0.30199763362E+02  0.23723594275E+02  0.12176430313E+02  0.40287716337E+02  0.00000000000E+00 0. -1.
         -1    1    1    2    0  502 -0.38137488823E+02 -0.15705419214E+02  0.39937438880E+02  0.57411908788E+02  0.00000000000E+00 0.  1.
<scales pt_clust_5="13000.00000" pt_clust_6="13000.00000" pt_clust_7="13000.00000" pt_clust_8="13000.00000" pt_clust_9="41.24476"></scales>
<clustering>
<clus scale="   41.245">  2  9  1 -1</clus>
<clus scale="   81.780">  5  6 -1 -1</clus>
<clus scale="   99.330">  7  8 -1 -1</clus>
<clus scale="  211.606">  2  5  1 -1</clus>
<clus scale="   41.245">  2  5  1 -1</clus>
</clustering>
</event>
<event>
 9    1  0.1487426E-004  0.8340886E+02  0.7546771E-02  0.1320479E+00
          3   -1    0    0  502    0 -0.00000000000E+00  0.00000000000E+00  0.50040331798E+02  0.50040331798E+02  0.00000000000E+00 0. -1.
         21   -1    0    0  501  502  0.00000000000E+00 -0.00000000000E+00 -0.36576814669E+03  0.36576814669E+03  0.00000000000E+00 0. -1.
        -24    2    1    2    0    0  0.83736487266E+01 -0.11033538189E+02 -0.20572392259E+01  0.83166878067E+02  0.81979512174E+02 0.  0.
         23    2    1    2    0    0 -0.31145183711E+02  0.35556767737E+01 -0.23798138290E+03  0.25324818055E+03  0.80726928841E+02 0.  0.
         13    1    3    3    0    0 -0.26915394670E+02 -0.26387056318E+02  0.15640029633E+02  0.40808402790E+02  0.00000000000E+00 0. -1.
        -14    1    3    3    0    0  0.35289043397E+02  0.15353518128E+02 -0.17697268859E+02  0.42358475277E+02  0.00000000000E+00 0.  1.
        -13    1    4    4    0    0  0.26739556476E+02  0.14838890631E+01 -0.10173526948E+03  0.10520109725E+03  0.00000000000E+00 0.  1.
         13    1    4    4    0    0 -0.57884740188E+02  0.20717877106E+01 -0.13624611342E+03  0.14804708330E+03  0.00000000000E+00 0. -1.
          4    1    1    2  501    0  0.22771534985E+02  0.74778614158E+01 -0.75689192772E+02  0.79393419875E+02  0.00000000000E+00 0. -1.
<scales pt_clust_5="13000.00000" pt_clust_6="13000.00000" pt_clust_7="13000.00000" pt_clust_8="13000.00000" pt_clust_9="23.96792"></scales>
<clustering>
<clus scale="   23.968">  2  9  1 -1</clus>
<clus scale="   80.727">  7  8 -1 -1</clus>
<clus scale="   81.980">  5  6 -1 -1</clus>
<clus scale="   82.178">  2  7  1 -1</clus>
<clus scale="   23.968">  2  5  1 -1</clus>
</clustering>
</event>
<event>
 9    1  0.1487426E-004  0.1002120E+03  0.7546771E-02  0.1284976E+00
          1   -1    0    0  502    0 -0.00000000000E+00  0.00000000000E+00  0.65510706811E+02  0.65510706811E+02  0.00000000000E+00 0. -1.
         21   -1    0    0  501  502  0.00000000000E+00 -0.00000000000E+00 -0.36851434089E+03  0.36851434089E+03  0.00000000000E+00 0.  1.
        -24    2    1    2    0    0 -0.23393185185E+02  0.36736200313E+02 -0.35411246684E+02  0.96829955255E+02  0.78900534323E+02 0.  0.
         23    2    1    2    0    0  0.62292783950E+02 -0.17678114082E+02 -0.27209443162E+03  0.29364445712E+03  0.89435903484E+02 0.  0.
         11    1    3    3    0    0 -0.15285439946E+01 -0.24537768947E+02 -0.14251218410E+02  0.28417173994E+02  0.00000000000E+00 0. -1.
        -12    1    3    3    0    0 -0.21864641191E+02  0.61273969260E+02 -0.21160028274E+02  0.68412781261E+02  0.00000000000E+00 0.  1.
        -11    1    4    4    0    0  0.42935869277E+01  0.29045344540E+02 -0.38209754375E+02  0.48187677446E+02  0.00000000000E+00 0. -1.
         11    1    4    4    0    0  0.57999197023E+02 -0.46723458623E+02 -0.23388467724E+03  0.24545677968E+03  0.00000000000E+00 0.  1.
          2    1    1    2  501    0 -0.38899598765E+02 -0.19058086231E+02  0.45020442230E+01  0.43550635323E+02  0.00000000000E+00 0. -1.
<scales pt_clust_5="13000.00000" pt_clust_6="13000.00000" pt_clust_7="13000.00000" pt_clust_8="13000.00000" pt_clust_9="43.31733"></scales>
<clustering>
<clus scale="   43.317">  2  9  1 -1</clus>
<clus scale="   78.901">  5  6 -1 -1</clus>
<clus scale="   89.436">  7  8 -1 -1</clus>
<clus scale="   90.934">  1  5  2 -1</clus>
<clus scale="   43.317">  2  5  1 -1</clus>
</clustering>
</event>
<event>
 9    1  0.1487426E-004  0.2801637E+03  0.7546771E-02  0.1096182E+00
          1   -1    0    0  502    0 -0.00000000000E+00  0.00000000000E+00  0.12946758234E+04  0.12946758234E+04  0.00000000000E+00 0. -1.
         21   -1    0    0  501  502  0.00000000000E+00 -0.00000000000E+00 -0.26189347947E+03  0.26189347947E+03  0.00000000000E+00 0. -1.
         23    2    1    2    0    0  0.26975147502E+02  0.26309752693E+03  0.11661284520E+04  0.11992127323E+04  0.91146274963E+02 0.  0.
        -24    2    1    2    0    0 -0.65557201521E+01 -0.27211703037E+03 -0.15804189068E+03  0.32406714081E+03  0.77146722952E+02 0.  0.
         13    1    4    4    0    0 -0.30216036902E+02 -0.21968442434E+03 -0.10320186823E+03  0.24459125248E+03  0.00000000000E+00 0. -1.
        -14    1    4    4    0    0  0.23660316750E+02 -0.52432606022E+02 -0.54840022457E+02  0.79475888332E+02  0.00000000000E+00 0.  1.
        -13    1    3    3    0    0  0.15664386933E-01  0.15495092195E+03  0.85009258057E+03  0.86409905914E+03  0.00000000000E+00 0. -1.
         13    1    3    3    0    0  0.26959483115E+02  0.10814660498E+03  0.31603587144E+03  0.33511367315E+03  0.00000000000E+00 0.  1.
          2    1    1    2  501    0 -0.20419427350E+02  0.90195034398E+01  0.24695782611E+02  0.33289429769E+02  0.00000000000E+00 0. -1.
<scales pt_clust_5="13000.00000" pt_clust_6="13000.00000" pt_clust_7="13000.00000" pt_clust_8="13000.00000" pt_clust_9="22.32275"></scales>
<clustering>
<clus scale="   22.323">  2  9  1 -1</clus>
<clus scale="   77.147">  5  6 -1 -1</clus>
<clus scale="   91.146">  7  8 -1 -1</clus>
<clus scale="  275.927">  2  5  1 -1</clus>
<clus scale="   22.323">  2  5  1 -1</clus>
</clustering>
</event>
<event>
 9    1  0.1487426E-004  0.1382825E+03  0.7546771E-02  0.1217939E+00
          3   -1    0    0  502    0 -0.00000000000E+00  0.00000000000E+00  0.38337163642E+03  0.38337163642E+03  0.00000000000E+00 0. -1.
         21   -1    0    0  501  502  0.00000000000E+00 -0.00000000000E+00 -0.30045011532E+03  0.30045011532E+03  0.00000000000E+00 0. -1.
         23    2    1    2    0    0 -0.43086591922E+01  0.11277207546E+03  0.30882215491E+03  0.34094922263E+03  0.90217201784E+02 0.  0.
        -24    2    1    2    0    0  0.35690989861E+02 -0.73093056255E+02 -0.27430705945E+01  0.11405257093E+03  0.79900080540E+02 0.  0.
         11    1    4    4    0    0 -0.24962918094E+02 -0.32681393884E+02 -0.17728938602E+01  0.41162652230E+02  0.00000000000E+00 0. -1.
        -12    1    4    4    0    0  0.60653907954E+02 -0.40411662371E+02 -0.97017673434E+00  0.72889918704E+02  0.00000000000E+00 0.  1.
        -11    1    3    3    0    0 -0.45369491116E+02  0.77675606852E+02  0.17880163758E+03  0.20015473071E+03  0.00000000000E+00 0.  1.
         11    1    3    3    0    0  0.41060831924E+02  0.35096468611E+02  0.13002051734E+03  0.14079449192E+03  0.00000000000E+00 0. -1.
          4    1    1    2  501    0 -0.31382330668E+02 -0.39679019208E+02 -0.22315756322E+03  0.22881995819E+03  0.00000000000E+00 0. -1.
<scales pt_clust_5="13000.00000" pt_clust_6="13000.00000" pt_clust_7="13000.00000" pt_clust_8="13000.00000" pt_clust_9="50.58928"></scales>
<clustering>
<clus scale="   50.589">  2  9  1 -1</clus>
<clus scale="   79.900">  5  6 -1 -1</clus>
<clus scale="   90.217">  7  8 -1 -1</clus>
<clus scale="  131.784">  2  5  1 -1</clus>
<clus scale="   50.589">  2  5  1 -1</clus>
</clustering>
</event>
<event>
 9    1  0.1487426E-004  0.2658640E+03  0.7546771E-02  0.1104312E+00
         21   -1    0    0  501  502  0.00000000000E+00  0.00000000000E+00  0.79735203431E+02  0.79735203431E+02  0.00000000000E+00 0. -1.
          1   -1    0    0  502    0 -0.00000000000E+00 -0.00000000000E+00 -0.18635589918E+04  0.18635589918E+04  0.00000000000E+00 0. -1.
        -24    2    1    2    0    0 -0.13510729146E+03 -0.15919052563E+03 -0.47335091187E+03  0.52347642863E+03  0.79817804424E+02 0.  0.
         23    2    1    2    0    0  0.19443442741E+03  0.26609238824E+03 -0.53812774983E+03  0.63785567546E+03  0.93104682729E+02 0.  0.
         11    1    3    3    0    0 -0.10855496128E+03 -0.80114940505E+02 -0.34455693612E+03  0.37002981710E+03  0.00000000000E+00 0. -1.
        -12    1    3    3    0    0 -0.26552330180E+02 -0.79075585126E+02 -0.12879397575E+03  0.15344661153E+03  0.00000000000E+00 0.  1.
        -11    1    4    4    0    0  0.41446867641E+02  0.97523180029E+02 -0.10859109703E+03  0.15172554114E+03  0.00000000000E+00 0.  1.
         11    1    4    4    0    0  0.15298755977E+03  0.16856920821E+03 -0.42953665280E+03  0.48613013432E+03  0.00000000000E+00 0. -1.
          2    1    1    2  501    0 -0.59327135949E+02 -0.10690186261E+03 -0.77234512671E+03  0.78196209118E+03  0.00000000000E+00 0. -1.
<scales pt_clust_5="13000.00000" pt_clust_6="13000.00000" pt_clust_7="13000.00000" pt_clust_8="13000.00000" pt_clust_9="122.26092"></scales>
<clustering>
<clus scale="   79.818">  5  6 -1 -1</clus>
<clus scale="   93.105">  7  8 -1 -1</clus>
<clus scale="  122.261">  1  9  2 -1</clus>
<clus scale="  261.507">  2  5  1 -1</clus>
<clus scale="  122.261">  1  5  2 -1</clus>
</clustering>
</event>
<event>
 9    1  0.1487426E-004  0.5338121E+03  0.7546771E-02  0.1005312E+00
         21   -1    0    0  501  502  0.00000000000E+00  0.00000000000E+00  0.11457740918E+04  0.11457740918E+04  0.00000000000E+00 0. -1.
          1   -1    0    0  502    0 -0.00000000000E+00 -0.00000000000E+00 -0.26704399092E+03  0.26704399092E+03  0.00000000000E+00 0. -1.
        -24    2    1    2    0    0  0.66311086503E+02 -0.23435991098E+03 -0.37155366549E+02  0.25932873578E+03  0.80926780907E+02 0.  0.
         23    2    1    2    0    0  0.29137548827E+02 -0.20793283441E+03  0.18619878271E+03  0.29489982193E+03  0.90613784362E+02 0.  0.
         13    1    3    3    0    0  0.83620571974E+02 -0.20397921519E+03 -0.23163822347E+02  0.22166750540E+03  0.00000000000E+00 0. -1.
        -14    1    3    3    0    0 -0.17309485471E+02 -0.30380695796E+02 -0.13991544202E+02  0.37661230377E+02  0.00000000000E+00 0.  1.
        -11    1    4    4    0    0  0.10429017218E+01 -0.19344033291E+03  0.13945498813E+03  0.23847000599E+03  0.00000000000E+00 0. -1.
         11    1    4    4    0    0  0.28094647105E+02 -0.14492501494E+02  0.46743794586E+02  0.56429815947E+02  0.00000000000E+00 0.  1.
          2    1    1    2  501    0 -0.95448635331E+02  0.44229274539E+03  0.72968668474E+03  0.85858952503E+03  0.00000000000E+00 0. -1.
<scales pt_clust_5="13000.00000" pt_clust_6="13000.00000" pt_clust_7="13000.00000" pt_clust_8="13000.00000" pt_clust_9="452.47466"></scales>
<clustering>
<clus scale="   80.927">  5  6 -1 -1</clus>
<clus scale="   90.614">  7  8 -1 -1</clus>
<clus scale="  222.878">  5  7 -1 -1</clus>
<clus scale="  452.475">  1  9  2 -1</clus>
<clus scale="  452.475">  1  5  2 -1</clus>
</clustering>
</event>
<event>
 9    1  0.1487426E-004  0.1054041E+03  0.7546771E-02  0.1272971E+00
          1   -1    0    0  502    0 -0.00000000000E+00  0.00000000000E+00  0.39987343076E+03  0.39987343076E+03  0.00000000000E+00 0. -1.
         21   -1    0    0  501  502  0.00000000000E+00 -0.00000000000E+00 -0.69412850589E+02  0.69412850589E+02  0.00000000000E+00 0. -1.
        -24    2    1    2    0    0 -0.60203043138E+02 -0.63834891108E+01  0.28321612568E+03  0.30048575414E+03  0.80094689335E+02 0.  0.
         23    2    1    2    0    0  0.40418495038E+02 -0.44420615787E+02  0.25769008158E+02  0.11020291452E+03  0.88734405607E+02 0.  0.
         13    1    3    3    0    0 -0.32797638946E+02  0.30889800920E+02  0.77615304450E+02  0.89744082848E+02  0.00000000000E+00 0. -1.
        -14    1    3    3    0    0 -0.27405404192E+02 -0.37273290031E+02  0.20560082123E+03  0.21074167130E+03  0.00000000000E+00 0.  1.
        -13    1    4    4    0    0  0.25257607901E+02  0.22580914193E+02 -0.61842966217E+01  0.34439656900E+02  0.00000000000E+00 0.  1.
         13    1    4    4    0    0  0.15160887138E+02 -0.67001529980E+02  0.31953304780E+02  0.75763257617E+02  0.00000000000E+00 0. -1.
          2    1    1    2  501    0  0.19784548099E+02  0.50804104898E+02  0.21475446332E+02  0.58597612691E+02  0.00000000000E+00 0. -1.
<scales pt_clust_5="13000.00000" pt_clust_6="13000.00000" pt_clust_7="13000.00000" pt_clust_8="13000.00000" pt_clust_9="54.52050"></scales>
<clustering>
<clus scale="   54.521">  2  9  1 -1</clus>
<clus scale="   80.095">  5  6 -1 -1</clus>
<clus scale="   88.734">  7  8 -1 -1</clus>
<clus scale="   98.241">  1  5  2 -1</clus>
<clus scale="   54.521">  2  5  1 -1</clus>
</clustering>
</event>
<event>
 9    1  0.1487426E-004  0.9727984E+02  0.7546771E-02  0.1291808E+00
         21   -1    0    0  501  502  0.00000000000E+00  0.00000000000E+00  0.63636873216E+02  0.63636873216E+02  0.00000000000E+00 0. -1.
         -4   -1    0    0    0  501 -0.00000000000E+00 -0.00000000000E+00 -0.27245549148E+03  0.27245549148E+03  0.00000000000E+00 0.  1.
         23    2    1    2    0    0  0.32323611184E+02 -0.20108663876E+02 -0.20226497102E+03  0.22520217218E+03  0.91409658407E+02 0.  0.
        -24    2    1    2    0    0 -0.20711134242E+02  0.34407902501E+01 -0.20789138264E+02  0.86084611776E+02  0.80855315198E+02 0.  0.
         13    1    4    4    0    0 -0.33435361295E+02  0.31319929117E+02  0.49286053694E+01  0.46077678931E+02  0.00000000000E+00 0. -1.
        -14    1    4    4    0    0  0.12724227053E+02 -0.27879138867E+02 -0.25717743633E+02  0.40006932845E+02  0.00000000000E+00 0.  1.
        -13    1    3    3    0    0 -0.12939405258E+02 -0.45120850960E+02 -0.86612265972E+02  0.98513978788E+02  0.00000000000E+00 0. -1.
         13    1    3    3    0    0  0.45263016441E+02  0.25012187084E+02 -0.11565270504E+03  0.12668819339E+03  0.00000000000E+00 0.  1.
         -3    1    1    2    0  502 -0.11612476942E+02  0.16667873625E+02  0.14235491011E+02  0.24805580748E+02  0.00000000000E+00 0.  1.
<scales pt_clust_5="13000.00000" pt_clust_6="13000.00000" pt_clust_7="13000.00000" pt_clust_8="13000.00000" pt_clust_9="20.31422"></scales>
<clustering>
<clus scale="   20.314">  1  9  2 -1</clus>
<clus scale="   80.855">  5  6 -1 -1</clus>
<clus scale="   87.437">  1  5  2 -1</clus>
<clus scale="   91.410">  7  8 -1 -1</clus>
<clus scale="   20.314">  1  5  2 -1</clus>
</clustering>
</event>
<event>
 9    1  0.1487426E-004  0.1385284E+03  0.7546771E-02  0.1217917E+00
         -2   -1    0    0    0  501 -0.00000000000E+00  0.00000000000E+00  0.21754839847E+03  0.21754839847E+03  0.00000000000E+00 0.  1.
         21   -1    0    0  501  502  0.00000000000E+00 -0.00000000000E+00 -0.18913256904E+03  0.18913256904E+03  0.00000000000E+00 0. -1.
         23    2    1    2    0    0 -0.10710165619E+03 -0.18963244021E+01  0.14197998951E+03  0.20014690290E+03  0.91793815222E+02 0.  0.
        -24    2    1    2    0    0  0.85667042482E+02  0.26803836184E+02 -0.12323978621E+03  0.17227848771E+03  0.80215613328E+02 0.  0.
         11    1    4    4    0    0  0.39441093938E+02  0.34935903515E+02 -0.11235691906E+03  0.12409752015E+03  0.00000000000E+00 0. -1.
        -12    1    4    4    0    0  0.46225948544E+02 -0.81320673313E+01 -0.10882867141E+02  0.48180967561E+02  0.00000000000E+00 0.  1.
        -11    1    3    3    0    0 -0.65088824074E+02 -0.46191734240E+02  0.85761024734E+02  0.11715453339E+03  0.00000000000E+00 0.  1.
         11    1    3    3    0    0 -0.42012832113E+02  0.44295409838E+02  0.56218964776E+02  0.82992369500E+02  0.00000000000E+00 0. -1.
         -1    1    1    2    0  502  0.21434613705E+02 -0.24907511781E+02  0.96756261291E+01  0.34255576901E+02  0.00000000000E+00 0.  1.
<scales pt_clust_5="13000.00000" pt_clust_6="13000.00000" pt_clust_7="13000.00000" pt_clust_8="13000.00000" pt_clust_9="32.86073"></scales>
<clustering>
<clus scale="   32.861">  2  9  1 -1</clus>
<clus scale="   80.216">  5  6 -1 -1</clus>
<clus scale="   91.794">  7  8 -1 -1</clus>
<clus scale="  131.143">  2  5  1 -1</clus>
<clus scale="   32.861">  2  5  1 -1</clus>
</clustering>
</event>
<event>
 9    1  0.1487426E-004  0.1599132E+03  0.7546771E-02  0.1202849E+00
          1   -1    0    0  502    0 -0.00000000000E+00  0.00000000000E+00  0.10466574601E+04  0.10466574601E+04  0.00000000000E+00 0. -1.
         21   -1    0    0  501  502  0.00000000000E+00 -0.00000000000E+00 -0.47488511317E+02  0.47488511317E+02  0.00000000000E+00 0. -1.
         23    2    1    2    0    0  0.47474709632E+02 -0.57308993125E+02  0.18656085615E+03  0.22052694952E+03  0.91044020491E+02 0.  0.
        -24    2    1    2    0    0 -0.16146813851E+03 -0.89968298285E+01  0.56207242012E+03  0.59049522002E+03  0.81279128387E+02 0.  0.
         11    1    4    4    0    0 -0.16040246405E+03 -0.10503216199E+02  0.56478477892E+03  0.58721470905E+03  0.00000000000E+00 0. -1.
        -12    1    4    4    0    0 -0.10656744600E+01  0.15063863703E+01 -0.27123588042E+01  0.32805109715E+01  0.00000000000E+00 0.  1.
        -11    1    3    3    0    0  0.15730484185E+02 -0.68072580568E+02  0.16859098080E+03  0.18249450174E+03  0.00000000000E+00 0.  1.
         11    1    3    3    0    0  0.31744225447E+02  0.10763587443E+02  0.17969875354E+02  0.38032447779E+02  0.00000000000E+00 0. -1.
          2    1    1    2  501    0  0.11399342888E+03  0.66305822954E+02  0.25053567249E+03  0.28312380185E+03  0.00000000000E+00 0. -1.
<scales pt_clust_5="13000.00000" pt_clust_6="13000.00000" pt_clust_7="13000.00000" pt_clust_8="13000.00000" pt_clust_9="137.71686"></scales>
<clustering>
<clus scale="   81.279">  5  6 -1 -1</clus>
<clus scale="   91.044">  7  8 -1 -1</clus>
<clus scale="  117.589">  1  7  2 -1</clus>
<clus scale="  137.717">  2  9  1 -1</clus>
<clus scale="  137.717">  2  5  1 -1</clus>
</clustering>
</event>
<event>
 9    1  0.1685804E-004  0.1278684E+03  0.7546771E-02  0.1236108E+00
         21   -1    0    0  501  502  0.00000000000E+00  0.00000000000E+00  0.41538363475E+03  0.41538363475E+03  0.00000000000E+00 0. -1.
          1   -1    0    0  502    0 -0.00000000000E+00 -0.00000000000E+00 -0.11203732679E+03  0.11203732679E+03  0.00000000000E+00 0. -1.
         23    2    1    2    0    0  0.79622745648E+02 -0.23314553734E+02 -0.15355190900E+02  0.13007117039E+03  0.98991804903E+02 0.  0.
        -24    2    1    2    0    0 -0.69417005391E+02  0.57179792787E+01  0.34670856101E+03  0.36273487967E+03  0.80736303647E+02 0.  0.
         13    1    4    4    0    0 -0.11228771972E+02 -0.34175269343E+02  0.12484825441E+03  0.12992736811E+03  0.00000000000E+00 0. -1.
        -14    1    4    4    0    0 -0.58188233419E+02  0.39893248622E+02  0.22186030660E+03  0.23280751156E+03  0.00000000000E+00 0.  1.
        -13    1    3    3    0    0 -0.16873521296E+02 -0.19030159913E+02 -0.21473522489E+02  0.33286256553E+02  0.00000000000E+00 0.  1.
         13    1    3    3    0    0  0.96496266943E+02 -0.42843938205E+01  0.61183315888E+01  0.96784913834E+02  0.00000000000E+00 0. -1.
          2    1    1    2  501    0 -0.10205740257E+02  0.17596574455E+02 -0.28007062147E+02  0.34614911481E+02  0.00000000000E+00 0. -1.
<scales pt_clust_5="13000.00000" pt_clust_6="13000.00000" pt_clust_7="13000.00000" pt_clust_8="13000.00000" pt_clust_9="20.34200"></scales>
<clustering>
<clus scale="   20.342">  1  9  2 -1</clus>
<clus scale="   80.736">  5  6 -1 -1</clus>
<clus scale="   98.992">  7  8 -1 -1</clus>
<clus scale="  114.321">  1  5  2 -1</clus>
<clus scale="   20.342">  1  5  2 -1</clus>
</clustering>
</event>
<event>
 9    1  0.1487426E-004  0.1045625E+03  0.7546771E-02  0.1273221E+00
          1   -1    0    0  502    0 -0.00000000000E+00  0.00000000000E+00  0.25813147177E+03  0.25813147177E+03  0.00000000000E+00 0. -1.
         21   -1    0    0  501  502  0.00000000000E+00 -0.00000000000E+00 -0.17486172631E+03  0.17486172631E+03  0.00000000000E+00 0. -1.
        -24    2    1    2    0    0  0.11539389059E+02 -0.42420611312E+02  0.89033496868E+02  0.13516226270E+03  0.91701733521E+02 0.  0.
         23    2    1    2    0    0 -0.78376475344E+02  0.65491148715E+02 -0.10901416839E+03  0.17269063649E+03  0.86637200874E+02 0.  0.
         13    1    3    3    0    0 -0.34274655567E+02 -0.78989062906E+01  0.83257662976E+01  0.36145028970E+02  0.00000000000E+00 0. -1.
        -14    1    3    3    0    0  0.45814044625E+02 -0.34521705022E+02  0.80707730570E+02  0.99017233734E+02  0.00000000000E+00 0.  1.
        -13    1    4    4    0    0 -0.64346424159E+02  0.82854439897E+02 -0.10767026537E+03  0.15032699877E+03  0.00000000000E+00 0. -1.
         13    1    4    4    0    0 -0.14030051185E+02 -0.17363291181E+02 -0.13439030115E+01  0.22363637723E+02  0.00000000000E+00 0.  1.
          2    1    1    2  501    0  0.66837086285E+02 -0.23070537403E+02  0.10325041698E+03  0.12514029889E+03  0.00000000000E+00 0. -1.
<scales pt_clust_5="13000.00000" pt_clust_6="13000.00000" pt_clust_7="13000.00000" pt_clust_8="13000.00000" pt_clust_9="70.70679"></scales>
<clustering>
<clus scale="   70.707">  2  9  1 -1</clus>
<clus scale="   86.637">  7  8 -1 -1</clus>
<clus scale="   91.702">  5  6 -1 -1</clus>
<clus scale="  100.150">  2  7  1 -1</clus>
<clus scale="   70.707">  2  5  1 -1</clus>
</clustering>
</event>
<event>
 9    1  0.1487426E-004  0.3940161E+03  0.7546771E-02  0.1046090E+00
          1   -1    0    0  502    0 -0.00000000000E+00  0.00000000000E+00  0.12628253742E+03  0.12628253742E+03  0.00000000000E+00 0. -1.
         21   -1    0    0  501  502  0.00000000000E+00 -0.00000000000E+00 -0.14915870196E+04  0.14915870196E+04  0.00000000000E+00 0. -1.
        -24    2    1    2    0    0  0.26083955692E+03 -0.27300880587E+03 -0.46094590600E+03  0.60133215788E+03  0.80982425917E+02 0.  0.
         23    2    1    2    0    0 -0.28330510718E+03  0.27259020636E+03 -0.90802935093E+03  0.99377008128E+03  0.92165437908E+02 0.  0.
         11    1    3    3    0    0  0.12238989231E+03 -0.18588961143E+03 -0.26192287625E+03  0.34371183640E+03  0.00000000000E+00 0. -1.
        -12    1    3    3    0    0  0.13844966460E+03 -0.87119194438E+02 -0.19902302975E+03  0.25762032148E+03  0.00000000000E+00 0.  1.
        -11    1    4    4    0    0 -0.23543706643E+02  0.70207349923E+02 -0.14889887432E+03  0.16629567908E+03  0.00000000000E+00 0.  1.
         11    1    4    4    0    0 -0.25976140054E+03  0.20238285643E+03 -0.75913047661E+03  0.82747440220E+03  0.00000000000E+00 0. -1.
          2    1    1    2  501    0  0.22465550266E+02  0.41859951361E+00  0.36707747648E+01  0.22767317841E+02  0.00000000000E+00 0. -1.
<scales pt_clust_5="13000.00000" pt_clust_6="13000.00000" pt_clust_7="13000.00000" pt_clust_8="13000.00000" pt_clust_9="22.46946"></scales>
<clustering>
<clus scale="   22.469">  2  9  1 -1</clus>
<clus scale="   80.982">  5  6 -1 -1</clus>
<clus scale="   92.165">  7  8 -1 -1</clus>
<clus scale="  391.551">  1  5  2 -1</clus>
<clus scale="   22.469">  2  5  1 -1</clus>
</clustering>
</event>
<event>
 9    1  0.1487426E-004  0.9646214E+02  0.7546771E-02  0.1296382E+00
         -2   -1    0    0    0  501 -0.00000000000E+00  0.00000000000E+00  0.96082862150E+02  0.96082862150E+02  0.00000000000E+00 0.  1.
         21   -1    0    0  501  502  0.00000000000E+00 -0.00000000000E+00 -0.15700510216E+03  0.15700510216E+03  0.00000000000E+00 0.  1.
        -24    2    1    2    0    0 -0.25100948659E+02  0.35627517705E+02 -0.77329434847E+01  0.87889435819E+02  0.75930078837E+02 0.  0.
         23    2    1    2    0    0 -0.17562271415E+02 -0.19367779694E+02 -0.68672972138E+02  0.11698780730E+03  0.91030905121E+02 0.  0.
         13    1    3    3    0    0 -0.51380112570E+02  0.20928507455E+02  0.38856082460E+01  0.55614893180E+02  0.00000000000E+00 0. -1.
        -14    1    3    3    0    0  0.26279163911E+02  0.14699010250E+02 -0.11618551731E+02  0.32274542638E+02  0.00000000000E+00 0.  1.
        -11    1    4    4    0    0  0.82865231333E+01  0.31766908201E+02 -0.43263481642E+02  0.54309591842E+02  0.00000000000E+00 0. -1.
         11    1    4    4    0    0 -0.25848794548E+02 -0.51134687895E+02 -0.25409490496E+02  0.62678215458E+02  0.00000000000E+00 0.  1.
         -1    1    1    2    0  502  0.42663220074E+02 -0.16259738011E+02  0.15483675612E+02  0.48210721191E+02  0.00000000000E+00 0.  1.
<scales pt_clust_5="13000.00000" pt_clust_6="13000.00000" pt_clust_7="13000.00000" pt_clust_8="13000.00000" pt_clust_9="45.65667"></scales>
<clustering>
<clus scale="   45.657">  2  9  1 -1</clus>
<clus scale="   75.930">  5  6 -1 -1</clus>
<clus scale="   82.363">  1  5  2 -1</clus>
<clus scale="   91.031">  7  8 -1 -1</clus>
<clus scale="   45.657">  2  5  1 -1</clus>
</clustering>
</event>
<event>
 9    1  0.1487426E-004  0.8313559E+02  0.7546771E-02  0.1330644E+00
         21   -1    0    0  501  502  0.00000000000E+00  0.00000000000E+00  0.97681744515E+02  0.97681744515E+02  0.00000000000E+00 0.  1.
         -2   -1    0    0    0  501 -0.00000000000E+00 -0.00000000000E+00 -0.16766288398E+03  0.16766288398E+03  0.00000000000E+00 0.  1.
        -24    2    1    2    0    0  0.27414244180E+02  0.12241493770E+02 -0.13008458859E+03  0.15522601440E+03  0.79194194258E+02 0.  0.
         23    2    1    2    0    0 -0.67718228134E+01 -0.50114632164E+00  0.29234943428E+02  0.71172369586E+02  0.64534607331E+02 0.  0.
         13    1    3    3    0    0  0.31099473178E+02 -0.18409705229E+02 -0.20872487411E+02  0.41734340887E+02  0.00000000000E+00 0. -1.
        -14    1    3    3    0    0 -0.36852289978E+01  0.30651198999E+02 -0.10921210118E+03  0.11349167351E+03  0.00000000000E+00 0.  1.
        -11    1    4    4    0    0 -0.19610743819E+02  0.25116323307E+02  0.28115509088E+02  0.42495797685E+02  0.00000000000E+00 0. -1.
         11    1    4    4    0    0  0.12838921006E+02 -0.25617469629E+02  0.11194343406E+01  0.28676571901E+02  0.00000000000E+00 0.  1.
         -1    1    1    2    0  502 -0.20642421367E+02 -0.11740347448E+02  0.30868505692E+02  0.38946244514E+02  0.00000000000E+00 0.  1.
<scales pt_clust_5="13000.00000" pt_clust_6="13000.00000" pt_clust_7="13000.00000" pt_clust_8="13000.00000" pt_clust_9="23.74753"></scales>
<clustering>
<clus scale="   23.748">  1  9  2 -1</clus>
<clus scale="   64.535">  7  8 -1 -1</clus>
<clus scale="   69.315">  1  7  2 -1</clus>
<clus scale="   79.194">  5  6 -1 -1</clus>
<clus scale="   23.748">  1  5  2 -1</clus>
</clustering>
</event>
<event>
 9    1  0.1487426E-004  0.1087632E+03  0.7546771E-02  0.1266634E+00
          1   -1    0    0  502    0 -0.00000000000E+00  0.00000000000E+00  0.15686131027E+03  0.15686131027E+03  0.00000000000E+00 0. -1.
         21   -1    0    0  501  502  0.00000000000E+00 -0.00000000000E+00 -0.16827345267E+03  0.16827345267E+03  0.00000000000E+00 0.  1.
        -24    2    1    2    0    0 -0.54534822682E+02 -0.19048341420E+02  0.93143809551E+02  0.13732252346E+03  0.82733427311E+02 0.  0.
         23    2    1    2    0    0  0.62575489769E+02 -0.29278966298E+01 -0.38516911127E+02  0.11774967974E+03  0.91962873694E+02 0.  0.
         13    1    3    3    0    0 -0.51332723791E+02  0.21194804414E+02  0.74323775830E+02  0.92780881218E+02  0.00000000000E+00 0. -1.
        -14    1    3    3    0    0 -0.32020988911E+01 -0.40243145834E+02  0.18820033721E+02  0.44541642237E+02  0.00000000000E+00 0.  1.
        -11    1    4    4    0    0 -0.19629762180E+02  0.12519620330E+02  0.44676342615E+01  0.23707134208E+02  0.00000000000E+00 0. -1.
         11    1    4    4    0    0  0.82205251949E+02 -0.15447516960E+02 -0.42984545388E+02  0.94042545534E+02  0.00000000000E+00 0.  1.
          2    1    1    2  501    0 -0.80406670867E+01  0.21976238050E+02 -0.66039040822E+02  0.70062559750E+02  0.00000000000E+00 0. -1.
<scales pt_clust_5="13000.00000" pt_clust_6="13000.00000" pt_clust_7="13000.00000" pt_clust_8="13000.00000" pt_clust_9="23.40101"></scales>
<clustering>
<clus scale="   23.401">  2  9  1 -1</clus>
<clus scale="   82.733">  5  6 -1 -1</clus>
<clus scale="   91.963">  7  8 -1 -1</clus>
<clus scale="  101.080">  1  5  2 -1</clus>
<clus scale="   23.401">  2  5  1 -1</clus>
</clustering>
</event>
<event>
 9    1  0.1487426E-004  0.1494305E+03  0.7546771E-02  0.1218338E+00
          3   -1    0    0  502    0 -0.00000000000E+00  0.00000000000E+00  0.39503400267E+03  0.39503400267E+03  0.00000000000E+00 0. -1.
         21   -1    0    0  501  502  0.00000000000E+00 -0.00000000000E+00 -0.10413780148E+03  0.10413780148E+03  0.00000000000E+00 0. -1.
        -24    2    1    2    0    0 -0.57119267338E+02  0.33530013646E+02  0.14425888181E+03  0.17758245022E+03  0.79611739901E+02 0.  0.
         23    2    1    2    0    0  0.42462521419E+02  0.96046468765E+02  0.13029600491E+03  0.19016666352E+03  0.90323425159E+02 0.  0.
         11    1    3    3    0    0 -0.62053350390E+02  0.13336299329E+02  0.14335237171E+03  0.15677492673E+03  0.00000000000E+00 0. -1.
        -12    1    3    3    0    0  0.49340830524E+01  0.20193714317E+02  0.90651009637E+00  0.20807523496E+02  0.00000000000E+00 0.  1.
        -11    1    4    4    0    0 -0.50089842955E+01  0.45708909828E+02  0.39959568406E+01  0.46155845052E+02  0.00000000000E+00 0. -1.
         11    1    4    4    0    0  0.47471505714E+02  0.50337558937E+02  0.12630004807E+03  0.14401081847E+03  0.00000000000E+00 0.  1.
          4    1    1    2  501    0  0.14656745919E+02 -0.12957648241E+03  0.16341314467E+02  0.13142269041E+03  0.00000000000E+00 0. -1.
<scales pt_clust_5="13000.00000" pt_clust_6="13000.00000" pt_clust_7="13000.00000" pt_clust_8="13000.00000" pt_clust_9="119.04269"></scales>
<clustering>
<clus scale="   79.612">  5  6 -1 -1</clus>
<clus scale="   90.323">  7  8 -1 -1</clus>
<clus scale="  103.561">  1  5  2 -1</clus>
<clus scale="  119.043">  2  9  1 -1</clus>
<clus scale="  119.043">  2  5  1 -1</clus>
</clustering>
</event>
<event>
 9    1  0.1487426E-004  0.1101690E+03  0.7546771E-02  0.1264449E+00
         21   -1    0    0  501  502  0.00000000000E+00  0.00000000000E+00  0.97945813821E+02  0.97945813821E+02  0.00000000000E+00 0.  1.
          1   -1    0    0  502    0 -0.00000000000E+00 -0.00000000000E+00 -0.19681811840E+03  0.19681811840E+03  0.00000000000E+00 0. -1.
        -24    2    1    2    0    0  0.67350594574E+02 -0.30608822545E+02 -0.55751294982E+02  0.12201193135E+03  0.79408449758E+02 0.  0.
         23    2    1    2    0    0 -0.18260569377E+02  0.58757094490E+02 -0.17414447966E+02  0.11059909991E+03  0.90238868317E+02 0.  0.
         11    1    3    3    0    0  0.57547624008E+02  0.15211740928E+02 -0.43059748498E+02  0.73466101242E+02  0.00000000000E+00 0. -1.
        -12    1    3    3    0    0  0.98029705656E+01 -0.45820563473E+02 -0.12691546484E+02  0.48545830110E+02  0.00000000000E+00 0.  1.
        -11    1    4    4    0    0 -0.38194022515E+02  0.29659238659E+02 -0.44818989684E+02  0.65933266489E+02  0.00000000000E+00 0. -1.
         11    1    4    4    0    0  0.19933453138E+02  0.29097855831E+02  0.27404541718E+02  0.44665833416E+02  0.00000000000E+00 0.  1.
          2    1    1    2  501    0 -0.49090025197E+02 -0.28148271945E+02 -0.25706561634E+02  0.62152900965E+02  0.00000000000E+00 0. -1.
<scales pt_clust_5="13000.00000" pt_clust_6="13000.00000" pt_clust_7="13000.00000" pt_clust_8="13000.00000" pt_clust_9="56.58762"></scales>
<clustering>
<clus scale="   56.588">  1  9  2 -1</clus>
<clus scale="   79.408">  5  6 -1 -1</clus>
<clus scale="   90.239">  7  8 -1 -1</clus>
<clus scale="  101.488">  2  5  1 -1</clus>
<clus scale="   56.588">  1  5  2 -1</clus>
</clustering>
</event>
<event>
 9    1  0.1487426E-004  0.1421299E+03  0.7546771E-02  0.1236742E+00
          1   -1    0    0  502    0 -0.00000000000E+00  0.00000000000E+00  0.21474219767E+04  0.21474219767E+04  0.00000000000E+00 0. -1.
         21   -1    0    0  501  502  0.00000000000E+00 -0.00000000000E+00 -0.20091622046E+02  0.20091622046E+02  0.00000000000E+00 0. -1.
        -24    2    1    2    0    0  0.25567007911E+01 -0.17819795538E+02  0.11456168728E+04  0.11485602018E+04  0.80177529121E+02 0.  0.
         23    2    1    2    0    0  0.72346718362E+02 -0.74805621927E+02  0.35236744949E+03  0.37843296896E+03  0.90657397974E+02 0.  0.
         11    1    3    3    0    0 -0.20596200156E+02 -0.14819709070E+02  0.11887072934E+03  0.12154866322E+03  0.00000000000E+00 0. -1.
        -12    1    3    3    0    0  0.23152900947E+02 -0.30000864687E+01  0.10267461434E+04  0.10270115386E+04  0.00000000000E+00 0.  1.
        -11    1    4    4    0    0  0.21400330418E+02 -0.47428367212E+02  0.28470305039E+03  0.28941881601E+03  0.00000000000E+00 0.  1.
         11    1    4    4    0    0  0.50946387945E+02 -0.27377254715E+02  0.67664399097E+02  0.89014152950E+02  0.00000000000E+00 0. -1.
          2    1    1    2  501    0 -0.74903419153E+02  0.92625417465E+02  0.62934603242E+03  0.64052042800E+03  0.00000000000E+00 0. -1.
<scales pt_clust_5="13000.00000" pt_clust_6="13000.00000" pt_clust_7="13000.00000" pt_clust_8="13000.00000" pt_clust_9="109.46305"></scales>
<clustering>
<clus scale="   80.178">  5  6 -1 -1</clus>
<clus scale="   82.174">  1  5  2 -1</clus>
<clus scale="   90.657">  7  8 -1 -1</clus>
<clus scale="  109.463">  2  9  1 -1</clus>
<clus scale="  109.463">  2  5  1 -1</clus>
</clustering>
</event>
<event>
 9    1  0.1487426E-004  0.9940680E+02  0.7546771E-02  0.1286758E+00
         21   -1    0    0  501  502  0.00000000000E+00  0.00000000000E+00  0.96469113843E+02  0.96469113843E+02  0.00000000000E+00 0. -1.
         -4   -1    0    0    0  501 -0.00000000000E+00 -0.00000000000E+00 -0.25217102334E+03  0.25217102334E+03  0.00000000000E+00 0.  1.
         23    2    1    2    0    0  0.15966138583E+02 -0.19052746443E+02 -0.66810129568E+02  0.11556404594E+03  0.90958949936E+02 0.  0.
        -24    2    1    2    0    0 -0.90275193510E+02 -0.79201965539E+01 -0.10549614602E+02  0.12177977429E+03  0.80663988132E+02 0.  0.
         11    1    4    4    0    0 -0.86629640430E+02 -0.17680556696E+02  0.19011443540E+02  0.90436340436E+02  0.00000000000E+00 0. -1.
        -12    1    4    4    0    0 -0.36455530806E+01  0.97603601419E+01 -0.29561058141E+02  0.31343433855E+02  0.00000000000E+00 0.  1.
        -11    1    3    3    0    0 -0.10095442808E+02 -0.49282584276E+02 -0.20226181029E+02  0.54219825501E+02  0.00000000000E+00 0.  1.
         11    1    3    3    0    0  0.26061581392E+02  0.30229837833E+02 -0.46583948539E+02  0.61344220441E+02  0.00000000000E+00 0. -1.
         -3    1    1    2    0  502  0.74309054927E+02  0.26972942996E+02 -0.78342165326E+02  0.11129631695E+03  0.00000000000E+00 0.  1.
<scales pt_clust_5="13000.00000" pt_clust_6="13000.00000" pt_clust_7="13000.00000" pt_clust_8="13000.00000" pt_clust_9="79.05303"></scales>
<clustering>
<clus scale="   79.053">  1  9  2 -1</clus>
<clus scale="   80.664">  5  6 -1 -1</clus>
<clus scale="   90.083">  1  5  2 -1</clus>
<clus scale="   90.959">  7  8 -1 -1</clus>
<clus scale="   79.053">  1  5  2 -1</clus>
</clustering>
</event>
<event>
 9    1  0.1487426E-004  0.1419024E+03  0.7546771E-02  0.1230426E+00
          1   -1    0    0  502    0 -0.00000000000E+00  0.00000000000E+00  0.44879615365E+03  0.44879615365E+03  0.00000000000E+00 0. -1.
         21   -1    0    0  501  502  0.00000000000E+00 -0.00000000000E+00 -0.71973301724E+02  0.71973301724E+02  0.00000000000E+00 0. -1.
         23    2    1    2    0    0  0.84445558935E+01  0.21856651479E+02  0.12885381040E+03  0.15949583136E+03  0.91030720255E+02 0.  0.
        -24    2    1    2    0    0 -0.11709526153E+03  0.14706766879E+02  0.10457134826E+03  0.17768506818E+03  0.81909873102E+02 0.  0.
         13    1    4    4    0    0 -0.21590662222E+02  0.39428536445E+02  0.30576463192E+02  0.54366223731E+02  0.00000000000E+00 0. -1.
        -14    1    4    4    0    0 -0.95504599310E+02 -0.24721769566E+02  0.73994885071E+02  0.12331884445E+03  0.00000000000E+00 0.  1.
        -11    1    3    3    0    0 -0.39133415389E+01  0.53521826084E+02  0.10516013134E+03  0.11806165056E+03  0.00000000000E+00 0.  1.
         11    1    3    3    0    0  0.12357897432E+02 -0.31665174605E+02  0.23693679061E+02  0.41434180807E+02  0.00000000000E+00 0. -1.
          2    1    1    2  501    0  0.10865070564E+03 -0.36563418358E+02  0.14339769327E+03  0.18358855583E+03  0.00000000000E+00 0. -1.
<scales pt_clust_5="13000.00000" pt_clust_6="13000.00000" pt_clust_7="13000.00000" pt_clust_8="13000.00000" pt_clust_9="115.87521"></scales>
<clustering>
<clus scale="   81.910">  5  6 -1 -1</clus>
<clus scale="   91.031">  7  8 -1 -1</clus>
<clus scale="   93.998">  1  7  2 -1</clus>
<clus scale="  115.875">  2  9  1 -1</clus>
<clus scale="  115.875">  2  5  1 -1</clus>
</clustering>
</event>
<event>
 9    1  0.2185481E-004  0.8440669E+02  0.7546771E-02  0.1322930E+00
          3   -1    0    0  502    0 -0.00000000000E+00  0.00000000000E+00  0.24232665066E+03  0.24232665066E+03  0.00000000000E+00 0. -1.
         21   -1    0    0  501  502  0.00000000000E+00 -0.00000000000E+00 -0.19631867303E+03  0.19631867303E+03  0.00000000000E+00 0. -1.
         23    2    1    2    0    0  0.26983913771E+02 -0.15697333121E+02  0.20546466875E+03  0.22260310355E+03  0.79761354890E+02 0.  0.
        -24    2    1    2    0    0 -0.11729984554E+02 -0.58638276229E+01 -0.20754857827E+02  0.74848153111E+02  0.70707177066E+02 0.  0.
         11    1    4    4    0    0  0.64006763215E+01 -0.20647130571E+02  0.18961393787E+02  0.28754253817E+02  0.00000000000E+00 0. -1.
        -12    1    4    4    0    0 -0.18130660876E+02  0.14783302948E+02 -0.39716251615E+02  0.46093899295E+02  0.00000000000E+00 0.  1.
        -11    1    3    3    0    0  0.55011997375E+02 -0.60245681104E+01  0.12013507496E+03  0.13226886070E+03  0.00000000000E+00 0. -1.
         11    1    3    3    0    0 -0.28028083604E+02 -0.96727650108E+01  0.85329593791E+02  0.90334242843E+02  0.00000000000E+00 0.  1.
          4    1    1    2  501    0 -0.15253929217E+02  0.21561160744E+02 -0.13870183328E+03  0.14119406703E+03  0.00000000000E+00 0. -1.
<scales pt_clust_5="13000.00000" pt_clust_6="13000.00000" pt_clust_7="13000.00000" pt_clust_8="13000.00000" pt_clust_9="26.41147"></scales>
<clustering>
<clus scale="   26.411">  2  9  1 -1</clus>
<clus scale="   70.707">  5  6 -1 -1</clus>
<clus scale="   75.909">  2  5  1 -1</clus>
<clus scale="   79.761">  7  8 -1 -1</clus>
<clus scale="   26.411">  2  5  1 -1</clus>
</clustering>
</event>
<event>
 9    1  0.1487426E-004  0.1193224E+03  0.7546771E-02  0.1246688E+00
         -2   -1    0    0    0  501 -0.00000000000E+00  0.00000000000E+00  0.44656999741E+02  0.44656999741E+02  0.00000000000E+00 0.  1.
         21   -1    0    0  501  502  0.00000000000E+00 -0.00000000000E+00 -0.47092230120E+03  0.47092230120E+03  0.00000000000E+00 0. -1.
        -24    2    1    2    0    0 -0.99173905897E+01  0.69013514412E+02 -0.17421676367E+03  0.20412620017E+03  0.80341801350E+02 0.  0.
         23    2    1    2    0    0 -0.34476750347E+02 -0.91633616244E+02 -0.19854774746E+03  0.23834466540E+03  0.88326697908E+02 0.  0.
         13    1    3    3    0    0  0.33702780093E+02  0.36159013940E+02 -0.61707462323E+02  0.79064293973E+02  0.00000000000E+00 0. -1.
        -14    1    3    3    0    0 -0.43620170683E+02  0.32854500471E+02 -0.11250930135E+03  0.12506190620E+03  0.00000000000E+00 0.  1.
        -13    1    4    4    0    0  0.27803354598E+02 -0.33614380164E+02 -0.93229881995E+02  0.10293086990E+03  0.00000000000E+00 0.  1.
         13    1    4    4    0    0 -0.62280104944E+02 -0.58019236080E+02 -0.10531786547E+03  0.13541379551E+03  0.00000000000E+00 0. -1.
         -1    1    1    2    0  502  0.44394140936E+02  0.22620101832E+02 -0.53500790323E+02  0.73108435366E+02  0.00000000000E+00 0.  1.
<scales pt_clust_5="13000.00000" pt_clust_6="13000.00000" pt_clust_7="13000.00000" pt_clust_8="13000.00000" pt_clust_9="49.82481"></scales>
<clustering>
<clus scale="   49.825">  2  9  1 -1</clus>
<clus scale="   80.342">  5  6 -1 -1</clus>
<clus scale="   88.327">  7  8 -1 -1</clus>
<clus scale="  113.539">  1  5  2 -1</clus>
<clus scale="   49.825">  2  5  1 -1</clus>
</clustering>
</event>
<event>
 9    1  0.1487426E-004  0.1167404E+03  0.7546771E-02  0.1256347E+00
         -2   -1    0    0    0  501 -0.00000000000E+00  0.00000000000E+00  0.58379692416E+03  0.58379692416E+03  0.00000000000E+00 0.  1.
         21   -1    0    0  501  502  0.00000000000E+00 -0.00000000000E+00 -0.19183587475E+03  0.19183587475E+03  0.00000000000E+00 0.  1.
         23    2    1    2    0    0  0.15914266330E+02 -0.34882307106E+02  0.46806297577E+03  0.47863490570E+03  0.92403378985E+02 0.  0.
        -24    2    1    2    0    0  0.76662570485E+01  0.43702995559E+02  0.77129165666E+02  0.14171230731E+03  0.11029390976E+03 0.  0.
         11    1    4    4    0    0 -0.42303833160E+02  0.10083342260E+02 -0.45988509834E+00  0.43491373690E+02  0.00000000000E+00 0. -1.
        -12    1    4    4    0    0  0.49970090209E+02  0.33619653299E+02  0.77589050764E+02  0.98220933624E+02  0.00000000000E+00 0.  1.
        -13    1    3    3    0    0 -0.97301319725E+01  0.29007512896E+02  0.12087462479E+03  0.12468675226E+03  0.00000000000E+00 0. -1.
         13    1    3    3    0    0  0.25644398303E+02 -0.63889820002E+02  0.34718835098E+03  0.35394815344E+03  0.00000000000E+00 0.  1.
         -1    1    1    2    0  502 -0.23580523379E+02 -0.88206884533E+01 -0.15323109202E+03  0.15528558590E+03  0.00000000000E+00 0.  1.
<scales pt_clust_5="13000.00000" pt_clust_6="13000.00000" pt_clust_7="13000.00000" pt_clust_8="13000.00000" pt_clust_9="25.17629"></scales>
<clustering>
<clus scale="   25.176">  2  9  1 -1</clus>
<clus scale="   92.403">  7  8 -1 -1</clus>
<clus scale="  100.010">  1  7  2 -1</clus>
<clus scale="  110.294">  5  6 -1 -1</clus>
<clus scale="   25.176">  2  5  1 -1</clus>
</clustering>
</event>
<event>
 9    1  0.1487426E-004  0.3827867E+03  0.7546771E-02  0.1050222E+00
         21   -1    0    0  501  502  0.00000000000E+00  0.00000000000E+00  0.33443332330E+03  0.33443332330E+03  0.00000000000E+00 0.  1.
         -2   -1    0    0    0  501 -0.00000000000E+00 -0.00000000000E+00 -0.79976533207E+03  0.79976533207E+03  0.00000000000E+00 0.  1.
         23    2    1    2    0    0 -0.13672441350E+03  0.40006966453E+03 -0.26690460846E+03  0.50910897681E+03  0.95940494761E+02 0.  0.
        -24    2    1    2    0    0  0.27352475033E+03 -0.20967745845E+03 -0.82647290225E+02  0.36361585924E+03  0.81274183396E+02 0.  0.
         11    1    4    4    0    0  0.11734535358E+03 -0.81350542058E+02  0.59593580237E+01  0.14291030980E+03  0.00000000000E+00 0. -1.
        -12    1    4    4    0    0  0.15617939675E+03 -0.12832691639E+03 -0.88606648249E+02  0.22070554944E+03  0.00000000000E+00 0.  1.
        -11    1    3    3    0    0 -0.75407706110E+02  0.32985893689E+03 -0.22847473775E+03  0.40828169954E+03  0.00000000000E+00 0.  1.
         11    1    3    3    0    0 -0.61316707391E+02  0.70210727634E+02 -0.38429870712E+02  0.10082727728E+03  0.00000000000E+00 0. -1.
         -1    1    1    2    0  502 -0.13680033683E+03 -0.19039220608E+03 -0.11578011009E+03  0.26147381931E+03  0.00000000000E+00 0.  1.
<scales pt_clust_5="13000.00000" pt_clust_6="13000.00000" pt_clust_7="13000.00000" pt_clust_8="13000.00000" pt_clust_9="234.44313"></scales>
<clustering>
<clus scale="   81.274">  5  6 -1 -1</clus>
<clus scale="   95.940">  7  8 -1 -1</clus>
<clus scale="  234.443">  1  9  2 -1</clus>
<clus scale="  379.377">  1  5  2 -1</clus>
<clus scale="  234.443">  1  5  2 -1</clus>
</clustering>
</event>
<event>
 9    1  0.1487426E-004  0.1197900E+03  0.7546771E-02  0.1247078E+00
         21   -1    0    0  501  502  0.00000000000E+00  0.00000000000E+00  0.52671199000E+02  0.52671199000E+02  0.00000000000E+00 0. -1.
          1   -1    0    0  502    0 -0.00000000000E+00 -0.00000000000E+00 -0.31786445431E+03  0.31786445431E+03  0.00000000000E+00 0. -1.
        -24    2    1    2    0    0  0.69913260364E+02 -0.33116969208E+02 -0.14029394678E+03  0.17983502021E+03  0.81692382553E+02 0.  0.
         23    2    1    2    0    0 -0.56214849039E+02  0.49367888298E+02 -0.88365347420E+02  0.14843398953E+03  0.92881198180E+02 0.  0.
         11    1    3    3    0    0  0.87049997377E+02 -0.21226263148E+02 -0.98698157351E+02  0.13330259771E+03  0.00000000000E+00 0. -1.
        -12    1    3    3    0    0 -0.17136737013E+02 -0.11890706060E+02 -0.41595789432E+02  0.46532422509E+02  0.00000000000E+00 0.  1.
        -11    1    4    4    0    0 -0.20688855603E+02 -0.27566751077E+02 -0.23475654325E+02  0.41702048596E+02  0.00000000000E+00 0. -1.
         11    1    4    4    0    0 -0.35525993437E+02  0.76934639375E+02 -0.64889693094E+02  0.10673194093E+03  0.00000000000E+00 0.  1.
          2    1    1    2  501    0 -0.13698411325E+02 -0.16250919090E+02 -0.36533961104E+02  0.42266643563E+02  0.00000000000E+00 0. -1.
<scales pt_clust_5="13000.00000" pt_clust_6="13000.00000" pt_clust_7="13000.00000" pt_clust_8="13000.00000" pt_clust_9="21.25416"></scales>
<clustering>
<clus scale="   21.254">  1  9  2 -1</clus>
<clus scale="   81.692">  5  6 -1 -1</clus>
<clus scale="   92.881">  7  8 -1 -1</clus>
<clus scale="  111.339">  2  5  1 -1</clus>
<clus scale="   21.254">  1  5  2 -1</clus>
</clustering>
</event>
<event>
 9    1  0.1487426E-004  0.2011326E+03  0.7546771E-02  0.1149807E+00
          1   -1    0    0  502    0 -0.00000000000E+00  0.00000000000E+00  0.15847389974E+03  0.15847389974E+03  0.00000000000E+00 0. -1.
         21   -1    0    0  501  502  0.00000000000E+00 -0.00000000000E+00 -0.53186100810E+03  0.53186100810E+03  0.00000000000E+00 0. -1.
        -24    2    1    2    0    0  0.10533461721E+03  0.15889172368E+03  0.49648412630E+02  0.21258302807E+03  0.79903801599E+02 0.  0.
         23    2    1    2    0    0 -0.83687058191E+02 -0.10225723479E+03 -0.32536199807E+03  0.36279015037E+03  0.91083465286E+02 0.  0.
         13    1    3    3    0    0  0.82389305973E+02  0.11152383513E+03  0.71008440933E+02  0.15578113565E+03  0.00000000000E+00 0. -1.
        -14    1    3    3    0    0  0.22945311238E+02  0.47367888544E+02 -0.21360028303E+02  0.56801892416E+02  0.00000000000E+00 0.  1.
        -11    1    4    4    0    0 -0.22714498221E+02  0.10552850143E+02 -0.21612425370E+02  0.33081838008E+02  0.00000000000E+00 0.  1.
         11    1    4    4    0    0 -0.60972559970E+02 -0.11281008493E+03 -0.30374957269E+03  0.32970831237E+03  0.00000000000E+00 0. -1.
          2    1    1    2  501    0 -0.21647559020E+02 -0.56634488892E+02 -0.97673522926E+02  0.11496172939E+03  0.00000000000E+00 0. -1.
<scales pt_clust_5="13000.00000" pt_clust_6="13000.00000" pt_clust_7="13000.00000" pt_clust_8="13000.00000" pt_clust_9="60.63070"></scales>
<clustering>
<clus scale="   60.631">  2  9  1 -1</clus>
<clus scale="   79.904">  5  6 -1 -1</clus>
<clus scale="   91.083">  7  8 -1 -1</clus>
<clus scale="  196.323">  1  5  2 -1</clus>
<clus scale="   60.631">  2  5  1 -1</clus>
</clustering>
</event>
<event>
 9    1  0.1487426E-004  0.1223474E+03  0.7546771E-02  0.1242585E+00
          1   -1    0    0  502    0 -0.00000000000E+00  0.00000000000E+00  0.40094866685E+03  0.40094866685E+03  0.00000000000E+00 0. -1.
         21   -1    0    0  501  502  0.00000000000E+00 -0.00000000000E+00 -0.66473901297E+02  0.66473901297E+02  0.00000000000E+00 0. -1.
        -24    2    1    2    0    0 -0.43126201260E+02 -0.82721842217E+02  0.22468056656E+03  0.25575612966E+03  0.78911776380E+02 0.  0.
         23    2    1    2    0    0  0.40691076548E+02  0.56074009703E+02  0.13393196276E+03  0.17562939575E+03  0.90043632373E+02 0.  0.
         13    1    3    3    0    0 -0.48639419758E+02 -0.88639985819E+02  0.22597662096E+03  0.24756468541E+03  0.00000000000E+00 0. -1.
        -14    1    3    3    0    0  0.55132184978E+01  0.59181436024E+01 -0.12960543970E+01  0.81914442502E+01  0.00000000000E+00 0.  1.
        -11    1    4    4    0    0  0.30745326311E+02 -0.38769508856E+01  0.10275936849E+03  0.10733030164E+03  0.00000000000E+00 0.  1.
         11    1    4    4    0    0  0.99457502368E+01  0.59950960588E+02  0.31172594263E+02  0.68299094111E+02  0.00000000000E+00 0. -1.
          2    1    1    2  501    0  0.24351247120E+01  0.26647832514E+02 -0.24137763760E+02  0.36037042739E+02  0.00000000000E+00 0. -1.
<scales pt_clust_5="13000.00000" pt_clust_6="13000.00000" pt_clust_7="13000.00000" pt_clust_8="13000.00000" pt_clust_9="26.75886"></scales>
<clustering>
<clus scale="   26.759">  2  9  1 -1</clus>
<clus scale="   78.912">  5  6 -1 -1</clus>
<clus scale="   90.044">  7  8 -1 -1</clus>
<clus scale="  114.403">  1  5  2 -1</clus>
<clus scale="   26.759">  2  5  1 -1</clus>
</clustering>
</event>
<event>
 9    1  0.1487426E-004  0.2879271E+03  0.7546771E-02  0.1107761E+00
         21   -1    0    0  501  502  0.00000000000E+00  0.00000000000E+00  0.58222664497E+03  0.58222664497E+03  0.00000000000E+00 0. -1.
          1   -1    0    0  502    0 -0.00000000000E+00 -0.00000000000E+00 -0.93461624784E+03  0.93461624784E+03  0.00000000000E+00 0. -1.
         23    2    1    2    0    0  0.46066542633E+02 -0.15835471841E+03 -0.10840666384E+03  0.21739990845E+03  0.91172211988E+02 0.  0.
        -24    2    1    2    0    0 -0.28178796343E+03  0.29283175623E+03 -0.67409671310E+03  0.79086996053E+03  0.76902679187E+02 0.  0.
         11    1    4    4    0    0 -0.18456118508E+03  0.19451747768E+03 -0.51075227627E+03  0.57686026720E+03  0.00000000000E+00 0. -1.
        -12    1    4    4    0    0 -0.97226778355E+02  0.98314278547E+02 -0.16334443683E+03  0.21400969333E+03  0.00000000000E+00 0.  1.
        -11    1    3    3    0    0  0.69330087997E+02 -0.14581244425E+03 -0.98758009889E+02  0.18926456223E+03  0.00000000000E+00 0.  1.
         11    1    3    3    0    0 -0.23263545364E+02 -0.12542274157E+02 -0.96486539522E+01  0.28135346222E+02  0.00000000000E+00 0. -1.
          2    1    1    2  501    0  0.23572142080E+03 -0.13447703782E+03  0.43011377406E+03  0.50857302383E+03  0.00000000000E+00 0. -1.
<scales pt_clust_5="13000.00000" pt_clust_6="13000.00000" pt_clust_7="13000.00000" pt_clust_8="13000.00000" pt_clust_9="277.46712"></scales>
<clustering>
<clus scale="   76.903">  5  6 -1 -1</clus>
<clus scale="   91.172">  7  8 -1 -1</clus>
<clus scale="  188.443">  2  7  1 -1</clus>
<clus scale="  277.467">  1  9  2 -1</clus>
<clus scale="  277.467">  1  5  2 -1</clus>
</clustering>
</event>
<event>
 9    1  0.1487426E-004  0.1038538E+03  0.7546771E-02  0.1276717E+00
         21   -1    0    0  501  502  0.00000000000E+00  0.00000000000E+00  0.28205193989E+03  0.28205193989E+03  0.00000000000E+00 0. -1.
          3   -1    0    0  502    0 -0.00000000000E+00 -0.00000000000E+00 -0.97663204422E+02  0.97663204422E+02  0.00000000000E+00 0. -1.
        -24    2    1    2    0    0  0.11100665609E+02 -0.43189570315E+02 -0.46281001806E+01  0.97842353818E+02  0.86966333304E+02 0.  0.
         23    2    1    2    0    0 -0.11046241499E+02  0.12950988254E+02  0.21873633537E+03  0.23947440054E+03  0.95982584647E+02 0.  0.
         13    1    3    3    0    0 -0.36985533539E+02 -0.10522892680E+02 -0.91732411711E+01  0.39532383120E+02  0.00000000000E+00 0. -1.
        -14    1    3    3    0    0  0.48086199148E+02 -0.32666677635E+02  0.45451409905E+01  0.58309970698E+02  0.00000000000E+00 0.  1.
        -11    1    4    4    0    0 -0.14830903589E+02 -0.40863506702E+02  0.10184122588E+03  0.11073128361E+03  0.00000000000E+00 0.  1.
         11    1    4    4    0    0  0.37846620894E+01  0.53814494956E+02  0.11689510949E+03  0.12874311694E+03  0.00000000000E+00 0. -1.
          4    1    1    2  501    0 -0.54424109556E-01  0.30238582061E+02 -0.29719499720E+02  0.42398389953E+02  0.00000000000E+00 0. -1.
<scales pt_clust_5="13000.00000" pt_clust_6="13000.00000" pt_clust_7="13000.00000" pt_clust_8="13000.00000" pt_clust_9="30.23865"></scales>
<clustering>
<clus scale="   30.239">  1  9  2 -1</clus>
<clus scale="   86.966">  5  6 -1 -1</clus>
<clus scale="   95.583">  2  5  1 -1</clus>
<clus scale="   95.983">  7  8 -1 -1</clus>
<clus scale="   30.239">  1  5  2 -1</clus>
</clustering>
</event>
<event>
 9    1  0.1487426E-004  0.1246985E+03  0.7546771E-02  0.1239310E+00
          1   -1    0    0  502    0 -0.00000000000E+00  0.00000000000E+00  0.70589529962E+03  0.70589529962E+03  0.00000000000E+00 0. -1.
         21   -1    0    0  501  502  0.00000000000E+00 -0.00000000000E+00 -0.46851879323E+02  0.46851879323E+02  0.00000000000E+00 0.  1.
        -24    2    1    2    0    0  0.59217446091E+02  0.67539328048E+02  0.57507784399E+03  0.58680412273E+03  0.74540492700E+02 0.  0.
         23    2    1    2    0    0 -0.38246538179E+02 -0.69606591898E+02  0.56774127826E+02  0.13154207615E+03  0.88159746428E+02 0.  0.
         13    1    3    3    0    0  0.60081219399E+02  0.52759409131E+02  0.27570507592E+03  0.28706549264E+03  0.00000000000E+00 0. -1.
        -14    1    3    3    0    0 -0.86377330808E+00  0.14779918917E+02  0.29937276807E+03  0.29973863009E+03  0.00000000000E+00 0.  1.
        -13    1    4    4    0    0 -0.48406818895E+02 -0.28099095663E+02  0.67298642179E+02  0.87532202827E+02  0.00000000000E+00 0.  1.
         13    1    4    4    0    0  0.10160280716E+02 -0.41507496235E+02 -0.10524514353E+02  0.44009873327E+02  0.00000000000E+00 0. -1.
          2    1    1    2  501    0 -0.20970907912E+02  0.20672638493E+01  0.27191448486E+02  0.34400980062E+02  0.00000000000E+00 0. -1.
<scales pt_clust_5="13000.00000" pt_clust_6="13000.00000" pt_clust_7="13000.00000" pt_clust_8="13000.00000" pt_clust_9="21.07255"></scales>
<clustering>
<clus scale="   21.073">  2  9  1 -1</clus>
<clus scale="   74.540">  5  6 -1 -1</clus>
<clus scale="   88.160">  7  8 -1 -1</clus>
<clus scale="  115.472">  1  5  2 -1</clus>
<clus scale="   21.073">  2  5  1 -1</clus>
</clustering>
</event>
<event>
 9    1  0.1487426E-004  0.9538280E+02  0.7546771E-02  0.1296493E+00
         21   -1    0    0  501  502  0.00000000000E+00  0.00000000000E+00  0.94249255251E+02  0.94249255251E+02  0.00000000000E+00 0. -1.
          1   -1    0    0  502    0 -0.00000000000E+00 -0.00000000000E+00 -0.32265520641E+03  0.32265520641E+03  0.00000000000E+00 0. -1.
         23    2    1    2    0    0 -0.23654211922E+02  0.17491935037E+02 -0.21542270703E+03  0.23608327876E+03  0.91993925194E+02 0.  0.
        -24    2    1    2    0    0 -0.11021326551E+02 -0.31269339261E+02 -0.70319231679E+02  0.11241339603E+03  0.81195665197E+02 0.  0.
         11    1    4    4    0    0 -0.15770140171E+01 -0.26372920120E+02 -0.87944062401E+02  0.91826880599E+02  0.00000000000E+00 0. -1.
        -12    1    4    4    0    0 -0.94443125340E+01 -0.48964191411E+01  0.17624830723E+02  0.20586515433E+02  0.00000000000E+00 0.  1.
        -11    1    3    3    0    0  0.13786202316E+02  0.46729971956E+02 -0.11921912055E+03  0.12879032711E+03  0.00000000000E+00 0.  1.
         11    1    3    3    0    0 -0.37440414238E+02 -0.29238036919E+02 -0.96203586480E+02  0.10729295165E+03  0.00000000000E+00 0. -1.
          2    1    1    2  501    0  0.34675538473E+02  0.13777404224E+02  0.57335987552E+02  0.68407786868E+02  0.00000000000E+00 0. -1.
<scales pt_clust_5="13000.00000" pt_clust_6="13000.00000" pt_clust_7="13000.00000" pt_clust_8="13000.00000" pt_clust_9="37.31233"></scales>
<clustering>
<clus scale="   37.312">  1  9  2 -1</clus>
<clus scale="   81.196">  5  6 -1 -1</clus>
<clus scale="   85.016">  1  5  2 -1</clus>
<clus scale="   91.994">  7  8 -1 -1</clus>
<clus scale="   37.312">  1  5  2 -1</clus>
</clustering>
</event>
<event>
 9    1  0.1487426E-004  0.1010942E+03  0.7546771E-02  0.1289516E+00
         21   -1    0    0  501  502  0.00000000000E+00  0.00000000000E+00  0.17704969338E+03  0.17704969338E+03  0.00000000000E+00 0.  1.
         -2   -1    0    0    0  501 -0.00000000000E+00 -0.00000000000E+00 -0.10723963646E+03  0.10723963646E+03  0.00000000000E+00 0.  1.
         23    2    1    2    0    0 -0.48902475821E+01 -0.32328392260E+02 -0.47898346626E+02  0.11451431502E+03  0.98743289734E+02 0.  0.
        -24    2    1    2    0    0  0.42588869443E+01 -0.10735908191E+02  0.78539982793E+02  0.11155905675E+03  0.78380459313E+02 0.  0.
         13    1    4    4    0    0 -0.20616675084E+02 -0.34558248929E+02  0.23411272151E+02  0.46555424220E+02  0.00000000000E+00 0. -1.
        -14    1    4    4    0    0  0.24875562029E+02  0.23822340738E+02  0.55128710642E+02  0.65003632526E+02  0.00000000000E+00 0.  1.
        -13    1    3    3    0    0 -0.13067077304E+02 -0.58949515751E+02 -0.14987596991E+01  0.60399008247E+02  0.00000000000E+00 0.  1.
         13    1    3    3    0    0  0.81768297217E+01  0.26621123491E+02 -0.46399586926E+02  0.54115306773E+02  0.00000000000E+00 0. -1.
         -1    1    1    2    0  502  0.63136063779E+00  0.43064300450E+02  0.39168420759E+02  0.58215958072E+02  0.00000000000E+00 0.  1.
<scales pt_clust_5="13000.00000" pt_clust_6="13000.00000" pt_clust_7="13000.00000" pt_clust_8="13000.00000" pt_clust_9="43.06893"></scales>
<clustering>
<clus scale="   43.069">  1  9  2 -1</clus>
<clus scale="   78.380">  5  6 -1 -1</clus>
<clus scale="   81.322">  1  5  2 -1</clus>
<clus scale="   98.743">  7  8 -1 -1</clus>
<clus scale="   43.069">  1  5  2 -1</clus>
</clustering>
</event>
<event>
 9    1  0.1487426E-004  0.8643651E+02  0.7546771E-02  0.1313181E+00
         21   -1    0    0  501  502  0.00000000000E+00  0.00000000000E+00  0.17830339055E+03  0.17830339055E+03  0.00000000000E+00 0.  1.
          3   -1    0    0  502    0 -0.00000000000E+00 -0.00000000000E+00 -0.91950052016E+02  0.91950052016E+02  0.00000000000E+00 0. -1.
        -24    2    1    2    0    0 -0.73565703500E+01  0.25233997657E+02 -0.32576827594E+02  0.88488134872E+02  0.77961699262E+02 0.  0.
         23    2    1    2    0    0  0.72089466237E+01 -0.45302247227E+02  0.40894717905E+02  0.10119057460E+03  0.80392113547E+02 0.  0.
         13    1    3    3    0    0  0.71225653650E+01  0.31324082874E+02 -0.53452653432E+02  0.62362771460E+02  0.00000000000E+00 0. -1.
        -14    1    3    3    0    0 -0.14479135715E+02 -0.60900852165E+01  0.20875825838E+02  0.26125363412E+02  0.00000000000E+00 0.  1.
        -13    1    4    4    0    0 -0.39954948103E+01  0.22980936841E+02  0.90771499696E+01  0.25029624217E+02  0.00000000000E+00 0. -1.
         13    1    4    4    0    0  0.11204441434E+02 -0.68283184068E+02  0.31817567935E+02  0.76160950385E+02  0.00000000000E+00 0.  1.
          4    1    1    2  501    0  0.14762372628E+00  0.20068249570E+02  0.78035448223E+02  0.80574733093E+02  0.00000000000E+00 0. -1.
<scales pt_clust_5="13000.00000" pt_clust_6="13000.00000" pt_clust_7="13000.00000" pt_clust_8="13000.00000" pt_clust_9="20.06879"></scales>
<clustering>
<clus scale="   20.069">  1  9  2 -1</clus>
<clus scale="   77.962">  5  6 -1 -1</clus>
<clus scale="   80.392">  7  8 -1 -1</clus>
<clus scale="   84.181">  2  5  1 -1</clus>
<clus scale="   20.069">  1  5  2 -1</clus>
</clustering>
</event>
<event>
 9    1  0.1487426E-004  0.1083316E+03  0.7546771E-02  0.1265113E+00
         21   -1    0    0  501  502  0.00000000000E+00  0.00000000000E+00  0.15915684122E+03  0.15915684122E+03  0.00000000000E+00 0. -1.
          3   -1    0    0  502    0 -0.00000000000E+00 -0.00000000000E+00 -0.16086152516E+03  0.16086152516E+03  0.00000000000E+00 0. -1.
        -24    2    1    2    0    0  0.47728487715E+02  0.67855766953E+02 -0.86195125874E+02  0.14520917519E+03  0.82302437312E+02 0.  0.
         23    2    1    2    0    0  0.61159891198E-01 -0.27959022368E+02  0.44754052924E+02  0.10095405421E+03  0.86064424338E+02 0.  0.
         11    1    3    3    0    0  0.53749241938E+02  0.24666695818E+02 -0.82416334764E+02  0.10143904144E+03  0.00000000000E+00 0. -1.
        -12    1    3    3    0    0 -0.60207542231E+01  0.43189071135E+02 -0.37787911106E+01  0.43770133758E+02  0.00000000000E+00 0.  1.
        -13    1    4    4    0    0  0.61977682539E+01  0.26583302501E+02  0.36303953177E+02  0.45420934815E+02  0.00000000000E+00 0.  1.
         13    1    4    4    0    0 -0.61366083627E+01 -0.54542324869E+02  0.84500997466E+01  0.55533119398E+02  0.00000000000E+00 0. -1.
          4    1    1    2  501    0 -0.47789647606E+02 -0.39896744585E+02  0.39736389012E+02  0.73855136981E+02  0.00000000000E+00 0. -1.
<scales pt_clust_5="13000.00000" pt_clust_6="13000.00000" pt_clust_7="13000.00000" pt_clust_8="13000.00000" pt_clust_9="62.25432"></scales>
<clustering>
<clus scale="   62.254">  1  9  2 -1</clus>
<clus scale="   82.302">  5  6 -1 -1</clus>
<clus scale="   86.064">  7  8 -1 -1</clus>
<clus scale="  105.368">  2  5  1 -1</clus>
<clus scale="   62.254">  1  5  2 -1</clus>
</clustering>
</event>
<event>
 9    1  0.1487426E-004  0.3508087E+03  0.7546771E-02  0.1062532E+00
         21   -1    0    0  501  502  0.00000000000E+00  0.00000000000E+00  0.16403924428E+03  0.16403924428E+03  0.00000000000E+00 0. -1.
          1   -1    0    0  502    0 -0.00000000000E+00 -0.00000000000E+00 -0.18848010985E+04  0.18848010985E+04  0.00000000000E+00 0. -1.
         23    2    1    2    0    0 -0.32815798999E+03 -0.15390756738E+03 -0.10597672164E+04  0.11237700621E+04  0.91528104312E+02 0.  0.
        -24    2    1    2    0    0  0.27790836949E+03  0.14606029953E+03 -0.75301587238E+03  0.81992984320E+03  0.81764116803E+02 0.  0.
         11    1    4    4    0    0  0.14398062588E+03  0.11097582009E+03 -0.49126439952E+03  0.52381939971E+03  0.00000000000E+00 0. -1.
        -12    1    4    4    0    0  0.13392774361E+03  0.35084479437E+02 -0.26175147286E+03  0.29611044350E+03  0.00000000000E+00 0.  1.
        -11    1    3    3    0    0 -0.11302859056E+03 -0.90937142080E+02 -0.50514300859E+03  0.52556111464E+03  0.00000000000E+00 0. -1.
         11    1    3    3    0    0 -0.21512939943E+03 -0.62970425304E+02 -0.55462420777E+03  0.59820894745E+03  0.00000000000E+00 0.  1.
          2    1    1    2  501    0  0.50249620497E+02  0.78472678563E+01  0.92021234572E+02  0.10514043744E+03  0.00000000000E+00 0. -1.
<scales pt_clust_5="13000.00000" pt_clust_6="13000.00000" pt_clust_7="13000.00000" pt_clust_8="13000.00000" pt_clust_9="50.85867"></scales>
<clustering>
<clus scale="   50.859">  1  9  2 -1</clus>
<clus scale="   81.764">  5  6 -1 -1</clus>
<clus scale="   91.528">  7  8 -1 -1</clus>
<clus scale="  348.389">  1  5  2 -1</clus>
<clus scale="   50.859">  1  5  2 -1</clus>
</clustering>
</event>
<event>
 9    1  0.1487426E-004  0.1755126E+03  0.7546771E-02  0.1177020E+00
         21   -1    0    0  501  502  0.00000000000E+00  0.00000000000E+00  0.82335240342E+02  0.82335240342E+02  0.00000000000E+00 0.  1.
          1   -1    0    0  502    0 -0.00000000000E+00 -0.00000000000E+00 -0.49623031200E+03  0.49623031200E+03  0.00000000000E+00 0. -1.
        -24    2    1    2    0    0 -0.29305364276E+02  0.15794250301E+03 -0.28322144250E+03  0.33981736129E+03  0.97246156291E+02 0.  0.
         23    2    1    2    0    0  0.22462311292E+02 -0.12913410421E+03 -0.14655847280E+03  0.20514641324E+03  0.58527708122E+02 0.  0.
         13    1    3    3    0    0  0.30853454506E+02  0.69130772010E+02 -0.80756595375E+02  0.11069158500E+03  0.00000000000E+00 0. -1.
        -14    1    3    3    0    0 -0.60158818782E+02  0.88811730996E+02 -0.20246484712E+03  0.22912577629E+03  0.00000000000E+00 0.  1.
        -13    1    4    4    0    0  0.42329773332E+02 -0.80258451585E+02 -0.90041937801E+02  0.12783105775E+03  0.00000000000E+00 0. -1.
         13    1    4    4    0    0 -0.19867462040E+02 -0.48875652624E+02 -0.56516534994E+02  0.77315355493E+02  0.00000000000E+00 0.  1.
          2    1    1    2  501    0  0.68430529845E+01 -0.28808398796E+02  0.15884843630E+02  0.33601777817E+02  0.00000000000E+00 0. -1.
<scales pt_clust_5="13000.00000" pt_clust_6="13000.00000" pt_clust_7="13000.00000" pt_clust_8="13000.00000" pt_clust_9="29.60999"></scales>
<clustering>
<clus scale="   29.610">  1  9  2 -1</clus>
<clus scale="   58.528">  7  8 -1 -1</clus>
<clus scale="   97.246">  5  6 -1 -1</clus>
<clus scale="  157.396">  1  7  2 -1</clus>
<clus scale="   29.610">  1  5  2 -1</clus>
</clustering>
</event>
<event>
 9    1  0.1487426E-004  0.1623587E+03  0.7546771E-02  0.1218930E+00
         21   -1    0    0  501  502  0.00000000000E+00  0.00000000000E+00  0.53168898380E+03  0.53168898380E+03  0.00000000000E+00 0. -1.
          1   -1    0    0  502    0 -0.00000000000E+00 -0.00000000000E+00 -0.14043080180E+03  0.14043080180E+03  0.00000000000E+00 0. -1.
        -24    2    1    2    0    0  0.32430430574E+01 -0.15014788529E+02 -0.81158995174E+02  0.11377754979E+03  0.78246962473E+02 0.  0.
         23    2    1    2    0    0  0.38767989770E+02  0.13628437003E+03  0.29029278783E+03  0.33554068404E+03  0.90781393660E+02 0.  0.
         13    1    3    3    0    0 -0.24811709229E+02  0.10541039523E+01  0.16420725358E+01  0.24888319594E+02  0.00000000000E+00 0. -1.
        -14    1    3    3    0    0  0.28054752286E+02 -0.16068892481E+02 -0.82801067710E+02  0.88889230199E+02  0.00000000000E+00 0.  1.
        -13    1    4    4    0    0 -0.22445404720E+02  0.10645192865E+02  0.22707426340E+02  0.33656255513E+02  0.00000000000E+00 0.  1.
         13    1    4    4    0    0  0.61213394489E+02  0.12563917717E+03  0.26758536149E+03  0.30188442853E+03  0.00000000000E+00 0. -1.
          2    1    1    2  501    0 -0.42011032827E+02 -0.12126958150E+03  0.18212438934E+03  0.22280155177E+03  0.00000000000E+00 0. -1.
<scales pt_clust_5="13000.00000" pt_clust_6="13000.00000" pt_clust_7="13000.00000" pt_clust_8="13000.00000" pt_clust_9="134.60728"></scales>
<clustering>
<clus scale="   78.247">  5  6 -1 -1</clus>
<clus scale="   79.741">  2  5  1 -1</clus>
<clus scale="   90.781">  7  8 -1 -1</clus>
<clus scale="  134.607">  1  9  2 -1</clus>
<clus scale="  134.607">  1  5  2 -1</clus>
</clustering>
</event>
<event>
 9    1  0.1487426E-004  0.9978630E+02  0.7546771E-02  0.1288405E+00
         21   -1    0    0  501  502  0.00000000000E+00  0.00000000000E+00  0.18604748135E+03  0.18604748135E+03  0.00000000000E+00 0. -1.
          3   -1    0    0  502    0 -0.00000000000E+00 -0.00000000000E+00 -0.15994132760E+03  0.15994132760E+03  0.00000000000E+00 0. -1.
         23    2    1    2    0    0 -0.37970040061E+01 -0.38236905722E+02 -0.11526432329E+03  0.15333396789E+03  0.93535893036E+02 0.  0.
        -24    2    1    2    0    0 -0.13370705449E+02  0.77081694092E+01  0.13479438959E+03  0.15701807754E+03  0.79037697127E+02 0.  0.
         11    1    4    4    0    0 -0.20888587284E+02 -0.11773900435E+02  0.13399179107E+03  0.13612038013E+03  0.00000000000E+00 0. -1.
        -12    1    4    4    0    0  0.75178818351E+01  0.19482069844E+02  0.80259852011E+00  0.20897697411E+02  0.00000000000E+00 0.  1.
        -13    1    3    3    0    0 -0.37857860544E+02 -0.18904909257E+02 -0.13696945019E+02  0.44477179562E+02  0.00000000000E+00 0. -1.
         13    1    3    3    0    0  0.34060856538E+02 -0.19331996465E+02 -0.10156737828E+03  0.10885678833E+03  0.00000000000E+00 0.  1.
          4    1    1    2  501    0  0.17167709455E+02  0.30528736313E+02  0.65760874487E+01  0.35636763531E+02  0.00000000000E+00 0. -1.
<scales pt_clust_5="13000.00000" pt_clust_6="13000.00000" pt_clust_7="13000.00000" pt_clust_8="13000.00000" pt_clust_9="35.02476"></scales>
<clustering>
<clus scale="   35.025">  1  9  2 -1</clus>
<clus scale="   79.038">  5  6 -1 -1</clus>
<clus scale="   86.344">  1  5  2 -1</clus>
<clus scale="   93.536">  7  8 -1 -1</clus>
<clus scale="   35.025">  1  5  2 -1</clus>
</clustering>
</event>
<event>
 9    1  0.1487426E-004  0.1032266E+03  0.7546771E-02  0.1277537E+00
         -4   -1    0    0    0  501 -0.00000000000E+00  0.00000000000E+00  0.32901401197E+02  0.32901401197E+02  0.00000000000E+00 0.  1.
         21   -1    0    0  501  502  0.00000000000E+00 -0.00000000000E+00 -0.54682494911E+03  0.54682494911E+03  0.00000000000E+00 0.  1.
        -24    2    1    2    0    0 -0.38347231623E+02  0.11381462018E+02 -0.15341026214E+03  0.17861475883E+03  0.82270746271E+02 0.  0.
         23    2    1    2    0    0  0.66839529662E+02  0.35761363990E+02 -0.27546867719E+03  0.29978616258E+03  0.90787407068E+02 0.  0.
         13    1    3    3    0    0  0.23679138823E+02  0.16887873467E+02 -0.44568907492E+02  0.53219257798E+02  0.00000000000E+00 0. -1.
        -14    1    3    3    0    0 -0.62026370446E+02 -0.55064114492E+01 -0.10884135465E+03  0.12539550103E+03  0.00000000000E+00 0.  1.
        -11    1    4    4    0    0  0.28314347169E+02 -0.10768542905E+02 -0.17809707676E+02  0.35140424861E+02  0.00000000000E+00 0. -1.
         11    1    4    4    0    0  0.38525182493E+02  0.46529906895E+02 -0.25765896952E+03  0.26464573772E+03  0.00000000000E+00 0.  1.
         -3    1    1    2    0  502 -0.28492298039E+02 -0.47142826007E+02 -0.85044608577E+02  0.10132542889E+03  0.00000000000E+00 0.  1.
<scales pt_clust_5="13000.00000" pt_clust_6="13000.00000" pt_clust_7="13000.00000" pt_clust_8="13000.00000" pt_clust_9="55.08412"></scales>
<clustering>
<clus scale="   55.084">  2  9  1 -1</clus>
<clus scale="   82.271">  5  6 -1 -1</clus>
<clus scale="   90.787">  7  8 -1 -1</clus>
<clus scale="   95.822">  1  5  2 -1</clus>
<clus scale="   55.084">  2  5  1 -1</clus>
</clustering>
</event>
<event>
 9    1  0.1487426E-004  0.1320091E+03  0.7546771E-02  0.1227577E+00
          1   -1    0    0  502    0 -0.00000000000E+00  0.00000000000E+00  0.41469428256E+03  0.41469428256E+03  0.00000000000E+00 0. -1.
         21   -1    0    0  501  502  0.00000000000E+00 -0.00000000000E+00 -0.13851155149E+03  0.13851155149E+03  0.00000000000E+00 0.  1.
        -24    2    1    2    0    0 -0.30880584013E+02  0.89702823434E+02  0.32322192126E+03  0.34592589243E+03  0.78689933723E+02 0.  0.
         23    2    1    2    0    0  0.56785430139E+02 -0.85283976769E+02  0.16971128958E+02  0.13808522929E+03  0.91003129395E+02 0.  0.
         13    1    3    3    0    0  0.16263661892E+01  0.82776738722E+02  0.27621094909E+03  0.28835242662E+03  0.00000000000E+00 0. -1.
        -14    1    3    3    0    0 -0.32506950202E+02  0.69260847117E+01  0.47010972164E+02  0.57573465804E+02  0.00000000000E+00 0.  1.
        -13    1    4    4    0    0  0.45442901311E+02 -0.49023861746E+02 -0.33613753704E+02  0.74821659553E+02  0.00000000000E+00 0.  1.
         13    1    4    4    0    0  0.11342528828E+02 -0.36260115023E+02  0.50584882662E+02  0.63263569735E+02  0.00000000000E+00 0. -1.
          2    1    1    2  501    0 -0.25904846126E+02 -0.44188466651E+01 -0.64010319139E+02  0.69194712334E+02  0.00000000000E+00 0. -1.
<scales pt_clust_5="13000.00000" pt_clust_6="13000.00000" pt_clust_7="13000.00000" pt_clust_8="13000.00000" pt_clust_9="26.27903"></scales>
<clustering>
<clus scale="   26.279">  2  9  1 -1</clus>
<clus scale="   78.690">  5  6 -1 -1</clus>
<clus scale="   91.003">  7  8 -1 -1</clus>
<clus scale="  123.842">  1  5  2 -1</clus>
<clus scale="   26.279">  2  5  1 -1</clus>
</clustering>
</event>
<event>
 9    1  0.1487426E-004  0.9611936E+02  0.7546771E-02  0.1292263E+00
          1   -1    0    0  502    0 -0.00000000000E+00  0.00000000000E+00  0.95078304637E+02  0.95078304637E+02  0.00000000000E+00 0. -1.
         21   -1    0    0  501  502  0.00000000000E+00 -0.00000000000E+00 -0.14040613780E+03  0.14040613780E+03  0.00000000000E+00 0.  1.
         23    2    1    2    0    0 -0.41325744438E+02  0.14392292266E+02  0.17003247881E+02  0.99503868345E+02  0.87732286800E+02 0.  0.
        -24    2    1    2    0    0  0.21512459985E+02 -0.30237924226E+02 -0.27930312769E+02  0.93236414830E+02  0.80844348491E+02 0.  0.
         11    1    4    4    0    0 -0.13158194975E+02 -0.28641344445E+02  0.17510869968E+02  0.36056833939E+02  0.00000000000E+00 0. -1.
        -12    1    4    4    0    0  0.34670654960E+02 -0.15965797808E+01 -0.45441182737E+02  0.57179580891E+02  0.00000000000E+00 0.  1.
        -11    1    3    3    0    0 -0.58515072926E+02 -0.16095575290E+02  0.21130050526E+02  0.64261655275E+02  0.00000000000E+00 0. -1.
         11    1    3    3    0    0  0.17189328488E+02  0.30487867556E+02 -0.41268026454E+01  0.35242213070E+02  0.00000000000E+00 0.  1.
          2    1    1    2  501    0  0.19813284453E+02  0.15845631960E+02 -0.34400768272E+02  0.42744159259E+02  0.00000000000E+00 0. -1.
<scales pt_clust_5="13000.00000" pt_clust_6="13000.00000" pt_clust_7="13000.00000" pt_clust_8="13000.00000" pt_clust_9="25.37026"></scales>
<clustering>
<clus scale="   25.370">  2  9  1 -1</clus>
<clus scale="   80.844">  5  6 -1 -1</clus>
<clus scale="   87.732">  7  8 -1 -1</clus>
<clus scale="   89.877">  2  5  1 -1</clus>
<clus scale="   25.370">  2  5  1 -1</clus>
</clustering>
</event>
<event>
 9    1  0.1487426E-004  0.1602432E+03  0.7546771E-02  0.1191249E+00
         21   -1    0    0  501  502  0.00000000000E+00  0.00000000000E+00  0.55627032530E+03  0.55627032530E+03  0.00000000000E+00 0. -1.
         -2   -1    0    0    0  501 -0.00000000000E+00 -0.00000000000E+00 -0.15493140126E+03  0.15493140126E+03  0.00000000000E+00 0.  1.
        -24    2    1    2    0    0 -0.11770626740E+03  0.61747301979E+02 -0.95007318764E+02  0.18268209250E+03  0.81724302468E+02 0.  0.
         23    2    1    2    0    0  0.67207528005E+02 -0.37529753141E+02  0.32226280204E+03  0.34564903308E+03  0.98461191859E+02 0.  0.
         11    1    3    3    0    0 -0.33952275555E+02  0.40500527817E+01 -0.70066580293E+02  0.77964643377E+02  0.00000000000E+00 0. -1.
        -12    1    3    3    0    0 -0.83753991847E+02  0.57697249197E+02 -0.24940738471E+02  0.10471744912E+03  0.00000000000E+00 0.  1.
        -13    1    4    4    0    0  0.57802444748E+02  0.18415337048E+02  0.22515640793E+03  0.23318588141E+03  0.00000000000E+00 0. -1.
         13    1    4    4    0    0  0.94050832567E+01 -0.55945090189E+02  0.97106394108E+02  0.11246315167E+03  0.00000000000E+00 0.  1.
         -1    1    1    2    0  502  0.50498739397E+02 -0.24217548838E+02  0.17408344077E+03  0.18287060098E+03  0.00000000000E+00 0.  1.
<scales pt_clust_5="13000.00000" pt_clust_6="13000.00000" pt_clust_7="13000.00000" pt_clust_8="13000.00000" pt_clust_9="56.00547"></scales>
<clustering>
<clus scale="   56.005">  1  9  2 -1</clus>
<clus scale="   81.724">  5  6 -1 -1</clus>
<clus scale="   98.461">  7  8 -1 -1</clus>
<clus scale="  150.539">  2  5  1 -1</clus>
<clus scale="   56.005">  1  5  2 -1</clus>
</clustering>
</event>
<event>
 9    1  0.1487426E-004  0.9650614E+02  0.7546771E-02  0.1289782E+00
         21   -1    0    0  501  502  0.00000000000E+00  0.00000000000E+00  0.78542891416E+03  0.78542891416E+03  0.00000000000E+00 0. -1.
          3   -1    0    0  502    0 -0.00000000000E+00 -0.00000000000E+00 -0.24605816026E+02  0.24605816026E+02  0.00000000000E+00 0. -1.
        -24    2    1    2    0    0 -0.17429454335E+02 -0.24619242477E+02  0.21000628844E+03  0.22829050607E+03  0.84285354608E+02 0.  0.
         23    2    1    2    0    0 -0.38538896343E+01  0.68029193118E+02  0.49730116385E+03  0.50962398496E+03  0.88121137628E+02 0.  0.
         11    1    3    3    0    0  0.30915674082E+02  0.37890763267E+01  0.10120498788E+03  0.10588949700E+03  0.00000000000E+00 0. -1.
        -12    1    3    3    0    0 -0.48345128418E+02 -0.28408318803E+02  0.10880130056E+03  0.12240100907E+03  0.00000000000E+00 0.  1.
        -11    1    4    4    0    0  0.27203330091E+02  0.72070618098E+02  0.40181900914E+03  0.40913654355E+03  0.00000000000E+00 0. -1.
         11    1    4    4    0    0 -0.31057219725E+02 -0.40414249804E+01  0.95482154711E+02  0.10048744141E+03  0.00000000000E+00 0.  1.
          4    1    1    2  501    0  0.21283343970E+02 -0.43409950641E+02  0.53515645848E+02  0.72120239155E+02  0.00000000000E+00 0. -1.
<scales pt_clust_5="13000.00000" pt_clust_6="13000.00000" pt_clust_7="13000.00000" pt_clust_8="13000.00000" pt_clust_9="48.34674"></scales>
<clustering>
<clus scale="   48.347">  1  9  2 -1</clus>
<clus scale="   84.285">  5  6 -1 -1</clus>
<clus scale="   88.121">  7  8 -1 -1</clus>
<clus scale="   93.017">  2  5  1 -1</clus>
<clus scale="   48.347">  1  5  2 -1</clus>
</clustering>
</event>
<event>
 9    1  0.1487426E-004  0.2086612E+03  0.7546771E-02  0.1143509E+00
         21   -1    0    0  501  502  0.00000000000E+00  0.00000000000E+00  0.29951073105E+03  0.29951073105E+03  0.00000000000E+00 0. -1.
         -2   -1    0    0    0  501 -0.00000000000E+00 -0.00000000000E+00 -0.36631523863E+03  0.36631523863E+03  0.00000000000E+00 0.  1.
        -24    2    1    2    0    0  0.21286532687E+03 -0.54036387445E+01 -0.28417511997E+02  0.22907705747E+03  0.79548077135E+02 0.  0.
         23    2    1    2    0    0 -0.14079064050E+03 -0.32811699666E+02  0.15282461658E+03  0.22886179590E+03  0.90131826260E+02 0.  0.
         11    1    3    3    0    0  0.18596186670E+03 -0.32849642055E+02 -0.25090780414E+02  0.19050055672E+03  0.00000000000E+00 0. -1.
        -12    1    3    3    0    0  0.26903460166E+02  0.27446003311E+02 -0.33267315835E+01  0.38576500744E+02  0.00000000000E+00 0.  1.
        -13    1    4    4    0    0 -0.38395983780E+01  0.20713754102E+02  0.33145246917E+02  0.39273521843E+02  0.00000000000E+00 0.  1.
         13    1    4    4    0    0 -0.13695104212E+03 -0.53525453768E+02  0.11967936966E+03  0.18958827406E+03  0.00000000000E+00 0. -1.
         -1    1    1    2    0  502 -0.72074686370E+02  0.38215338410E+02 -0.19121161215E+03  0.20788711631E+03  0.00000000000E+00 0.  1.
<scales pt_clust_5="13000.00000" pt_clust_6="13000.00000" pt_clust_7="13000.00000" pt_clust_8="13000.00000" pt_clust_9="81.57928"></scales>
<clustering>
<clus scale="   79.548">  5  6 -1 -1</clus>
<clus scale="   81.579">  1  9  2 -1</clus>
<clus scale="   90.132">  7  8 -1 -1</clus>
<clus scale="  204.313">  2  5  1 -1</clus>
<clus scale="   81.579">  1  5  2 -1</clus>
</clustering>
</event>
<event>
 9    1  0.1487426E-004  0.2008759E+03  0.7546771E-02  0.1171262E+00
          1   -1    0    0  502    0 -0.00000000000E+00  0.00000000000E+00  0.14710105410E+04  0.14710105410E+04  0.00000000000E+00 0. -1.
         21   -1    0    0  501  502  0.00000000000E+00 -0.00000000000E+00 -0.53334322433E+02  0.53334322433E+02  0.00000000000E+00 0. -1.
        -24    2    1    2    0    0 -0.82348289862E+02  0.38877167970E+02  0.42467794786E+03  0.44121192588E+03  0.77613974969E+02 0.  0.
         23    2    1    2    0    0  0.68601805689E+02 -0.20934206840E+03  0.74579572999E+03  0.78253961719E+03  0.87330820723E+02 0.  0.
         11    1    3    3    0    0 -0.74078708449E+02  0.20384742888E+02  0.40741618536E+03  0.41459756497E+03  0.00000000000E+00 0. -1.
        -12    1    3    3    0    0 -0.82695814133E+01  0.18492425082E+02  0.17261762505E+02  0.26614360916E+02  0.00000000000E+00 0.  1.
        -11    1    4    4    0    0  0.12712606875E+02 -0.15373913010E+03  0.42285512017E+03  0.45011529984E+03  0.00000000000E+00 0.  1.
         11    1    4    4    0    0  0.55889198814E+02 -0.55602938309E+02  0.32294060982E+03  0.33242431735E+03  0.00000000000E+00 0. -1.
          2    1    1    2  501    0  0.13746484173E+02  0.17046490043E+03  0.24720254069E+03  0.30059332034E+03  0.00000000000E+00 0. -1.
<scales pt_clust_5="13000.00000" pt_clust_6="13000.00000" pt_clust_7="13000.00000" pt_clust_8="13000.00000" pt_clust_9="180.89896"></scales>
<clustering>
<clus scale="   77.614">  5  6 -1 -1</clus>
<clus scale="   87.331">  7  8 -1 -1</clus>
<clus scale="  119.652">  1  5  2 -1</clus>
<clus scale="  180.899">  2  9  1 -1</clus>
<clus scale="  180.899">  2  5  1 -1</clus>
</clustering>
</event>
<event>
 9    1  0.1487426E-004  0.1480226E+03  0.7546771E-02  0.1218649E+00
         21   -1    0    0  501  502  0.00000000000E+00  0.00000000000E+00  0.28320007486E+03  0.28320007486E+03  0.00000000000E+00 0. -1.
          1   -1    0    0  502    0 -0.00000000000E+00 -0.00000000000E+00 -0.47212629366E+03  0.47212629366E+03  0.00000000000E+00 0. -1.
        -24    2    1    2    0    0 -0.12713659398E+02 -0.68096299835E+02 -0.39372343837E+03  0.40770353619E+03  0.80033020170E+02 0.  0.
         23    2    1    2    0    0  0.81330823010E+02 -0.40724986578E+02  0.37029808716E+02  0.13620785731E+03  0.94382977043E+02 0.  0.
         13    1    3    3    0    0  0.80654910631E+01 -0.78774760564E+02 -0.25453818446E+03  0.26657119574E+03  0.00000000000E+00 0. -1.
        -14    1    3    3    0    0 -0.20779150461E+02  0.10678460729E+02 -0.13918525390E+03  0.14113234045E+03  0.00000000000E+00 0.  1.
        -11    1    4    4    0    0  0.37593842286E+02 -0.62976514757E+02 -0.22083857099E+01  0.73377212786E+02  0.00000000000E+00 0. -1.
         11    1    4    4    0    0  0.43736980724E+02  0.22251528180E+02  0.39238194425E+02  0.62830644522E+02  0.00000000000E+00 0.  1.
          2    1    1    2  501    0 -0.68617163612E+02  0.10882128641E+03  0.16776741085E+03  0.21141497502E+03  0.00000000000E+00 0. -1.
<scales pt_clust_5="13000.00000" pt_clust_6="13000.00000" pt_clust_7="13000.00000" pt_clust_8="13000.00000" pt_clust_9="114.02872"></scales>
<clustering>
<clus scale="   80.033">  5  6 -1 -1</clus>
<clus scale="   94.383">  7  8 -1 -1</clus>
<clus scale="  105.849">  2  5  1 -1</clus>
<clus scale="  114.029">  1  9  2 -1</clus>
<clus scale="  114.029">  1  5  2 -1</clus>
</clustering>
</event>
<event>
 9    1  0.1487426E-004  0.3623119E+03  0.7546771E-02  0.1057926E+00
         21   -1    0    0  501  502  0.00000000000E+00  0.00000000000E+00  0.39239146038E+03  0.39239146038E+03  0.00000000000E+00 0.  1.
          1   -1    0    0  502    0 -0.00000000000E+00 -0.00000000000E+00 -0.49005059162E+03  0.49005059162E+03  0.00000000000E+00 0. -1.
         23    2    1    2    0    0  0.17069310807E+03 -0.30023033321E+03 -0.25935275637E+03  0.44148594424E+03  0.91496429467E+02 0.  0.
        -24    2    1    2    0    0 -0.17036810744E+03  0.32318284802E+03  0.11922780566E+03  0.39268324391E+03  0.80699536031E+02 0.  0.
         11    1    4    4    0    0 -0.28542920660E+02  0.13450278008E+03  0.54734175718E+02  0.14799164220E+03  0.00000000000E+00 0. -1.
        -12    1    4    4    0    0 -0.14182518678E+03  0.18868006794E+03  0.64493629944E+02  0.24469160171E+03  0.00000000000E+00 0.  1.
        -11    1    3    3    0    0  0.10200446297E+03 -0.21537000868E+03 -0.22312374128E+03  0.32645574743E+03  0.00000000000E+00 0. -1.
         11    1    3    3    0    0  0.68688645096E+02 -0.84860324532E+02 -0.36229015085E+02  0.11503019681E+03  0.00000000000E+00 0.  1.
          2    1    1    2  501    0 -0.32500062192E+00 -0.22952514806E+02  0.42465819471E+02  0.48272863854E+02  0.00000000000E+00 0. -1.
<scales pt_clust_5="13000.00000" pt_clust_6="13000.00000" pt_clust_7="13000.00000" pt_clust_8="13000.00000" pt_clust_9="22.95482"></scales>
<clustering>
<clus scale="   22.955">  1  9  2 -1</clus>
<clus scale="   80.700">  5  6 -1 -1</clus>
<clus scale="   91.496">  7  8 -1 -1</clus>
<clus scale="  359.737">  1  5  2 -1</clus>
<clus scale="   22.955">  1  5  2 -1</clus>
</clustering>
</event>
<event>
 9    1  0.1487426E-004  0.1593405E+03  0.7546771E-02  0.1191336E+00
         21   -1    0    0  501  502  0.00000000000E+00  0.00000000000E+00  0.17214673540E+03  0.17214673540E+03  0.00000000000E+00 0. -1.
          1   -1    0    0  502    0 -0.00000000000E+00 -0.00000000000E+00 -0.56864114193E+03  0.56864114193E+03  0.00000000000E+00 0. -1.
        -24    2    1    2    0    0 -0.31303458854E+02 -0.12894166064E+03 -0.50540704744E+03  0.52860315555E+03  0.79869606650E+02 0.  0.
         23    2    1    2    0    0  0.18995618719E+02  0.98111257722E+02  0.11570965110E+03  0.17829968053E+03  0.91735490933E+02 0.  0.
         11    1    3    3    0    0 -0.42171794886E+02 -0.91118602091E+02 -0.44725631056E+03  0.45838768228E+03  0.00000000000E+00 0. -1.
        -12    1    3    3    0    0  0.10868336031E+02 -0.37823058554E+02 -0.58150736884E+02  0.70215473271E+02  0.00000000000E+00 0.  1.
        -11    1    4    4    0    0 -0.32373430087E+02  0.69106341963E+02  0.58886886382E+02  0.96391860978E+02  0.00000000000E+00 0.  1.
         11    1    4    4    0    0  0.51369048805E+02  0.29004915759E+02  0.56822764719E+02  0.81907819552E+02  0.00000000000E+00 0. -1.
          2    1    1    2  501    0  0.12307840136E+02  0.30830402923E+02 -0.67970101916E+01  0.33885041254E+02  0.00000000000E+00 0. -1.
<scales pt_clust_5="13000.00000" pt_clust_6="13000.00000" pt_clust_7="13000.00000" pt_clust_8="13000.00000" pt_clust_9="33.19634"></scales>
<clustering>
<clus scale="   33.196">  1  9  2 -1</clus>
<clus scale="   79.870">  5  6 -1 -1</clus>
<clus scale="   91.735">  7  8 -1 -1</clus>
<clus scale="  152.817">  2  5  1 -1</clus>
<clus scale="   33.196">  1  5  2 -1</clus>
</clustering>
</event>
<event>
 9    1  0.1487426E-004  0.1482584E+03  0.7546771E-02  0.1232903E+00
         21   -1    0    0  501  502  0.00000000000E+00  0.00000000000E+00  0.77966703956E+02  0.77966703956E+02  0.00000000000E+00 0.  1.
         -2   -1    0    0    0  501 -0.00000000000E+00 -0.00000000000E+00 -0.46886086849E+03  0.46886086849E+03  0.00000000000E+00 0.  1.
        -24    2    1    2    0    0 -0.95000033561E+01  0.12408742294E+02 -0.39757326987E+02  0.87834228942E+02  0.76746203656E+02 0.  0.
         23    2    1    2    0    0 -0.14991776429E+02  0.10347652929E+03 -0.29777102898E+03  0.32908124641E+03  0.93245565928E+02 0.  0.
         13    1    3    3    0    0 -0.19080210827E+02 -0.24997397586E+02  0.12973337387E+01  0.31473916281E+02  0.00000000000E+00 0. -1.
        -14    1    3    3    0    0  0.95802074705E+01  0.37406139880E+02 -0.41054660726E+02  0.56360312661E+02  0.00000000000E+00 0.  1.
        -13    1    4    4    0    0 -0.49388958828E+02  0.89446685779E+02 -0.20233986886E+03  0.22667465977E+03  0.00000000000E+00 0.  1.
         13    1    4    4    0    0  0.34397182398E+02  0.14029843511E+02 -0.95431160121E+02  0.10240658664E+03  0.00000000000E+00 0. -1.
         -1    1    1    2    0  502  0.24491779786E+02 -0.11588527158E+03 -0.53365808567E+02  0.12991209709E+03  0.00000000000E+00 0.  1.
<scales pt_clust_5="13000.00000" pt_clust_6="13000.00000" pt_clust_7="13000.00000" pt_clust_8="13000.00000" pt_clust_9="115.26416"></scales>
<clustering>
<clus scale="   76.746">  5  6 -1 -1</clus>
<clus scale="   78.321">  2  5  1 -1</clus>
<clus scale="   93.246">  7  8 -1 -1</clus>
<clus scale="  115.264">  1  9  2 -1</clus>
<clus scale="  115.264">  1  5  2 -1</clus>
</clustering>
</event>
<event>
 9    1  0.1487426E-004  0.9945705E+02  0.7546771E-02  0.1285354E+00
          1   -1    0    0  502    0 -0.00000000000E+00  0.00000000000E+00  0.38447312174E+02  0.38447312174E+02  0.00000000000E+00 0. -1.
         21   -1    0    0  501  502  0.00000000000E+00 -0.00000000000E+00 -0.81963503347E+03  0.81963503347E+03  0.00000000000E+00 0.  1.
         23    2    1    2    0    0  0.12024360744E+02  0.39711217271E+02 -0.83680612385E+02  0.12863105597E+03  0.88441718902E+02 0.  0.
        -24    2    1    2    0    0  0.69956385095E+02 -0.68282862247E+02 -0.42599563578E+03  0.44439750242E+03  0.80376696647E+02 0.  0.
         11    1    4    4    0    0  0.42392722941E+02 -0.55592007643E+02 -0.13694184842E+03  0.15375527347E+03  0.00000000000E+00 0. -1.
        -12    1    4    4    0    0  0.27563662155E+02 -0.12690854604E+02 -0.28905378735E+03  0.29064222894E+03  0.00000000000E+00 0.  1.
        -11    1    3    3    0    0  0.44068546091E+02  0.31069960146E+01 -0.60041546806E+02  0.74543125248E+02  0.00000000000E+00 0. -1.
         11    1    3    3    0    0 -0.32044185347E+02  0.36604221256E+02 -0.23639065579E+02  0.54087930722E+02  0.00000000000E+00 0.  1.
          2    1    1    2  501    0 -0.81980745840E+02  0.28571644976E+02 -0.27151147313E+03  0.28505378725E+03  0.00000000000E+00 0. -1.
<scales pt_clust_5="13000.00000" pt_clust_6="13000.00000" pt_clust_7="13000.00000" pt_clust_8="13000.00000" pt_clust_9="86.81694"></scales>
<clustering>
<clus scale="   80.377">  5  6 -1 -1</clus>
<clus scale="   86.817">  2  9  1 -1</clus>
<clus scale="   88.442">  7  8 -1 -1</clus>
<clus scale="   92.359">  2  5  1 -1</clus>
<clus scale="   86.817">  2  5  1 -1</clus>
</clustering>
</event>
<event>
 9    1  0.1487426E-004  0.1603402E+03  0.7546771E-02  0.1190386E+00
         21   -1    0    0  501  502  0.00000000000E+00  0.00000000000E+00  0.11694675301E+03  0.11694675301E+03  0.00000000000E+00 0.  1.
          1   -1    0    0  502    0 -0.00000000000E+00 -0.00000000000E+00 -0.58124692293E+03  0.58124692293E+03  0.00000000000E+00 0. -1.
         23    2    1    2    0    0  0.27445500806E+02 -0.13524686340E+03 -0.43014995698E+03  0.46099025447E+03  0.91858911676E+02 0.  0.
        -24    2    1    2    0    0 -0.92230488797E+02  0.79853085437E+02  0.61113125924E+00  0.14514954401E+03  0.78645014635E+02 0.  0.
         13    1    4    4    0    0 -0.18606263484E+02  0.16386985501E+02 -0.33902098204E+02  0.42000935671E+02  0.00000000000E+00 0. -1.
        -14    1    4    4    0    0 -0.73624225313E+02  0.63466099936E+02  0.34513229463E+02  0.10314860834E+03  0.00000000000E+00 0.  1.
        -11    1    3    3    0    0 -0.26886584568E+02 -0.70319462374E+02 -0.14282299928E+03  0.16145006764E+03  0.00000000000E+00 0.  1.
         11    1    3    3    0    0  0.54332085374E+02 -0.64927401027E+02 -0.28732695770E+03  0.29954018683E+03  0.00000000000E+00 0. -1.
          2    1    1    2  501    0  0.64784987991E+02  0.55393777964E+02 -0.34761344198E+02  0.92053877467E+02  0.00000000000E+00 0. -1.
<scales pt_clust_5="13000.00000" pt_clust_6="13000.00000" pt_clust_7="13000.00000" pt_clust_8="13000.00000" pt_clust_9="85.23829"></scales>
<clustering>
<clus scale="   78.645">  5  6 -1 -1</clus>
<clus scale="   85.238">  1  9  2 -1</clus>
<clus scale="   91.859">  7  8 -1 -1</clus>
<clus scale="  153.153">  1  5  2 -1</clus>
<clus scale="   85.238">  1  5  2 -1</clus>
</clustering>
</event>
<event>
 9    1  0.1818604E-004  0.8020222E+03  0.7546771E-02  0.1022981E+00
         21   -1    0    0  501  502  0.00000000000E+00  0.00000000000E+00  0.55529931619E+03  0.55529931619E+03  0.00000000000E+00 0.  1.
          1   -1    0    0  502    0 -0.00000000000E+00 -0.00000000000E+00 -0.17363014802E+04  0.17363014802E+04  0.00000000000E+00 0. -1.
         23    2    1    2    0    0 -0.27052781909E+01 -0.19028370974E+02 -0.84531319425E+02  0.12465277952E+03  0.89573288681E+02 0.  0.
        -24    2    1    2    0    0 -0.44513378833E+03  0.66658388246E+03  0.14110268405E+02  0.80559634354E+03  0.79424222950E+02 0.  0.
         13    1    4    4    0    0 -0.17649634267E+02  0.32094720672E+02 -0.15937897009E+02  0.39944927661E+02  0.00000000000E+00 0. -1.
        -14    1    4    4    0    0 -0.42748415406E+03  0.63448916178E+03  0.30048165414E+02  0.76565141588E+03  0.00000000000E+00 0.  1.
        -11    1    3    3    0    0 -0.15260864599E+02 -0.50755838928E+02 -0.69408139822E+02  0.87330058096E+02  0.00000000000E+00 0.  1.
         11    1    3    3    0    0  0.12555586408E+02  0.31727467954E+02 -0.15123179604E+02  0.37322721419E+02  0.00000000000E+00 0. -1.
          2    1    1    2  501    0  0.44783906652E+03 -0.64755551148E+03 -0.11105811130E+04  0.13613516734E+04  0.00000000000E+00 0. -1.
<scales pt_clust_5="13000.00000" pt_clust_6="13000.00000" pt_clust_7="13000.00000" pt_clust_8="13000.00000" pt_clust_9="798.08024"></scales>
<clustering>
<clus scale="   79.424">  5  6 -1 -1</clus>
<clus scale="   89.573">  7  8 -1 -1</clus>
<clus scale="   91.612">  2  7  1 -1</clus>
<clus scale="  798.080">  1  9  2 -1</clus>
<clus scale="  798.080">  1  5  2 -1</clus>
</clustering>
</event>
<event>
 9    1  0.1487426E-004  0.9418461E+02  0.7546771E-02  0.1299451E+00
         -4   -1    0    0    0  501 -0.00000000000E+00  0.00000000000E+00  0.67375557541E+02  0.67375557541E+02  0.00000000000E+00 0.  1.
         21   -1    0    0  501  502  0.00000000000E+00 -0.00000000000E+00 -0.45494765102E+03  0.45494765102E+03  0.00000000000E+00 0.  1.
        -24    2    1    2    0    0 -0.21567495259E+02 -0.34710770986E+01  0.12829000665E+02  0.84352543400E+02  0.80458455690E+02 0.  0.
         23    2    1    2    0    0  0.25428432512E+02 -0.35879146851E+02 -0.13098706328E+03  0.16567070741E+03  0.91407079542E+02 0.  0.
         11    1    3    3    0    0  0.68224318273E+01 -0.19261270443E+02 -0.26422273443E+02  0.33401776135E+02  0.00000000000E+00 0. -1.
        -12    1    3    3    0    0 -0.28389927086E+02  0.15790193344E+02  0.39251274108E+02  0.50950767265E+02  0.00000000000E+00 0.  1.
        -11    1    4    4    0    0  0.49250506983E+02 -0.52802380515E+02 -0.94200800279E+02  0.11869075195E+03  0.00000000000E+00 0. -1.
         11    1    4    4    0    0 -0.23822074470E+02  0.16923233664E+02 -0.36786262997E+02  0.46979955460E+02  0.00000000000E+00 0.  1.
         -3    1    1    2    0  502 -0.38609372536E+01  0.39350223950E+02 -0.26941403087E+03  0.27229995775E+03  0.00000000000E+00 0.  1.
<scales pt_clust_5="13000.00000" pt_clust_6="13000.00000" pt_clust_7="13000.00000" pt_clust_8="13000.00000" pt_clust_9="39.53918"></scales>
<clustering>
<clus scale="   39.539">  2  9  1 -1</clus>
<clus scale="   80.458">  5  6 -1 -1</clus>
<clus scale="   83.601">  1  5  2 -1</clus>
<clus scale="   91.407">  7  8 -1 -1</clus>
<clus scale="   39.539">  2  5  1 -1</clus>
</clustering>
</event>
<event>
 9    1  0.1487426E-004  0.9946332E+02  0.7546771E-02  0.1287533E+00
          1   -1    0    0  502    0 -0.00000000000E+00  0.00000000000E+00  0.20503973871E+03  0.20503973871E+03  0.00000000000E+00 0. -1.
         21   -1    0    0  501  502  0.00000000000E+00 -0.00000000000E+00 -0.90375822078E+02  0.90375822078E+02  0.00000000000E+00 0. -1.
         23    2    1    2    0    0  0.14449854501E+02  0.50456250725E+02  0.98528789931E+02  0.14455469918E+03  0.91834128057E+02 0.  0.
        -24    2    1    2    0    0 -0.16508869947E+02 -0.19693325940E+02  0.55634726294E+02  0.10075282380E+03  0.79972113014E+02 0.  0.
         13    1    4    4    0    0 -0.29306391592E+02 -0.29512851321E+02  0.68487696791E+02  0.80127633142E+02  0.00000000000E+00 0. -1.
        -14    1    4    4    0    0  0.12797521645E+02  0.98195253809E+01 -0.12852970497E+02  0.20625190656E+02  0.00000000000E+00 0.  1.
        -11    1    3    3    0    0 -0.29801810512E+02  0.33418811438E+01  0.43117430683E+01  0.30296983475E+02  0.00000000000E+00 0.  1.
         11    1    3    3    0    0  0.44251665013E+02  0.47114369581E+02  0.94217046863E+02  0.11425771570E+03  0.00000000000E+00 0. -1.
          2    1    1    2  501    0  0.20590154460E+01 -0.30762924785E+02 -0.39499599592E+02  0.50108037817E+02  0.00000000000E+00 0. -1.
<scales pt_clust_5="13000.00000" pt_clust_6="13000.00000" pt_clust_7="13000.00000" pt_clust_8="13000.00000" pt_clust_9="30.83175"></scales>
<clustering>
<clus scale="   30.832">  2  9  1 -1</clus>
<clus scale="   79.972">  5  6 -1 -1</clus>
<clus scale="   88.628">  2  5  1 -1</clus>
<clus scale="   91.834">  7  8 -1 -1</clus>
<clus scale="   30.832">  2  5  1 -1</clus>
</clustering>
</event>
<event>
 9    1  0.1487426E-004  0.1096040E+03  0.7546771E-02  0.1266200E+00
         21   -1    0    0  501  502  0.00000000000E+00  0.00000000000E+00  0.23863176971E+03  0.23863176971E+03  0.00000000000E+00 0. -1.
         -2   -1    0    0    0  501 -0.00000000000E+00 -0.00000000000E+00 -0.71418655376E+02  0.71418655376E+02  0.00000000000E+00 0.  1.
        -24    2    1    2    0    0  0.62527038300E+02  0.10887453066E+02  0.29343850269E+01  0.10147824819E+03  0.79126841767E+02 0.  0.
         23    2    1    2    0    0 -0.52870899563E+02  0.83644031966E+01  0.14570283030E+03  0.18013032378E+03  0.91391047290E+02 0.  0.
         11    1    3    3    0    0  0.48747380955E+01 -0.29160194292E+02  0.93006975614E+01  0.30993273105E+02  0.00000000000E+00 0. -1.
        -12    1    3    3    0    0  0.57652300204E+02  0.40047647358E+02 -0.63663125344E+01  0.70484975087E+02  0.00000000000E+00 0.  1.
        -13    1    4    4    0    0 -0.47913614899E+02 -0.19872699156E+02  0.27918987910E+02  0.58907627268E+02  0.00000000000E+00 0.  1.
         13    1    4    4    0    0 -0.49572846641E+01  0.28237102352E+02  0.11778384239E+03  0.12122269651E+03  0.00000000000E+00 0. -1.
         -1    1    1    2    0  502 -0.96561387363E+01 -0.19251856263E+02  0.18575899008E+02  0.28441853119E+02  0.00000000000E+00 0.  1.
<scales pt_clust_5="13000.00000" pt_clust_6="13000.00000" pt_clust_7="13000.00000" pt_clust_8="13000.00000" pt_clust_9="21.53776"></scales>
<clustering>
<clus scale="   21.538">  1  9  2 -1</clus>
<clus scale="   79.127">  5  6 -1 -1</clus>
<clus scale="   91.391">  7  8 -1 -1</clus>
<clus scale="   99.608">  2  5  1 -1</clus>
<clus scale="   21.538">  1  5  2 -1</clus>
</clustering>
</event>
<event>
 9    1  0.1487426E-004  0.1027602E+03  0.7546771E-02  0.1279762E+00
         -2   -1    0    0    0  501 -0.00000000000E+00  0.00000000000E+00  0.58703648856E+03  0.58703648856E+03  0.00000000000E+00 0.  1.
         21   -1    0    0  501  502  0.00000000000E+00 -0.00000000000E+00 -0.56843129409E+02  0.56843129409E+02  0.00000000000E+00 0. -1.
         23    2    1    2    0    0  0.13518816817E+02 -0.46546584840E+02  0.29821921679E+03  0.31544640107E+03  0.90677382627E+02 0.  0.
        -24    2    1    2    0    0  0.69605481743E+02  0.56335533728E+02  0.53263589098E+02  0.13109357471E+03  0.79560668401E+02 0.  0.
         11    1    4    4    0    0  0.39374344714E+02 -0.12687098263E+02  0.51427974497E+01  0.41686326890E+02  0.00000000000E+00 0. -1.
        -12    1    4    4    0    0  0.30231137028E+02  0.69022631991E+02  0.48120791648E+02  0.89407247815E+02  0.00000000000E+00 0.  1.
        -13    1    3    3    0    0 -0.26133693138E+02  0.14533097227E+02  0.93052611611E+02  0.97739292814E+02  0.00000000000E+00 0. -1.
         13    1    3    3    0    0  0.39652509955E+02 -0.61079682067E+02  0.20516660518E+03  0.21770710826E+03  0.00000000000E+00 0.  1.
         -1    1    1    2    0  502 -0.83124298560E+02 -0.97889488878E+01  0.17871055327E+03  0.19733964219E+03  0.00000000000E+00 0.  1.
<scales pt_clust_5="13000.00000" pt_clust_6="13000.00000" pt_clust_7="13000.00000" pt_clust_8="13000.00000" pt_clust_9="83.69874"></scales>
<clustering>
<clus scale="   79.561">  5  6 -1 -1</clus>
<clus scale="   83.699">  2  9  1 -1</clus>
<clus scale="   90.677">  7  8 -1 -1</clus>
<clus scale="   93.098">  2  5  1 -1</clus>
<clus scale="   83.699">  2  5  1 -1</clus>
</clustering>
</event>
<event>
 9    1  0.1487426E-004  0.1411072E+03  0.7546771E-02  0.1229059E+00
          3   -1    0    0  502    0 -0.00000000000E+00  0.00000000000E+00  0.21022888452E+03  0.21022888452E+03  0.00000000000E+00 0. -1.
         21   -1    0    0  501  502  0.00000000000E+00 -0.00000000000E+00 -0.24838288261E+03  0.24838288261E+03  0.00000000000E+00 0. -1.
        -24    2    1    2    0    0  0.55966122017E+02  0.13586972946E+01 -0.13712820865E+03  0.16874241495E+03  0.80844320293E+02 0.  0.
         23    2    1    2    0    0 -0.93273895594E+02 -0.94325726491E+02  0.99271018266E+02  0.18969537063E+03  0.92370104977E+02 0.  0.
         13    1    3    3    0    0  0.71564577703E+02 -0.17676076294E+02 -0.10172697268E+03  0.12562766186E+03  0.00000000000E+00 0. -1.
        -14    1    3    3    0    0 -0.15598455687E+02  0.19034773589E+02 -0.35401235972E+02  0.43114753086E+02  0.00000000000E+00 0.  1.
        -11    1    4    4    0    0 -0.23834443995E+02 -0.21943305233E+02 -0.16631016161E+02  0.36416755259E+02  0.00000000000E+00 0.  1.
         11    1    4    4    0    0 -0.69439451599E+02 -0.72382421257E+02  0.11590203443E+03  0.15327861537E+03  0.00000000000E+00 0. -1.
          4    1    1    2  501    0  0.37307773577E+02  0.92967029196E+02 -0.29680770944E+00  0.10017398156E+03  0.00000000000E+00 0. -1.
<scales pt_clust_5="13000.00000" pt_clust_6="13000.00000" pt_clust_7="13000.00000" pt_clust_8="13000.00000" pt_clust_9="106.67248"></scales>
<clustering>
<clus scale="   80.844">  5  6 -1 -1</clus>
<clus scale="   92.370">  7  8 -1 -1</clus>
<clus scale="   98.335">  1  5  2 -1</clus>
<clus scale="  106.672">  2  9  1 -1</clus>
<clus scale="  106.672">  2  5  1 -1</clus>
</clustering>
</event>
<event>
 9    1  0.1487426E-004  0.1822264E+03  0.7546771E-02  0.1184991E+00
         -2   -1    0    0    0  501 -0.00000000000E+00  0.00000000000E+00  0.15251714081E+04  0.15251714081E+04  0.00000000000E+00 0.  1.
         21   -1    0    0  501  502  0.00000000000E+00 -0.00000000000E+00 -0.98848764156E+02  0.98848764156E+02  0.00000000000E+00 0.  1.
         23    2    1    2    0    0 -0.74607663929E+02  0.31392796844E+02  0.25473551248E+03  0.28056926392E+03  0.85306033332E+02 0.  0.
        -24    2    1    2    0    0 -0.82444529958E+02 -0.90234764400E+02  0.11665492983E+04  0.11756619084E+04  0.80026522507E+02 0.  0.
         13    1    4    4    0    0 -0.19702982121E+02 -0.35881867446E+02  0.14276742629E+03  0.14852021386E+03  0.00000000000E+00 0. -1.
        -14    1    4    4    0    0 -0.62741547837E+02 -0.54352896953E+02  0.10237818720E+04  0.10271416945E+04  0.00000000000E+00 0.  1.
        -11    1    3    3    0    0 -0.30598111666E+02  0.45385603796E+02  0.20714811316E+03  0.21425787793E+03  0.00000000000E+00 0. -1.
         11    1    3    3    0    0 -0.44009552263E+02 -0.13992806952E+02  0.47587399323E+02  0.66311385984E+02  0.00000000000E+00 0.  1.
         -1    1    1    2    0  502  0.15705219389E+03  0.58841967556E+02  0.50378332121E+01  0.16778899998E+03  0.00000000000E+00 0.  1.
<scales pt_clust_5="13000.00000" pt_clust_6="13000.00000" pt_clust_7="13000.00000" pt_clust_8="13000.00000" pt_clust_9="163.71382"></scales>
<clustering>
<clus scale="   80.027">  5  6 -1 -1</clus>
<clus scale="   85.306">  7  8 -1 -1</clus>
<clus scale="  117.596">  1  7  2 -1</clus>
<clus scale="  163.714">  2  9  1 -1</clus>
<clus scale="  163.714">  2  5  1 -1</clus>
</clustering>
</event>
<event>
 9    1  0.1487426E-004  0.1253389E+03  0.7546771E-02  0.1244912E+00
         21   -1    0    0  501  502  0.00000000000E+00  0.00000000000E+00  0.38621126288E+03  0.38621126288E+03  0.00000000000E+00 0. -1.
          1   -1    0    0  502    0 -0.00000000000E+00 -0.00000000000E+00 -0.79191753778E+02  0.79191753778E+02  0.00000000000E+00 0. -1.
         23    2    1    2    0    0 -0.42739476627E+02 -0.13506286462E+02  0.27434606926E+02  0.10516399184E+03  0.91091848627E+02 0.  0.
        -24    2    1    2    0    0 -0.31825294009E+02 -0.72758222590E+02  0.13373951585E+03  0.17511110349E+03  0.80442726043E+02 0.  0.
         11    1    4    4    0    0 -0.49139369779E+02 -0.78178991490E+02  0.95803593604E+02  0.13305998993E+03  0.00000000000E+00 0. -1.
        -12    1    4    4    0    0  0.17314075770E+02  0.54207688999E+01  0.37935922242E+02  0.42051113560E+02  0.00000000000E+00 0.  1.
        -13    1    3    3    0    0  0.38133070340E+01 -0.21443888050E+02  0.48717880871E+02  0.53364909461E+02  0.00000000000E+00 0. -1.
         13    1    3    3    0    0 -0.46552783661E+02  0.79376015877E+01 -0.21283273944E+02  0.51799082380E+02  0.00000000000E+00 0.  1.
          2    1    1    2  501    0  0.74564770636E+02  0.86264509052E+02  0.14584538633E+03  0.18512792133E+03  0.00000000000E+00 0. -1.
<scales pt_clust_5="13000.00000" pt_clust_6="13000.00000" pt_clust_7="13000.00000" pt_clust_8="13000.00000" pt_clust_9="96.11877"></scales>
<clustering>
<clus scale="   80.443">  5  6 -1 -1</clus>
<clus scale="   91.092">  7  8 -1 -1</clus>
<clus scale="  101.522">  2  7  1 -1</clus>
<clus scale="   96.119">  1  9  2 -1</clus>
<clus scale="   96.119">  1  5  2 -1</clus>
</clustering>
</event>
<event>
 9    1  0.1487426E-004  0.1745795E+03  0.7546771E-02  0.1174509E+00
         21   -1    0    0  501  502  0.00000000000E+00  0.00000000000E+00  0.59376590325E+02  0.59376590325E+02  0.00000000000E+00 0.  1.
          1   -1    0    0  502    0 -0.00000000000E+00 -0.00000000000E+00 -0.90827914243E+03  0.90827914243E+03  0.00000000000E+00 0. -1.
         23    2    1    2    0    0  0.15606792386E+03  0.37636855965E+02 -0.51586633895E+03  0.54784948458E+03  0.90814361824E+02 0.  0.
        -24    2    1    2    0    0 -0.13460517084E+03 -0.25644842609E+02 -0.35369635209E+03  0.38769239613E+03  0.80175274012E+02 0.  0.
         13    1    4    4    0    0 -0.12754941249E+03 -0.21910820876E+02 -0.35647438906E+03  0.37923993296E+03  0.00000000000E+00 0. -1.
        -14    1    4    4    0    0 -0.70557583535E+01 -0.37340217334E+01  0.27780369648E+01  0.84524631691E+01  0.00000000000E+00 0.  1.
        -11    1    3    3    0    0  0.10008140739E+03  0.19025152829E+02 -0.44055289464E+03  0.45217817010E+03  0.00000000000E+00 0.  1.
         11    1    3    3    0    0  0.55986516473E+02  0.18611703137E+02 -0.75313444311E+02  0.95671314481E+02  0.00000000000E+00 0. -1.
          2    1    1    2  501    0 -0.21462753023E+02 -0.11992013356E+02  0.20660138940E+02  0.32113852038E+02  0.00000000000E+00 0. -1.
<scales pt_clust_5="13000.00000" pt_clust_6="13000.00000" pt_clust_7="13000.00000" pt_clust_8="13000.00000" pt_clust_9="24.58573"></scales>
<clustering>
<clus scale="   24.586">  1  9  2 -1</clus>
<clus scale="   80.175">  5  6 -1 -1</clus>
<clus scale="   90.814">  7  8 -1 -1</clus>
<clus scale="  169.289">  1  5  2 -1</clus>
<clus scale="   24.586">  1  5  2 -1</clus>
</clustering>
</event>
<event>
 9    1  0.1487426E-004  0.2197802E+03  0.7546771E-02  0.1172456E+00
         21   -1    0    0  501  502  0.00000000000E+00  0.00000000000E+00  0.87046927966E+03  0.87046927966E+03  0.00000000000E+00 0. -1.
          3   -1    0    0  502    0 -0.00000000000E+00 -0.00000000000E+00 -0.30519773195E+03  0.30519773195E+03  0.00000000000E+00 0. -1.
        -24    2    1    2    0    0 -0.27568537173E+02  0.25430038421E+02 -0.18622048488E+03  0.20635329969E+03  0.80603375919E+02 0.  0.
         23    2    1    2    0    0  0.20949674327E+03 -0.95048810281E+02  0.66108099624E+02  0.25678597130E+03  0.92981678006E+02 0.  0.
         13    1    3    3    0    0 -0.20675662553E+02 -0.23403794625E+02 -0.11870176966E+03  0.12274090901E+03  0.00000000000E+00 0. -1.
        -14    1    3    3    0    0 -0.68928746203E+01  0.48833833045E+02 -0.67518715219E+02  0.83612390680E+02  0.00000000000E+00 0.  1.
        -13    1    4    4    0    0  0.56230438945E+02 -0.70151934244E+01  0.56122000118E+02  0.79754335932E+02  0.00000000000E+00 0.  1.
         13    1    4    4    0    0  0.15326630433E+03 -0.88033616856E+02  0.99860995064E+01  0.17703163537E+03  0.00000000000E+00 0. -1.
          4    1    1    2  501    0 -0.18192820610E+03  0.69618771860E+02  0.68538393297E+03  0.71252774061E+03  0.00000000000E+00 0. -1.
<scales pt_clust_5="13000.00000" pt_clust_6="13000.00000" pt_clust_7="13000.00000" pt_clust_8="13000.00000" pt_clust_9="199.14251"></scales>
<clustering>
<clus scale="   80.603">  5  6 -1 -1</clus>
<clus scale="   88.902">  2  5  1 -1</clus>
<clus scale="   92.982">  7  8 -1 -1</clus>
<clus scale="  199.143">  1  9  2 -1</clus>
<clus scale="  199.143">  1  5  2 -1</clus>
</clustering>
</event>
<event>
 9    1  0.1487426E-004  0.1121124E+03  0.7546771E-02  0.1260321E+00
         21   -1    0    0  501  502  0.00000000000E+00  0.00000000000E+00  0.13633573483E+03  0.13633573483E+03  0.00000000000E+00 0.  1.
          1   -1    0    0  502    0 -0.00000000000E+00 -0.00000000000E+00 -0.14355179779E+03  0.14355179779E+03  0.00000000000E+00 0. -1.
         23    2    1    2    0    0 -0.19204801681E+02  0.72813387790E+02 -0.63310762579E+02  0.13286814453E+03  0.89303288421E+02 0.  0.
        -24    2    1    2    0    0  0.31831296947E+01 -0.56409068186E+02  0.13163959162E+02  0.98348615024E+02  0.79416906060E+02 0.  0.
         13    1    4    4    0    0 -0.19806137733E+02 -0.10072617332E+02 -0.25460411901E+02  0.33793095241E+02  0.00000000000E+00 0. -1.
        -14    1    4    4    0    0  0.22989267428E+02 -0.46336450853E+02  0.38624371063E+02  0.64555519784E+02  0.00000000000E+00 0.  1.
        -13    1    3    3    0    0 -0.45060491658E+01  0.38353713036E+02 -0.82268267192E+02  0.90881128787E+02  0.00000000000E+00 0. -1.
         13    1    3    3    0    0 -0.14698752515E+02  0.34459674754E+02  0.18957504614E+02  0.41987015741E+02  0.00000000000E+00 0.  1.
          2    1    1    2  501    0  0.16021671986E+02 -0.16404319604E+02  0.42930740460E+02  0.48670773071E+02  0.00000000000E+00 0. -1.
<scales pt_clust_5="13000.00000" pt_clust_6="13000.00000" pt_clust_7="13000.00000" pt_clust_8="13000.00000" pt_clust_9="22.93023"></scales>
<clustering>
<clus scale="   22.930">  1  9  2 -1</clus>
<clus scale="   79.417">  5  6 -1 -1</clus>
<clus scale="   89.303">  7  8 -1 -1</clus>
<clus scale="  104.409">  1  5  2 -1</clus>
<clus scale="   22.930">  1  5  2 -1</clus>
</clustering>
</event>
<event>
 9    1  0.1576251E-004  0.1158273E+03  0.7546771E-02  0.1252339E+00
         21   -1    0    0  501  502  0.00000000000E+00  0.00000000000E+00  0.26092806960E+03  0.26092806960E+03  0.00000000000E+00 0. -1.
          3   -1    0    0  502    0 -0.00000000000E+00 -0.00000000000E+00 -0.15188600290E+03  0.15188600290E+03  0.00000000000E+00 0. -1.
         23    2    1    2    0    0 -0.59612036058E+02  0.42854754734E+02 -0.72194259389E+02  0.13495326029E+03  0.87236726943E+02 0.  0.
        -24    2    1    2    0    0  0.78866935914E+02 -0.55002667030E+02  0.20789764399E+03  0.24280159354E+03  0.80535063717E+02 0.  0.
         11    1    4    4    0    0  0.82937791710E+02 -0.70823314653E+02  0.18243332210E+03  0.21254772688E+03  0.00000000000E+00 0. -1.
        -12    1    4    4    0    0 -0.40708557966E+01  0.15820647623E+02  0.25464321895E+02  0.30253866657E+02  0.00000000000E+00 0.  1.
        -13    1    3    3    0    0 -0.12391043139E+02  0.57822621262E+02 -0.18644127858E+02  0.62004814195E+02  0.00000000000E+00 0. -1.
         13    1    3    3    0    0 -0.47220992919E+02 -0.14967866528E+02 -0.53550131532E+02  0.72948446095E+02  0.00000000000E+00 0.  1.
          4    1    1    2  501    0 -0.19254899856E+02  0.12147912296E+02 -0.26661317902E+02  0.35059218672E+02  0.00000000000E+00 0. -1.
<scales pt_clust_5="13000.00000" pt_clust_6="13000.00000" pt_clust_7="13000.00000" pt_clust_8="13000.00000" pt_clust_9="22.76672"></scales>
<clustering>
<clus scale="   22.767">  1  9  2 -1</clus>
<clus scale="   80.535">  5  6 -1 -1</clus>
<clus scale="   87.237">  7  8 -1 -1</clus>
<clus scale="  110.868">  1  5  2 -1</clus>
<clus scale="   22.767">  1  5  2 -1</clus>
</clustering>
</event>
<event>
 9    1  0.1487426E-004  0.1635140E+03  0.7546771E-02  0.1209472E+00
         21   -1    0    0  501  502  0.00000000000E+00  0.00000000000E+00  0.30504271472E+03  0.30504271472E+03  0.00000000000E+00 0.  1.
         -2   -1    0    0    0  501 -0.00000000000E+00 -0.00000000000E+00 -0.14823934731E+03  0.14823934731E+03  0.00000000000E+00 0.  1.
        -24    2    1    2    0    0 -0.26139466885E+02 -0.43182278407E+02  0.94850398293E+02  0.13452536288E+03  0.80947478680E+02 0.  0.
         23    2    1    2    0    0  0.10175004079E+03  0.11932362391E+03  0.97282262849E+02  0.20578492224E+03  0.91062602275E+02 0.  0.
         13    1    3    3    0    0 -0.52173306050E+02 -0.25906068542E+02  0.82357144594E+02  0.10087555461E+03  0.00000000000E+00 0. -1.
        -14    1    3    3    0    0  0.26033839165E+02 -0.17276209865E+02  0.12493253699E+02  0.33649808276E+02  0.00000000000E+00 0.  1.
        -13    1    4    4    0    0  0.35876141828E+02  0.28252570254E+02 -0.13853395657E+02  0.47720245700E+02  0.00000000000E+00 0. -1.
         13    1    4    4    0    0  0.65873898961E+02  0.91071053658E+02  0.11113565851E+03  0.15806467654E+03  0.00000000000E+00 0.  1.
         -1    1    1    2    0  502 -0.75610573905E+02 -0.76141345504E+02 -0.35329293738E+02  0.11297177691E+03  0.00000000000E+00 0.  1.
<scales pt_clust_5="13000.00000" pt_clust_6="13000.00000" pt_clust_7="13000.00000" pt_clust_8="13000.00000" pt_clust_9="135.81032"></scales>
<clustering>
<clus scale="   80.947">  5  6 -1 -1</clus>
<clus scale="   91.063">  7  8 -1 -1</clus>
<clus scale="   95.396">  2  5  1 -1</clus>
<clus scale="  135.810">  1  9  2 -1</clus>
<clus scale="  135.810">  1  5  2 -1</clus>
</clustering>
</event>
<event>
 9    1  0.1487426E-004  0.1020026E+03  0.7546771E-02  0.1280783E+00
          1   -1    0    0  502    0 -0.00000000000E+00  0.00000000000E+00  0.44200831736E+03  0.44200831736E+03  0.00000000000E+00 0. -1.
         21   -1    0    0  501  502  0.00000000000E+00 -0.00000000000E+00 -0.76461487675E+02  0.76461487675E+02  0.00000000000E+00 0. -1.
         23    2    1    2    0    0 -0.39485009682E+02  0.13741944168E+02  0.23656938651E+03  0.25663381813E+03  0.90265912465E+02 0.  0.
        -24    2    1    2    0    0  0.59926693178E+02  0.52802307263E+02  0.15103557113E+03  0.18881160172E+03  0.80366566377E+02 0.  0.
         13    1    4    4    0    0  0.46318599199E+02  0.21607264427E+01  0.11812898761E+03  0.12690366064E+03  0.00000000000E+00 0. -1.
        -14    1    4    4    0    0  0.13608093979E+02  0.50641580821E+02  0.32906583513E+02  0.61907941076E+02  0.00000000000E+00 0.  1.
        -13    1    3    3    0    0 -0.50936746190E+02  0.43785298891E+02  0.16659553789E+03  0.17962677350E+03  0.00000000000E+00 0. -1.
         13    1    3    3    0    0  0.11451736508E+02 -0.30043354724E+02  0.69973848617E+02  0.77007044628E+02  0.00000000000E+00 0.  1.
          2    1    1    2  501    0 -0.20441683496E+02 -0.66544251431E+02 -0.22058127955E+02  0.73024385185E+02  0.00000000000E+00 0. -1.
<scales pt_clust_5="13000.00000" pt_clust_6="13000.00000" pt_clust_7="13000.00000" pt_clust_8="13000.00000" pt_clust_9="69.61322"></scales>
<clustering>
<clus scale="   69.613">  2  9  1 -1</clus>
<clus scale="   80.367">  5  6 -1 -1</clus>
<clus scale="   90.266">  7  8 -1 -1</clus>
<clus scale="   93.356">  2  5  1 -1</clus>
<clus scale="   69.613">  2  5  1 -1</clus>
</clustering>
</event>
<event>
 9    1  0.1487426E-004  0.2211490E+03  0.7546771E-02  0.1133883E+00
          3   -1    0    0  502    0 -0.00000000000E+00  0.00000000000E+00  0.16028359668E+03  0.16028359668E+03  0.00000000000E+00 0. -1.
         21   -1    0    0  501  502  0.00000000000E+00 -0.00000000000E+00 -0.63516977108E+03  0.63516977108E+03  0.00000000000E+00 0. -1.
        -24    2    1    2    0    0 -0.95208704153E+02  0.18105814771E+03  0.13253167759E+02  0.22058849144E+03  0.81467084763E+02 0.  0.
         23    2    1    2    0    0  0.17676551571E+02 -0.19595761398E+03 -0.40784888788E+03  0.46226032123E+03  0.92908784732E+02 0.  0.
         11    1    3    3    0    0 -0.86929589188E+02  0.10927326793E+03  0.37129553311E+02  0.14448530821E+03  0.00000000000E+00 0. -1.
        -12    1    3    3    0    0 -0.82791149652E+01  0.71784879779E+02 -0.23876385552E+02  0.76103183222E+02  0.00000000000E+00 0.  1.
        -11    1    4    4    0    0  0.43424269857E+02 -0.38507628027E+02 -0.11035828744E+03  0.12468943915E+03  0.00000000000E+00 0.  1.
         11    1    4    4    0    0 -0.25747718286E+02 -0.15744998596E+03 -0.29749060044E+03  0.33757088208E+03  0.00000000000E+00 0. -1.
          4    1    1    2  501    0  0.77532152582E+02  0.14899466273E+02 -0.80290454279E+02  0.11260455509E+03  0.00000000000E+00 0. -1.
<scales pt_clust_5="13000.00000" pt_clust_6="13000.00000" pt_clust_7="13000.00000" pt_clust_8="13000.00000" pt_clust_9="78.95080"></scales>
<clustering>
<clus scale="   78.951">  2  9  1 -1</clus>
<clus scale="   81.467">  5  6 -1 -1</clus>
<clus scale="   92.909">  7  8 -1 -1</clus>
<clus scale="  216.591">  1  5  2 -1</clus>
<clus scale="   78.951">  2  5  1 -1</clus>
</clustering>
</event>
<event>
 9    1  0.1487426E-004  0.1332754E+03  0.7546771E-02  0.1239987E+00
          1   -1    0    0  502    0 -0.00000000000E+00  0.00000000000E+00  0.43499882800E+03  0.43499882800E+03  0.00000000000E+00 0. -1.
         21   -1    0    0  501  502  0.00000000000E+00 -0.00000000000E+00 -0.25795202242E+03  0.25795202242E+03  0.00000000000E+00 0.  1.
        -24    2    1    2    0    0  0.29767071314E+02  0.38238440320E+02  0.36167935281E+03  0.37351733788E+03  0.79718194868E+02 0.  0.
         23    2    1    2    0    0  0.75684379993E+02 -0.26058339907E+02 -0.17422039744E+02  0.12137362957E+03  0.89559298973E+02 0.  0.
         13    1    3    3    0    0  0.27142827172E+02  0.52707674426E+02  0.14945935310E+03  0.16078846426E+03  0.00000000000E+00 0. -1.
        -14    1    3    3    0    0  0.26242441423E+01 -0.14469234106E+02  0.21221999972E+03  0.21272887362E+03  0.00000000000E+00 0.  1.
        -11    1    4    4    0    0  0.60105391603E+02 -0.42664383492E+02  0.21061623814E+02  0.76658331029E+02  0.00000000000E+00 0.  1.
         11    1    4    4    0    0  0.15578988390E+02  0.16606043584E+02 -0.38483663558E+02  0.44715298541E+02  0.00000000000E+00 0. -1.
          2    1    1    2  501    0 -0.10545145131E+03 -0.12180100412E+02 -0.16721050748E+03  0.19805988297E+03  0.00000000000E+00 0. -1.
<scales pt_clust_5="13000.00000" pt_clust_6="13000.00000" pt_clust_7="13000.00000" pt_clust_8="13000.00000" pt_clust_9="98.69881"></scales>
<clustering>
<clus scale="   79.718">  5  6 -1 -1</clus>
<clus scale="   89.559">  7  8 -1 -1</clus>
<clus scale="   93.291">  1  5  2 -1</clus>
<clus scale="   98.699">  2  9  1 -1</clus>
<clus scale="   98.699">  2  5  1 -1</clus>
</clustering>
</event>
<event>
 9    1  0.1487426E-004  0.1167284E+03  0.7546771E-02  0.1252359E+00
         -2   -1    0    0    0  501 -0.00000000000E+00  0.00000000000E+00  0.30839277200E+03  0.30839277200E+03  0.00000000000E+00 0.  1.
         21   -1    0    0  501  502  0.00000000000E+00 -0.00000000000E+00 -0.90031544026E+02  0.90031544026E+02  0.00000000000E+00 0. -1.
        -24    2    1    2    0    0  0.26046491792E+02 -0.72706049162E+02  0.23883023102E+03  0.26358654379E+03  0.80457426595E+02 0.  0.
         23    2    1    2    0    0 -0.17353107184E+02  0.44746518741E+02 -0.21455324984E+02  0.10554130303E+03  0.91516416047E+02 0.  0.
         13    1    3    3    0    0  0.19417657490E+02  0.14249860298E+02  0.58974701585E+02  0.63703370146E+02  0.00000000000E+00 0. -1.
        -14    1    3    3    0    0  0.66288343018E+01 -0.86955909460E+02  0.17985552944E+03  0.19988317364E+03  0.00000000000E+00 0.  1.
        -13    1    4    4    0    0  0.30461251957E+02  0.32411434878E+02  0.11787373435E+02  0.46014466792E+02  0.00000000000E+00 0.  1.
         13    1    4    4    0    0 -0.47814359141E+02  0.12335083863E+02 -0.33242698418E+02  0.59526836235E+02  0.00000000000E+00 0. -1.
         -1    1    1    2    0  502 -0.86933846082E+01  0.27959530421E+02  0.98632193056E+00  0.29296469211E+02  0.00000000000E+00 0.  1.
<scales pt_clust_5="13000.00000" pt_clust_6="13000.00000" pt_clust_7="13000.00000" pt_clust_8="13000.00000" pt_clust_9="29.27986"></scales>
<clustering>
<clus scale="   29.280">  2  9  1 -1</clus>
<clus scale="   80.457">  5  6 -1 -1</clus>
<clus scale="   91.516">  7  8 -1 -1</clus>
<clus scale="  108.276">  1  5  2 -1</clus>
<clus scale="   29.280">  2  5  1 -1</clus>
</clustering>
</event>
<event>
 9    1  0.1487426E-004  0.1410275E+03  0.7546771E-02  0.1214057E+00
          1   -1    0    0  502    0 -0.00000000000E+00  0.00000000000E+00  0.34910394407E+03  0.34910394407E+03  0.00000000000E+00 0. -1.
         21   -1    0    0  501  502  0.00000000000E+00 -0.00000000000E+00 -0.12129922601E+03  0.12129922601E+03  0.00000000000E+00 0.  1.
         23    2    1    2    0    0  0.94165147878E+02  0.29264927984E+02  0.17055268789E+03  0.21697599128E+03  0.90922221487E+02 0.  0.
        -24    2    1    2    0    0 -0.14698945803E+03  0.55874009654E+01 -0.22341207765E+00  0.16793730199E+03  0.81029424670E+02 0.  0.
         13    1    4    4    0    0 -0.40912360357E+02  0.25188556491E+02  0.29073968368E+02  0.56156747099E+02  0.00000000000E+00 0. -1.
        -14    1    4    4    0    0 -0.10607709768E+03 -0.19601155526E+02 -0.29297380446E+02  0.11178055489E+03  0.00000000000E+00 0.  1.
        -13    1    3    3    0    0  0.78732105871E+02  0.57384011615E+02  0.15006085460E+03  0.17891318947E+03  0.00000000000E+00 0. -1.
         13    1    3    3    0    0  0.15433042007E+02 -0.28119083631E+02  0.20491833291E+02  0.38062801807E+02  0.00000000000E+00 0.  1.
          2    1    1    2  501    0  0.52824310157E+02 -0.34852328949E+02  0.57475442251E+02  0.85489876820E+02  0.00000000000E+00 0. -1.
<scales pt_clust_5="13000.00000" pt_clust_6="13000.00000" pt_clust_7="13000.00000" pt_clust_8="13000.00000" pt_clust_9="63.28583"></scales>
<clustering>
<clus scale="   63.286">  2  9  1 -1</clus>
<clus scale="   81.029">  5  6 -1 -1</clus>
<clus scale="   90.922">  7  8 -1 -1</clus>
<clus scale="  134.862">  2  5  1 -1</clus>
<clus scale="   63.286">  2  5  1 -1</clus>
</clustering>
</event>
<event>
 9    1  0.1487426E-004  0.1286760E+03  0.7546771E-02  0.1240812E+00
          3   -1    0    0  502    0 -0.00000000000E+00  0.00000000000E+00  0.27191295005E+03  0.27191295005E+03  0.00000000000E+00 0. -1.
         21   -1    0    0  501  502  0.00000000000E+00 -0.00000000000E+00 -0.12009661679E+03  0.12009661679E+03  0.00000000000E+00 0.  1.
        -24    2    1    2    0    0  0.63631810542E+02  0.65451772526E+01  0.12230869937E+03  0.15921736173E+03  0.79365632843E+02 0.  0.
         23    2    1    2    0    0  0.51519202291E+02 -0.37899774320E+02  0.23459137454E+02  0.11329554900E+03  0.90525848218E+02 0.  0.
         13    1    3    3    0    0  0.17974776842E+02  0.35631192368E+02  0.22866923632E+02  0.45995333117E+02  0.00000000000E+00 0. -1.
        -14    1    3    3    0    0  0.45657033700E+02 -0.29086015116E+02  0.99441775734E+02  0.11322202861E+03  0.00000000000E+00 0.  1.
        -13    1    4    4    0    0  0.39270272467E+02 -0.58748923605E+02 -0.10671987990E+02  0.71466647131E+02  0.00000000000E+00 0.  1.
         13    1    4    4    0    0  0.12248929824E+02  0.20849149285E+02  0.34131125444E+02  0.41828901872E+02  0.00000000000E+00 0. -1.
          4    1    1    2  501    0 -0.11515101283E+03  0.31354597067E+02  0.60484964417E+01  0.11949665612E+03  0.00000000000E+00 0. -1.
<scales pt_clust_5="13000.00000" pt_clust_6="13000.00000" pt_clust_7="13000.00000" pt_clust_8="13000.00000" pt_clust_9="91.44720"></scales>
<clustering>
<clus scale="   79.366">  5  6 -1 -1</clus>
<clus scale="   90.526">  7  8 -1 -1</clus>
<clus scale="  101.935">  1  5  2 -1</clus>
<clus scale="   91.447">  2  9  1 -1</clus>
<clus scale="   91.447">  2  5  1 -1</clus>
</clustering>
</event>
<event>
 9    1  0.1487426E-004  0.2052767E+03  0.7546771E-02  0.1161542E+00
         21   -1    0    0  501  502  0.00000000000E+00  0.00000000000E+00  0.31149163163E+03  0.31149163163E+03  0.00000000000E+00 0. -1.
          1   -1    0    0  502    0 -0.00000000000E+00 -0.00000000000E+00 -0.47798526664E+03  0.47798526664E+03  0.00000000000E+00 0. -1.
         23    2    1    2    0    0 -0.84097054875E+02  0.66170289429E+02 -0.37810110333E+02  0.14524097492E+03  0.90633958927E+02 0.  0.
        -24    2    1    2    0    0 -0.80367008347E+02 -0.16625535000E+03 -0.31658526617E+03  0.37521452661E+03  0.80374204737E+02 0.  0.
         11    1    4    4    0    0 -0.86374367949E+02 -0.15820185572E+03 -0.31753158984E+03  0.36512281377E+03  0.00000000000E+00 0. -1.
        -12    1    4    4    0    0  0.60073596019E+01 -0.80534942826E+01  0.94632366521E+00  0.10091712839E+02  0.00000000000E+00 0.  1.
        -13    1    3    3    0    0 -0.31893391658E+02  0.22941610221E+02  0.29949327985E+02  0.49401094702E+02  0.00000000000E+00 0. -1.
         13    1    3    3    0    0 -0.52203663217E+02  0.43228679208E+02 -0.67759438318E+02  0.95839880219E+02  0.00000000000E+00 0.  1.
          2    1    1    2  501    0  0.16446406322E+03  0.10008506057E+03  0.18790174150E+03  0.26902139673E+03  0.00000000000E+00 0. -1.
<scales pt_clust_5="13000.00000" pt_clust_6="13000.00000" pt_clust_7="13000.00000" pt_clust_8="13000.00000" pt_clust_9="188.88760"></scales>
<clustering>
<clus scale="   80.374">  5  6 -1 -1</clus>
<clus scale="   90.634">  7  8 -1 -1</clus>
<clus scale="  140.233">  2  7  1 -1</clus>
<clus scale="  188.888">  1  9  2 -1</clus>
<clus scale="  188.888">  1  5  2 -1</clus>
</clustering>
</event>
<event>
 9    1  0.1487426E-004  0.2987260E+03  0.7546771E-02  0.1121933E+00
          3   -1    0    0  502    0 -0.00000000000E+00  0.00000000000E+00  0.87923587896E+03  0.87923587896E+03  0.00000000000E+00 0. -1.
         21   -1    0    0  501  502  0.00000000000E+00 -0.00000000000E+00 -0.14674990463E+03  0.14674990463E+03  0.00000000000E+00 0. -1.
        -24    2    1    2    0    0 -0.82898396214E+02  0.33889086773E+02  0.83175884941E+02  0.14435321864E+03  0.76805010242E+02 0.  0.
         23    2    1    2    0    0 -0.10972317598E+03  0.21543946398E+03  0.41404719910E+03  0.48841961521E+03  0.93087590242E+02 0.  0.
         11    1    3    3    0    0 -0.44813346587E+02 -0.14896816963E+02  0.95692606278E+01  0.48184249884E+02  0.00000000000E+00 0. -1.
        -12    1    3    3    0    0 -0.38085049628E+02  0.48785903736E+02  0.73606624313E+02  0.96168968754E+02  0.00000000000E+00 0.  1.
        -13    1    4    4    0    0 -0.84761892884E+02  0.66048112560E+02  0.18016715518E+03  0.20977877744E+03  0.00000000000E+00 0. -1.
         13    1    4    4    0    0 -0.24961283097E+02  0.14939135142E+03  0.23388004391E+03  0.27864083777E+03  0.00000000000E+00 0.  1.
          4    1    1    2  501    0  0.19262157220E+03 -0.24932855075E+03  0.23526289030E+03  0.39321294974E+03  0.00000000000E+00 0. -1.
<scales pt_clust_5="13000.00000" pt_clust_6="13000.00000" pt_clust_7="13000.00000" pt_clust_8="13000.00000" pt_clust_9="283.85189"></scales>
<clustering>
<clus scale="   76.805">  5  6 -1 -1</clus>
<clus scale="   93.088">  7  8 -1 -1</clus>
<clus scale="  117.982">  1  5  2 -1</clus>
<clus scale="  283.852">  2  9  1 -1</clus>
<clus scale="  283.852">  2  5  1 -1</clus>
</clustering>
</event>
<event>
 9    1  0.1487426E-004  0.1309354E+03  0.7546771E-02  0.1234227E+00
         21   -1    0    0  501  502  0.00000000000E+00  0.00000000000E+00  0.51945921024E+02  0.51945921024E+02  0.00000000000E+00 0. -1.
          1   -1    0    0  502    0 -0.00000000000E+00 -0.00000000000E+00 -0.97507305679E+03  0.97507305679E+03  0.00000000000E+00 0. -1.
        -24    2    1    2    0    0 -0.32190801457E+02 -0.69779658466E+02 -0.55693647362E+03  0.56782230943E+03  0.79614640630E+02 0.  0.
         23    2    1    2    0    0 -0.78441766716E+02 -0.14030698880E+02 -0.91591382917E+02  0.15151419360E+03  0.90650968885E+02 0.  0.
         13    1    3    3    0    0 -0.32127987765E+02 -0.76829432489E+02 -0.31618926102E+03  0.32697189188E+03  0.00000000000E+00 0. -1.
        -14    1    3    3    0    0 -0.62813691895E-01  0.70497740229E+01 -0.24074721260E+03  0.24085041755E+03  0.00000000000E+00 0.  1.
        -11    1    4    4    0    0 -0.53705278589E+02  0.21140784530E+02 -0.90191176555E+01  0.58416899970E+02  0.00000000000E+00 0. -1.
         11    1    4    4    0    0 -0.24736488128E+02 -0.35171483409E+02 -0.82572265262E+02  0.93097293627E+02  0.00000000000E+00 0.  1.
          2    1    1    2  501    0  0.11063256817E+03  0.83810357345E+02 -0.27459927923E+03  0.30768247479E+03  0.00000000000E+00 0. -1.
<scales pt_clust_5="13000.00000" pt_clust_6="13000.00000" pt_clust_7="13000.00000" pt_clust_8="13000.00000" pt_clust_9="94.48005"></scales>
<clustering>
<clus scale="   79.615">  5  6 -1 -1</clus>
<clus scale="   90.651">  7  8 -1 -1</clus>
<clus scale="  110.652">  2  5  1 -1</clus>
<clus scale="   94.480">  1  9  2 -1</clus>
<clus scale="   94.480">  1  5  2 -1</clus>
</clustering>
</event>
<event>
 9    1  0.1487426E-004  0.1164809E+03  0.7546771E-02  0.1257489E+00
         -2   -1    0    0    0  501 -0.00000000000E+00  0.00000000000E+00  0.11906435116E+03  0.11906435116E+03  0.00000000000E+00 0.  1.
         21   -1    0    0  501  502  0.00000000000E+00 -0.00000000000E+00 -0.31960514139E+03  0.31960514139E+03  0.00000000000E+00 0. -1.
         23    2    1    2    0    0 -0.27731669333E+02  0.26980550366E+02 -0.20083631179E+03  0.22366161145E+03  0.90511307143E+02 0.  0.
        -24    2    1    2    0    0 -0.67137628151E+02  0.18046019516E+02 -0.18915220329E+02  0.10825288963E+03  0.80794694254E+02 0.  0.
         13    1    4    4    0    0 -0.73010071095E+02 -0.11709507781E+02 -0.23480658338E+02  0.77581727035E+02  0.00000000000E+00 0. -1.
        -14    1    4    4    0    0  0.58724429444E+01  0.29755527297E+02  0.45654380088E+01  0.30671162597E+02  0.00000000000E+00 0.  1.
        -11    1    3    3    0    0 -0.60704828968E+02  0.11262201568E+02 -0.11982994335E+03  0.13480032926E+03  0.00000000000E+00 0.  1.
         11    1    3    3    0    0  0.32973159635E+02  0.15718348798E+02 -0.81006368440E+02  0.88861282194E+02  0.00000000000E+00 0. -1.
         -1    1    1    2    0  502  0.94869297484E+02 -0.45026569882E+02  0.19210741893E+02  0.10675499147E+03  0.00000000000E+00 0.  1.
<scales pt_clust_5="13000.00000" pt_clust_6="13000.00000" pt_clust_7="13000.00000" pt_clust_8="13000.00000" pt_clust_9="83.90487"></scales>
<clustering>
<clus scale="   80.795">  5  6 -1 -1</clus>
<clus scale="   90.511">  7  8 -1 -1</clus>
<clus scale="   98.434">  1  7  2 -1</clus>
<clus scale="   83.905">  2  9  1 -1</clus>
<clus scale="   83.905">  2  5  1 -1</clus>
</clustering>
</event>
<event>
 9    1  0.1487426E-004  0.1490700E+03  0.7546771E-02  0.1204561E+00
         21   -1    0    0  501  502  0.00000000000E+00  0.00000000000E+00  0.73725058987E+02  0.73725058987E+02  0.00000000000E+00 0.  1.
          1   -1    0    0  502    0 -0.00000000000E+00 -0.00000000000E+00 -0.82205110482E+03  0.82205110482E+03  0.00000000000E+00 0. -1.
         23    2    1    2    0    0  0.10968190812E+03 -0.18127620415E+02 -0.59865685221E+03  0.61624735526E+03  0.94931789092E+02 0.  0.
        -24    2    1    2    0    0 -0.14219679887E+03  0.67462082165E+01 -0.44897374864E+02  0.16923878782E+03  0.79753069537E+02 0.  0.
         13    1    4    4    0    0 -0.89075440233E+02  0.23878280582E+01 -0.67052610354E+02  0.11151765928E+03  0.00000000000E+00 0. -1.
        -14    1    4    4    0    0 -0.53121358637E+02  0.43583801583E+01  0.22155235491E+02  0.57721128546E+02  0.00000000000E+00 0.  1.
        -11    1    3    3    0    0  0.99854286761E+02  0.23519379292E+02 -0.45064180567E+03  0.46217104713E+03  0.00000000000E+00 0. -1.
         11    1    3    3    0    0  0.98276213632E+01 -0.41646999707E+02 -0.14801504653E+03  0.15407630813E+03  0.00000000000E+00 0.  1.
          2    1    1    2  501    0  0.32514890745E+02  0.11381412199E+02 -0.10477181876E+03  0.11029002072E+03  0.00000000000E+00 0. -1.
<scales pt_clust_5="13000.00000" pt_clust_6="13000.00000" pt_clust_7="13000.00000" pt_clust_8="13000.00000" pt_clust_9="34.44932"></scales>
<clustering>
<clus scale="   34.449">  1  9  2 -1</clus>
<clus scale="   79.753">  5  6 -1 -1</clus>
<clus scale="   94.932">  7  8 -1 -1</clus>
<clus scale="  139.894">  1  5  2 -1</clus>
<clus scale="   34.449">  1  5  2 -1</clus>
</clustering>
</event>
<event>
 9    1  0.1487426E-004  0.1261847E+03  0.7546771E-02  0.1252435E+00
         21   -1    0    0  501  502  0.00000000000E+00  0.00000000000E+00  0.34920541363E+02  0.34920541363E+02  0.00000000000E+00 0. -1.
         -2   -1    0    0    0  501 -0.00000000000E+00 -0.00000000000E+00 -0.71728683730E+03  0.71728683730E+03  0.00000000000E+00 0.  1.
        -24    2    1    2    0    0 -0.29204998241E+02  0.67978731069E+01 -0.12508315641E+03  0.15155960722E+03  0.80158440121E+02 0.  0.
         23    2    1    2    0    0 -0.64010939308E+02 -0.44109642931E+02 -0.37529848542E+03  0.39280217127E+03  0.86032154720E+02 0.  0.
         13    1    3    3    0    0 -0.54812211116E+02  0.90611581129E+01 -0.60973374103E+02  0.82487789540E+02  0.00000000000E+00 0. -1.
        -14    1    3    3    0    0  0.25607212875E+02 -0.22632850060E+01 -0.64109782309E+02  0.69071817683E+02  0.00000000000E+00 0.  1.
        -13    1    4    4    0    0 -0.27634436205E+02 -0.67339255696E+02 -0.23634928965E+03  0.24730391048E+03  0.00000000000E+00 0.  1.
         13    1    4    4    0    0 -0.36376503103E+02  0.23229612764E+02 -0.13894919577E+03  0.14549826079E+03  0.00000000000E+00 0. -1.
         -1    1    1    2    0  502  0.93215937549E+02  0.37311769825E+02 -0.18198465411E+03  0.20784560017E+03  0.00000000000E+00 0.  1.
<scales pt_clust_5="13000.00000" pt_clust_6="13000.00000" pt_clust_7="13000.00000" pt_clust_8="13000.00000" pt_clust_9="92.30947"></scales>
<clustering>
<clus scale="   80.158">  5  6 -1 -1</clus>
<clus scale="   85.583">  2  5  1 -1</clus>
<clus scale="   86.032">  7  8 -1 -1</clus>
<clus scale="   92.309">  1  9  2 -1</clus>
<clus scale="   92.309">  1  5  2 -1</clus>
</clustering>
</event>
<event>
 9    1  0.1487426E-004  0.2478909E+03  0.7546771E-02  0.1115134E+00
         21   -1    0    0  501  502  0.00000000000E+00  0.00000000000E+00  0.82047414709E+03  0.82047414709E+03  0.00000000000E+00 0.  1.
         -2   -1    0    0    0  501 -0.00000000000E+00 -0.00000000000E+00 -0.13211883042E+03  0.13211883042E+03  0.00000000000E+00 0.  1.
         23    2    1    2    0    0 -0.17938888123E+03 -0.18413478852E+03  0.16782956796E+03  0.32032938751E+03  0.91422981609E+02 0.  0.
        -24    2    1    2    0    0  0.20388156101E+03  0.54426916856E+02  0.31847329554E+03  0.39091484407E+03  0.82820258039E+02 0.  0.
         13    1    4    4    0    0  0.92031899362E+02  0.24295424118E+02  0.21684298952E+03  0.23681431595E+03  0.00000000000E+00 0. -1.
        -14    1    4    4    0    0  0.11184966165E+03  0.30131492738E+02  0.10163030603E+03  0.15410052813E+03  0.00000000000E+00 0.  1.
        -11    1    3    3    0    0 -0.64108797705E+02 -0.71525517516E+02  0.11694416033E+03  0.15133332163E+03  0.00000000000E+00 0.  1.
         11    1    3    3    0    0 -0.11528008353E+03 -0.11260927100E+03  0.50885407633E+02  0.16899606588E+03  0.00000000000E+00 0. -1.
         -1    1    1    2    0  502 -0.24492679781E+02  0.12970787166E+03  0.20205245316E+03  0.24134874593E+03  0.00000000000E+00 0.  1.
<scales pt_clust_5="13000.00000" pt_clust_6="13000.00000" pt_clust_7="13000.00000" pt_clust_8="13000.00000" pt_clust_9="132.00009"></scales>
<clustering>
<clus scale="   82.820">  5  6 -1 -1</clus>
<clus scale="   91.423">  7  8 -1 -1</clus>
<clus scale="  132.000">  1  9  2 -1</clus>
<clus scale="  244.849">  1  5  2 -1</clus>
<clus scale="  132.000">  1  5  2 -1</clus>
</clustering>
</event>
<event>
 9    1  0.1487426E-004  0.1941883E+03  0.7546771E-02  0.1169107E+00
         21   -1    0    0  501  502  0.00000000000E+00  0.00000000000E+00  0.13451712349E+03  0.13451712349E+03  0.00000000000E+00 0. -1.
          3   -1    0    0  502    0 -0.00000000000E+00 -0.00000000000E+00 -0.71943500521E+03  0.71943500521E+03  0.00000000000E+00 0. -1.
        -24    2    1    2    0    0 -0.13907414319E+02 -0.12180139302E+03 -0.16913625491E+02  0.14015694540E+03  0.65794400226E+02 0.  0.
         23    2    1    2    0    0  0.15799468492E+03  0.18085595185E+03 -0.45166980811E+03  0.51941852244E+03  0.90104329022E+02 0.  0.
         11    1    3    3    0    0  0.92931788159E+01 -0.89117834340E+02 -0.34986954221E+02  0.96189596816E+02  0.00000000000E+00 0. -1.
        -12    1    3    3    0    0 -0.23200593135E+02 -0.32683558678E+02  0.18073328731E+02  0.43967348580E+02  0.00000000000E+00 0.  1.
        -13    1    4    4    0    0  0.72270670614E+02  0.14041146271E+03 -0.23748392041E+03  0.28519649567E+03  0.00000000000E+00 0.  1.
         13    1    4    4    0    0  0.85724014311E+02  0.40444489143E+02 -0.21418588770E+03  0.23422202677E+03  0.00000000000E+00 0. -1.
          4    1    1    2  501    0 -0.14408727060E+03 -0.59054558834E+02 -0.11633444812E+03  0.19437666087E+03  0.00000000000E+00 0. -1.
<scales pt_clust_5="13000.00000" pt_clust_6="13000.00000" pt_clust_7="13000.00000" pt_clust_8="13000.00000" pt_clust_9="172.01838"></scales>
<clustering>
<clus scale="   65.794">  5  6 -1 -1</clus>
<clus scale="   90.104">  7  8 -1 -1</clus>
<clus scale="  139.133">  2  5  1 -1</clus>
<clus scale="  172.018">  1  9  2 -1</clus>
<clus scale="  172.018">  1  5  2 -1</clus>
</clustering>
</event>
<event>
 9    1  0.1487426E-004  0.9265956E+02  0.7546771E-02  0.1302917E+00
          3   -1    0    0  502    0 -0.00000000000E+00  0.00000000000E+00  0.12073754160E+03  0.12073754160E+03  0.00000000000E+00 0. -1.
         21   -1    0    0  501  502  0.00000000000E+00 -0.00000000000E+00 -0.12579156899E+03  0.12579156899E+03  0.00000000000E+00 0.  1.
         23    2    1    2    0    0 -0.36080532328E+01  0.10037998209E+02  0.61886492776E+02  0.11055601807E+03  0.90988547007E+02 0.  0.
        -24    2    1    2    0    0  0.22180874483E+02 -0.30090368781E+02 -0.39157756692E+02  0.96999650269E+02  0.80487146532E+02 0.  0.
         11    1    4    4    0    0  0.47779452061E+02 -0.13434678377E+02 -0.30750969058E+01  0.49727485794E+02  0.00000000000E+00 0. -1.
        -12    1    4    4    0    0 -0.25598577579E+02 -0.16655690404E+02 -0.36082659787E+02  0.47272164475E+02  0.00000000000E+00 0.  1.
        -11    1    3    3    0    0 -0.20173623298E+02  0.46442082068E+02  0.26483455185E+02  0.57142063861E+02  0.00000000000E+00 0.  1.
         11    1    3    3    0    0  0.16565570065E+02 -0.36404083859E+02  0.35403037591E+02  0.53413954206E+02  0.00000000000E+00 0. -1.
          4    1    1    2  501    0 -0.18572821250E+02  0.20052370572E+02 -0.27782763470E+02  0.38973442249E+02  0.00000000000E+00 0. -1.
<scales pt_clust_5="13000.00000" pt_clust_6="13000.00000" pt_clust_7="13000.00000" pt_clust_8="13000.00000" pt_clust_9="27.33217"></scales>
<clustering>
<clus scale="   27.332">  2  9  1 -1</clus>
<clus scale="   80.487">  5  6 -1 -1</clus>
<clus scale="   82.371">  2  5  1 -1</clus>
<clus scale="   90.989">  7  8 -1 -1</clus>
<clus scale="   27.332">  2  5  1 -1</clus>
</clustering>
</event>
<event>
 9    1  0.1487426E-004  0.1188549E+03  0.7546771E-02  0.1246973E+00
         21   -1    0    0  501  502  0.00000000000E+00  0.00000000000E+00  0.39281046786E+03  0.39281046786E+03  0.00000000000E+00 0. -1.
          1   -1    0    0  502    0 -0.00000000000E+00 -0.00000000000E+00 -0.16655190132E+03  0.16655190132E+03  0.00000000000E+00 0. -1.
        -24    2    1    2    0    0  0.31856799045E+02 -0.56607794309E+02 -0.80727246729E+02  0.13358569560E+03  0.84314599459E+02 0.  0.
         23    2    1    2    0    0 -0.37790987267E+02  0.13925609558E+03  0.88146906902E+02  0.19177576924E+03  0.90485632003E+02 0.  0.
         13    1    3    3    0    0  0.16394647575E+02 -0.76645765856E+02 -0.73033966383E+02  0.10713224603E+03  0.00000000000E+00 0. -1.
        -14    1    3    3    0    0  0.15462151470E+02  0.20037971547E+02 -0.76932803465E+01  0.26453449573E+02  0.00000000000E+00 0.  1.
        -13    1    4    4    0    0  0.12535483157E+02  0.10484616940E+03  0.36032166991E+02  0.11157138806E+03  0.00000000000E+00 0. -1.
         13    1    4    4    0    0 -0.50326470423E+02  0.34409926174E+02  0.52114739911E+02  0.80204381181E+02  0.00000000000E+00 0.  1.
          2    1    1    2  501    0  0.59341882221E+01 -0.82648301269E+02  0.21883890637E+03  0.23400090434E+03  0.00000000000E+00 0. -1.
<scales pt_clust_5="13000.00000" pt_clust_6="13000.00000" pt_clust_7="13000.00000" pt_clust_8="13000.00000" pt_clust_9="82.86107"></scales>
<clustering>
<clus scale="   82.861">  1  9  2 -1</clus>
<clus scale="   84.315">  5  6 -1 -1</clus>
<clus scale="   90.486">  7  8 -1 -1</clus>
<clus scale="  114.227">  2  5  1 -1</clus>
<clus scale="   82.861">  1  5  2 -1</clus>
</clustering>
</event>
<event>
 9    1  0.1487426E-004  0.1607960E+03  0.7546771E-02  0.1208300E+00
         -2   -1    0    0    0  501 -0.00000000000E+00  0.00000000000E+00  0.25157984034E+03  0.25157984034E+03  0.00000000000E+00 0.  1.
         21   -1    0    0  501  502  0.00000000000E+00 -0.00000000000E+00 -0.70834293357E+03  0.70834293357E+03  0.00000000000E+00 0. -1.
        -24    2    1    2    0    0 -0.31175109574E+02 -0.55586460194E+02  0.19868866935E+03  0.22373684222E+03  0.80741843072E+02 0.  0.
         23    2    1    2    0    0 -0.95388121199E+02  0.75576300850E+02 -0.53983463069E+03  0.56360213667E+03  0.10684226250E+03 0.  0.
         11    1    3    3    0    0 -0.26737831219E+02 -0.51088333407E+02  0.54283824558E+02  0.79193832065E+02  0.00000000000E+00 0. -1.
        -12    1    3    3    0    0 -0.44372783551E+01 -0.44981267876E+01  0.14440484479E+03  0.14454301015E+03  0.00000000000E+00 0.  1.
        -13    1    4    4    0    0 -0.11844850800E+03  0.71182204259E+02 -0.47242476561E+03  0.49222161108E+03  0.00000000000E+00 0. -1.
         13    1    4    4    0    0  0.23060386802E+02  0.43940965911E+01 -0.67409865074E+02  0.71380525591E+02  0.00000000000E+00 0.  1.
         -1    1    1    2    0  502  0.12656323077E+03 -0.19989840656E+02 -0.11561713190E+03  0.17258379501E+03  0.00000000000E+00 0.  1.
<scales pt_clust_5="13000.00000" pt_clust_6="13000.00000" pt_clust_7="13000.00000" pt_clust_8="13000.00000" pt_clust_9="120.16696"></scales>
<clustering>
<clus scale="   80.742">  5  6 -1 -1</clus>
<clus scale="  102.864">  1  5  2 -1</clus>
<clus scale="  106.842">  7  8 -1 -1</clus>
<clus scale="  120.167">  2  9  1 -1</clus>
<clus scale="  120.167">  2  5  1 -1</clus>
</clustering>
</event>
<event>
 9    1  0.1487426E-004  0.1173910E+03  0.7546771E-02  0.1250535E+00
          1   -1    0    0  502    0 -0.00000000000E+00  0.00000000000E+00  0.45419323028E+03  0.45419323028E+03  0.00000000000E+00 0. -1.
         21   -1    0    0  501  502  0.00000000000E+00 -0.00000000000E+00 -0.58922340704E+02  0.58922340704E+02  0.00000000000E+00 0.  1.
        -24    2    1    2    0    0 -0.64835091295E+02  0.18049063362E+02  0.22222750158E+03  0.24633589258E+03  0.82261484106E+02 0.  0.
         23    2    1    2    0    0  0.96903931656E+02 -0.12740082393E+02  0.55614353622E+02  0.14493480195E+03  0.91435544615E+02 0.  0.
         11    1    3    3    0    0  0.14247264689E+02  0.22808306077E+02  0.62481494659E+02  0.68023088375E+02  0.00000000000E+00 0. -1.
        -12    1    3    3    0    0 -0.79082355984E+02 -0.47592427155E+01  0.15974600692E+03  0.17831280421E+03  0.00000000000E+00 0.  1.
        -11    1    4    4    0    0  0.52382689968E+02 -0.45922270056E+02  0.56042290212E+02  0.89406595884E+02  0.00000000000E+00 0. -1.
         11    1    4    4    0    0  0.44521241689E+02  0.33182187664E+02 -0.42793659014E+00  0.55528206070E+02  0.00000000000E+00 0.  1.
          2    1    1    2  501    0 -0.32068840361E+02 -0.53089809691E+01  0.11742903437E+03  0.12184487644E+03  0.00000000000E+00 0. -1.
<scales pt_clust_5="13000.00000" pt_clust_6="13000.00000" pt_clust_7="13000.00000" pt_clust_8="13000.00000" pt_clust_9="32.50534"></scales>
<clustering>
<clus scale="   32.505">  2  9  1 -1</clus>
<clus scale="   82.261">  5  6 -1 -1</clus>
<clus scale="   91.436">  7  8 -1 -1</clus>
<clus scale="  110.395">  1  5  2 -1</clus>
<clus scale="   32.505">  2  5  1 -1</clus>
</clustering>
</event>
<event>
 9    1  0.1487426E-004  0.9834927E+02  0.7546771E-02  0.1289018E+00
          1   -1    0    0  502    0 -0.00000000000E+00  0.00000000000E+00  0.10405281548E+03  0.10405281548E+03  0.00000000000E+00 0. -1.
         21   -1    0    0  501  502  0.00000000000E+00 -0.00000000000E+00 -0.38109845886E+03  0.38109845886E+03  0.00000000000E+00 0. -1.
         23    2    1    2    0    0  0.18515995276E+02  0.41562902735E+02  0.33992539857E+02  0.10727895024E+03  0.91010787463E+02 0.  0.
        -24    2    1    2    0    0  0.23586381826E+02 -0.29576813481E+02 -0.31264896240E+02  0.94695049918E+02  0.80984896362E+02 0.  0.
         11    1    4    4    0    0  0.46646341779E+02 -0.19931657613E+02 -0.43538256804E+02  0.66848575019E+02  0.00000000000E+00 0. -1.
        -12    1    4    4    0    0 -0.23059959953E+02 -0.96451558683E+01  0.12273360564E+02  0.27846474899E+02  0.00000000000E+00 0.  1.
        -11    1    3    3    0    0 -0.34463114503E+02  0.11185770887E+02  0.28240472777E+02  0.45938568047E+02  0.00000000000E+00 0. -1.
         11    1    3    3    0    0  0.52979109779E+02  0.30377131849E+02  0.57520670802E+01  0.61340382197E+02  0.00000000000E+00 0.  1.
          2    1    1    2  501    0 -0.42102377102E+02 -0.11986089255E+02 -0.27977328700E+03  0.28317727418E+03  0.00000000000E+00 0. -1.
<scales pt_clust_5="13000.00000" pt_clust_6="13000.00000" pt_clust_7="13000.00000" pt_clust_8="13000.00000" pt_clust_9="43.77530"></scales>
<clustering>
<clus scale="   43.775">  2  9  1 -1</clus>
<clus scale="   80.985">  5  6 -1 -1</clus>
<clus scale="   89.153">  2  5  1 -1</clus>
<clus scale="   91.011">  7  8 -1 -1</clus>
<clus scale="   43.775">  2  5  1 -1</clus>
</clustering>
</event>
<event>
 9    1  0.1487426E-004  0.1106750E+03  0.7546771E-02  0.1267677E+00
         21   -1    0    0  501  502  0.00000000000E+00  0.00000000000E+00  0.35075561942E+03  0.35075561942E+03  0.00000000000E+00 0. -1.
          1   -1    0    0  502    0 -0.00000000000E+00 -0.00000000000E+00 -0.66850415119E+02  0.66850415119E+02  0.00000000000E+00 0. -1.
         23    2    1    2    0    0 -0.57520988103E+02 -0.40983976241E+01  0.10004383381E+02  0.11520083469E+03  0.99225418577E+02 0.  0.
        -24    2    1    2    0    0  0.29492279613E+02  0.53203481429E+00  0.12877847884E+03  0.15455790831E+03  0.80213295602E+02 0.  0.
         11    1    4    4    0    0  0.46066512963E+01  0.32429547991E+02  0.99127121429E+02  0.10439867347E+03  0.00000000000E+00 0. -1.
        -12    1    4    4    0    0  0.24885628317E+02 -0.31897513177E+02  0.29651357406E+02  0.50159234839E+02  0.00000000000E+00 0.  1.
        -13    1    3    3    0    0 -0.45586852657E+02 -0.29633300791E+02 -0.33132712691E+02  0.63671581582E+02  0.00000000000E+00 0. -1.
         13    1    3    3    0    0 -0.11934135446E+02  0.25534903167E+02  0.43137096072E+02  0.51529253110E+02  0.00000000000E+00 0.  1.
          2    1    1    2  501    0  0.28028708489E+02  0.35663628098E+01  0.14512234208E+03  0.14784729154E+03  0.00000000000E+00 0. -1.
<scales pt_clust_5="13000.00000" pt_clust_6="13000.00000" pt_clust_7="13000.00000" pt_clust_8="13000.00000" pt_clust_9="28.25469"></scales>
<clustering>
<clus scale="   28.255">  1  9  2 -1</clus>
<clus scale="   80.213">  5  6 -1 -1</clus>
<clus scale="   94.008">  1  5  2 -1</clus>
<clus scale="   99.225">  7  8 -1 -1</clus>
<clus scale="   28.255">  1  5  2 -1</clus>
</clustering>
</event>
<event>
 9    1  0.1487426E-004  0.9705156E+02  0.7546771E-02  0.1297224E+00
         21   -1    0    0  501  502  0.00000000000E+00  0.00000000000E+00  0.25839638710E+03  0.25839638710E+03  0.00000000000E+00 0.  1.
         -2   -1    0    0    0  501 -0.00000000000E+00 -0.00000000000E+00 -0.77914123026E+02  0.77914123026E+02  0.00000000000E+00 0.  1.
         23    2    1    2    0    0  0.22357029102E+02  0.55300422174E+01 -0.14392472837E+02  0.96289608963E+02  0.92380340997E+02 0.  0.
        -24    2    1    2    0    0 -0.43604132287E+02 -0.43168770399E+02  0.14637547798E+03  0.17505713149E+03  0.73853609539E+02 0.  0.
         11    1    4    4    0    0  0.47595478854E+01 -0.39848851651E+02  0.33733501032E+02  0.52426456736E+02  0.00000000000E+00 0. -1.
        -12    1    4    4    0    0 -0.48363680173E+02 -0.33199187482E+01  0.11264197695E+03  0.12263067476E+03  0.00000000000E+00 0.  1.
        -11    1    3    3    0    0 -0.13546654746E+02  0.16269809619E+02 -0.43803271798E+02  0.48651260827E+02  0.00000000000E+00 0.  1.
         11    1    3    3    0    0  0.35903683848E+02 -0.10739767401E+02  0.29410798960E+02  0.47638348137E+02  0.00000000000E+00 0. -1.
         -1    1    1    2    0  502  0.21247103185E+02  0.37638728182E+02  0.48499258928E+02  0.64963769668E+02  0.00000000000E+00 0.  1.
<scales pt_clust_5="13000.00000" pt_clust_6="13000.00000" pt_clust_7="13000.00000" pt_clust_8="13000.00000" pt_clust_9="43.22168"></scales>
<clustering>
<clus scale="   43.222">  1  9  2 -1</clus>
<clus scale="   73.854">  5  6 -1 -1</clus>
<clus scale="   79.619">  1  5  2 -1</clus>
<clus scale="   92.380">  7  8 -1 -1</clus>
<clus scale="   43.222">  1  5  2 -1</clus>
</clustering>
</event>
<event>
 9    1  0.1487426E-004  0.1451538E+03  0.7546771E-02  0.1225213E+00
         21   -1    0    0  501  502  0.00000000000E+00  0.00000000000E+00  0.97344946982E+02  0.97344946982E+02  0.00000000000E+00 0. -1.
          1   -1    0    0  502    0 -0.00000000000E+00 -0.00000000000E+00 -0.52235470329E+03  0.52235470329E+03  0.00000000000E+00 0. -1.
        -24    2    1    2    0    0  0.36137985029E+02 -0.41842050812E+02 -0.13044780953E+03  0.16306368215E+03  0.80724359693E+02 0.  0.
         23    2    1    2    0    0  0.73354549809E+02  0.86106413639E+02 -0.75181022597E+01  0.14624570139E+03  0.92390902514E+02 0.  0.
         13    1    3    3    0    0  0.37105173187E+02 -0.53324686989E+02 -0.13566290082E+03  0.15041522123E+03  0.00000000000E+00 0. -1.
        -14    1    3    3    0    0 -0.96718815719E+00  0.11482636177E+02  0.52150912889E+01  0.12648460920E+02  0.00000000000E+00 0.  1.
        -11    1    4    4    0    0  0.20928208167E+02  0.64224822098E+02  0.34248476373E+02  0.75734904796E+02  0.00000000000E+00 0. -1.
         11    1    4    4    0    0  0.52426341641E+02  0.21881591541E+02 -0.41766578633E+02  0.70510796598E+02  0.00000000000E+00 0.  1.
          2    1    1    2  501    0 -0.10949253484E+03 -0.44264362827E+02 -0.28704384452E+03  0.31039026673E+03  0.00000000000E+00 0. -1.
<scales pt_clust_5="13000.00000" pt_clust_6="13000.00000" pt_clust_7="13000.00000" pt_clust_8="13000.00000" pt_clust_9="111.95340"></scales>
<clustering>
<clus scale="   80.724">  5  6 -1 -1</clus>
<clus scale="   92.391">  7  8 -1 -1</clus>
<clus scale="   97.842">  2  5  1 -1</clus>
<clus scale="  111.953">  1  9  2 -1</clus>
<clus scale="  111.953">  1  5  2 -1</clus>
</clustering>
</event>
<event>
 9    1  0.1487426E-004  0.1582489E+03  0.7546771E-02  0.1191345E+00
         -2   -1    0    0    0  501 -0.00000000000E+00  0.00000000000E+00  0.26705503597E+03  0.26705503597E+03  0.00000000000E+00 0.  1.
         21   -1    0    0  501  502  0.00000000000E+00 -0.00000000000E+00 -0.57799455479E+03  0.57799455479E+03  0.00000000000E+00 0.  1.
        -24    2    1    2    0    0 -0.40405928049E+01 -0.12982694586E+03  0.21496595318E+03  0.26482563371E+03  0.83969595587E+02 0.  0.
         23    2    1    2    0    0  0.32890455289E+02  0.14877675087E+03 -0.27201718794E+03  0.32400008920E+03  0.88127201340E+02 0.  0.
         11    1    3    3    0    0 -0.16858351588E+02 -0.10871167880E+03  0.10485118761E+03  0.15197435530E+03  0.00000000000E+00 0. -1.
        -12    1    3    3    0    0  0.12817758783E+02 -0.21115267067E+02  0.11011476557E+03  0.11285127842E+03  0.00000000000E+00 0.  1.
        -13    1    4    4    0    0 -0.30102672931E+02  0.58328682072E+02 -0.94947789532E+02  0.11542741792E+03  0.00000000000E+00 0. -1.
         13    1    4    4    0    0  0.62993128220E+02  0.90448068798E+02 -0.17706939841E+03  0.20857267128E+03  0.00000000000E+00 0.  1.
         -1    1    1    2    0  502 -0.28849862484E+02 -0.18949805006E+02 -0.25388828406E+03  0.25622386785E+03  0.00000000000E+00 0.  1.
<scales pt_clust_5="13000.00000" pt_clust_6="13000.00000" pt_clust_7="13000.00000" pt_clust_8="13000.00000" pt_clust_9="34.51680"></scales>
<clustering>
<clus scale="   34.517">  2  9  1 -1</clus>
<clus scale="   83.970">  5  6 -1 -1</clus>
<clus scale="   88.127">  7  8 -1 -1</clus>
<clus scale="  155.972">  1  5  2 -1</clus>
<clus scale="   34.517">  2  5  1 -1</clus>
</clustering>
</event>
<event>
 9    1  0.1487426E-004  0.9487819E+02  0.7546771E-02  0.1299157E+00
          1   -1    0    0  502    0 -0.00000000000E+00  0.00000000000E+00  0.65205134711E+03  0.65205134711E+03  0.00000000000E+00 0. -1.
         21   -1    0    0  501  502  0.00000000000E+00 -0.00000000000E+00 -0.28506736847E+02  0.28506736847E+02  0.00000000000E+00 0.  1.
         23    2    1    2    0    0 -0.52002867284E+01 -0.52785964288E+02  0.26157568383E+03  0.28240218925E+03  0.92280859953E+02 0.  0.
        -24    2    1    2    0    0 -0.90602515166E+01 -0.16759671696E+02  0.11330459819E+03  0.13955599801E+03  0.79214707314E+02 0.  0.
         13    1    4    4    0    0  0.33399015211E+02 -0.19156467174E+02  0.46603974546E+02  0.60451591336E+02  0.00000000000E+00 0. -1.
        -14    1    4    4    0    0 -0.42459266727E+02  0.23967954780E+01  0.66700623649E+02  0.79104406671E+02  0.00000000000E+00 0.  1.
        -13    1    3    3    0    0 -0.19277104437E+01 -0.79500613686E+02  0.19566218578E+03  0.21120547954E+03  0.00000000000E+00 0. -1.
         13    1    3    3    0    0 -0.32725762847E+01  0.26714649398E+02  0.65913498052E+02  0.71196709709E+02  0.00000000000E+00 0.  1.
          2    1    1    2  501    0  0.14260538245E+02  0.69545635984E+02  0.24866432824E+03  0.25859989671E+03  0.00000000000E+00 0. -1.
<scales pt_clust_5="13000.00000" pt_clust_6="13000.00000" pt_clust_7="13000.00000" pt_clust_8="13000.00000" pt_clust_9="70.99270"></scales>
<clustering>
<clus scale="   70.993">  2  9  1 -1</clus>
<clus scale="   79.215">  5  6 -1 -1</clus>
<clus scale="   82.226">  2  5  1 -1</clus>
<clus scale="   92.281">  7  8 -1 -1</clus>
<clus scale="   70.993">  2  5  1 -1</clus>
</clustering>
</event>
<event>
 9    1  0.1487426E-004  0.1056336E+03  0.7546771E-02  0.1273793E+00
         -2   -1    0    0    0  501 -0.00000000000E+00  0.00000000000E+00  0.20261982511E+03  0.20261982511E+03  0.00000000000E+00 0.  1.
         21   -1    0    0  501  502  0.00000000000E+00 -0.00000000000E+00 -0.72707951401E+02  0.72707951401E+02  0.00000000000E+00 0.  1.
         23    2    1    2    0    0 -0.50741655421E+02  0.17356349235E+02  0.80677411142E+02  0.13316596685E+03  0.91369423790E+02 0.  0.
        -24    2    1    2    0    0  0.55226359071E+02  0.80632957512E+01  0.14241204086E+02  0.98678490368E+02  0.80122812561E+02 0.  0.
         11    1    4    4    0    0  0.52120812498E+02  0.33141935163E+02  0.30238716765E+02  0.68770247588E+02  0.00000000000E+00 0. -1.
        -12    1    4    4    0    0  0.31055465731E+01 -0.25078639411E+02 -0.15997512678E+02  0.29908242779E+02  0.00000000000E+00 0.  1.
        -11    1    3    3    0    0 -0.54149521214E+02 -0.83817652758E+01  0.90177508181E+02  0.10551970251E+03  0.00000000000E+00 0.  1.
         11    1    3    3    0    0  0.34078657926E+01  0.25738114510E+02 -0.95000970384E+01  0.27646264333E+02  0.00000000000E+00 0. -1.
         -1    1    1    2    0  502 -0.44847036499E+01 -0.25419644986E+02  0.34993258480E+02  0.43483319297E+02  0.00000000000E+00 0.  1.
<scales pt_clust_5="13000.00000" pt_clust_6="13000.00000" pt_clust_7="13000.00000" pt_clust_8="13000.00000" pt_clust_9="25.81224"></scales>
<clustering>
<clus scale="   25.812">  2  9  1 -1</clus>
<clus scale="   80.123">  5  6 -1 -1</clus>
<clus scale="   91.369">  7  8 -1 -1</clus>
<clus scale="   96.072">  2  5  1 -1</clus>
<clus scale="   25.812">  2  5  1 -1</clus>
</clustering>
</event>
<event>
 9    1  0.1487426E-004  0.9521891E+02  0.7546771E-02  0.1298015E+00
         -2   -1    0    0    0  501 -0.00000000000E+00  0.00000000000E+00  0.18660449322E+03  0.18660449322E+03  0.00000000000E+00 0.  1.
         21   -1    0    0  501  502  0.00000000000E+00 -0.00000000000E+00 -0.10300644522E+03  0.10300644522E+03  0.00000000000E+00 0.  1.
        -24    2    1    2    0    0 -0.15348934496E+01 -0.14242896642E+02  0.11502036994E+03  0.14143887416E+03  0.81055867288E+02 0.  0.
         23    2    1    2    0    0  0.36746671863E+02  0.24185175378E+02 -0.57079054307E+01  0.10345126976E+03  0.93457714665E+02 0.  0.
         13    1    3    3    0    0 -0.31852499912E+01  0.27163585826E+02  0.11019489158E+02  0.29486189204E+02  0.00000000000E+00 0. -1.
        -14    1    3    3    0    0  0.16503565416E+01 -0.41406482468E+02  0.10400088078E+03  0.11195268496E+03  0.00000000000E+00 0.  1.
        -11    1    4    4    0    0  0.18831896358E+02 -0.96280122520E+01  0.39144828069E+02  0.44493331016E+02  0.00000000000E+00 0.  1.
         11    1    4    4    0    0  0.17914775505E+02  0.33813187630E+02 -0.44852733500E+02  0.58957938749E+02  0.00000000000E+00 0. -1.
         -1    1    1    2    0  502 -0.35211778414E+02 -0.99422787362E+01 -0.25714416511E+02  0.44720794515E+02  0.00000000000E+00 0.  1.
<scales pt_clust_5="13000.00000" pt_clust_6="13000.00000" pt_clust_7="13000.00000" pt_clust_8="13000.00000" pt_clust_9="36.58850"></scales>
<clustering>
<clus scale="   36.588">  2  9  1 -1</clus>
<clus scale="   81.056">  5  6 -1 -1</clus>
<clus scale="   83.080">  1  5  2 -1</clus>
<clus scale="   93.458">  7  8 -1 -1</clus>
<clus scale="   36.588">  2  5  1 -1</clus>
</clustering>
</event>
<event>
 9    1  0.1487426E-004  0.9444892E+02  0.7546771E-02  0.1299432E+00
         21   -1    0    0  501  502  0.00000000000E+00  0.00000000000E+00  0.18634147379E+03  0.18634147379E+03  0.00000000000E+00 0.  1.
          1   -1    0    0  502    0 -0.00000000000E+00 -0.00000000000E+00 -0.12489355471E+03  0.12489355471E+03  0.00000000000E+00 0. -1.
        -24    2    1    2    0    0  0.47665961478E+01  0.16331307011E+02 -0.39677507595E+02  0.91460146218E+02  0.80630153850E+02 0.  0.
         23    2    1    2    0    0  0.64337952821E+02 -0.25751616784E+02  0.95345145213E+02  0.14979208026E+03  0.92436208558E+02 0.  0.
         11    1    3    3    0    0  0.92328322819E+00  0.39429286801E+02  0.62268530242E+01  0.39928621416E+02  0.00000000000E+00 0. -1.
        -12    1    3    3    0    0  0.38433129196E+01 -0.23097979791E+02 -0.45904360619E+02  0.51531524802E+02  0.00000000000E+00 0.  1.
        -11    1    4    4    0    0  0.34002945440E+02 -0.92467065171E+01 -0.11845622817E+02  0.37175538461E+02  0.00000000000E+00 0. -1.
         11    1    4    4    0    0  0.30335007382E+02 -0.16504910267E+02  0.10719076803E+03  0.11261654180E+03  0.00000000000E+00 0.  1.
          2    1    1    2  501    0 -0.69104548969E+02  0.94203097728E+01  0.57802814657E+01  0.69982802018E+02  0.00000000000E+00 0. -1.
<scales pt_clust_5="13000.00000" pt_clust_6="13000.00000" pt_clust_7="13000.00000" pt_clust_8="13000.00000" pt_clust_9="69.74372"></scales>
<clustering>
<clus scale="   69.744">  1  9  2 -1</clus>
<clus scale="   80.630">  5  6 -1 -1</clus>
<clus scale="   82.930">  2  5  1 -1</clus>
<clus scale="   92.436">  7  8 -1 -1</clus>
<clus scale="   69.744">  1  5  2 -1</clus>
</clustering>
</event>
<event>
 9    1  0.1487426E-004  0.9332979E+02  0.7546771E-02  0.1302692E+00
         21   -1    0    0  501  502  0.00000000000E+00  0.00000000000E+00  0.10034887660E+03  0.10034887660E+03  0.00000000000E+00 0. -1.
          1   -1    0    0  502    0 -0.00000000000E+00 -0.00000000000E+00 -0.17126213892E+03  0.17126213892E+03  0.00000000000E+00 0. -1.
        -24    2    1    2    0    0 -0.82491204485E+01  0.11499467925E+02 -0.63093830255E+02  0.10222736097E+03  0.79179013400E+02 0.  0.
         23    2    1    2    0    0 -0.19931528460E+02 -0.36164632489E+02  0.40280712946E+02  0.10842347685E+03  0.91803965202E+02 0.  0.
         11    1    3    3    0    0  0.21571414965E+02  0.34192704346E+02 -0.19954201410E+02  0.45084777121E+02  0.00000000000E+00 0. -1.
        -12    1    3    3    0    0 -0.29820535413E+02 -0.22693236421E+02 -0.43139628844E+02  0.57142583845E+02  0.00000000000E+00 0.  1.
        -13    1    4    4    0    0  0.12273014262E+02  0.24738122207E+02  0.26281249097E+02  0.38122245782E+02  0.00000000000E+00 0.  1.
         13    1    4    4    0    0 -0.32204542722E+02 -0.60902754696E+02  0.13999463850E+02  0.70301231067E+02  0.00000000000E+00 0. -1.
          2    1    1    2  501    0  0.28180648909E+02  0.24665164564E+02 -0.48100145010E+02  0.60960177705E+02  0.00000000000E+00 0. -1.
<scales pt_clust_5="13000.00000" pt_clust_6="13000.00000" pt_clust_7="13000.00000" pt_clust_8="13000.00000" pt_clust_9="37.45024"></scales>
<clustering>
<clus scale="   37.450">  1  9  2 -1</clus>
<clus scale="   79.179">  5  6 -1 -1</clus>
<clus scale="   80.943">  2  5  1 -1</clus>
<clus scale="   91.804">  7  8 -1 -1</clus>
<clus scale="   37.450">  1  5  2 -1</clus>
</clustering>
</event>
<event>
 9    1  0.1487426E-004  0.1434399E+03  0.7546771E-02  0.1210718E+00
          1   -1    0    0  502    0 -0.00000000000E+00  0.00000000000E+00  0.56966587336E+03  0.56966587336E+03  0.00000000000E+00 0. -1.
         21   -1    0    0  501  502  0.00000000000E+00 -0.00000000000E+00 -0.43734267136E+02  0.43734267136E+02  0.00000000000E+00 0. -1.
         23    2    1    2    0    0  0.39913262827E+02  0.10951436035E+03  0.33786795952E+03  0.36893710847E+03  0.91506110521E+02 0.  0.
        -24    2    1    2    0    0 -0.51091191624E+02 -0.88984110846E+02  0.17037228165E+03  0.21514713814E+03  0.82055437678E+02 0.  0.
         13    1    4    4    0    0 -0.67042366574E+02 -0.58409940145E+02  0.84733112722E+02  0.12282548764E+03  0.00000000000E+00 0. -1.
        -14    1    4    4    0    0  0.15951174950E+02 -0.30574170702E+02  0.85639168926E+02  0.92321650499E+02  0.00000000000E+00 0.  1.
        -13    1    3    3    0    0  0.26651985873E+02  0.31148119548E+02  0.23699336002E+03  0.24051275724E+03  0.00000000000E+00 0. -1.
         13    1    3    3    0    0  0.13261276954E+02  0.78366240800E+02  0.10087459950E+03  0.12842435122E+03  0.00000000000E+00 0.  1.
          2    1    1    2  501    0  0.11177928797E+02 -0.20530249503E+02  0.17691365061E+02  0.29315893890E+02  0.00000000000E+00 0. -1.
<scales pt_clust_5="13000.00000" pt_clust_6="13000.00000" pt_clust_7="13000.00000" pt_clust_8="13000.00000" pt_clust_9="23.37600"></scales>
<clustering>
<clus scale="   23.376">  2  9  1 -1</clus>
<clus scale="   82.055">  5  6 -1 -1</clus>
<clus scale="   91.506">  7  8 -1 -1</clus>
<clus scale="  137.603">  2  5  1 -1</clus>
<clus scale="   23.376">  2  5  1 -1</clus>
</clustering>
</event>
<event>
 9    1  0.1487426E-004  0.1337915E+03  0.7546771E-02  0.1224361E+00
          3   -1    0    0  502    0 -0.00000000000E+00  0.00000000000E+00  0.45244254168E+02  0.45244254168E+02  0.00000000000E+00 0. -1.
         21   -1    0    0  501  502  0.00000000000E+00 -0.00000000000E+00 -0.79706736873E+03  0.79706736873E+03  0.00000000000E+00 0. -1.
         23    2    1    2    0    0 -0.45249448129E+01 -0.11053774471E+03 -0.33581393057E+03  0.36508609893E+03  0.90982391357E+02 0.  0.
        -24    2    1    2    0    0  0.47894923537E+02  0.76731603525E+02 -0.40277091625E+03  0.42066527318E+03  0.80951827652E+02 0.  0.
         11    1    4    4    0    0  0.10364339397E+02  0.74629447040E+02 -0.33295014239E+03  0.34136896639E+03  0.00000000000E+00 0. -1.
        -12    1    4    4    0    0  0.37530584139E+02  0.21021564849E+01 -0.69820773863E+02  0.79296306790E+02  0.00000000000E+00 0.  1.
        -11    1    3    3    0    0  0.35806131136E+02 -0.40134485985E+02 -0.77544391891E+02  0.94371546061E+02  0.00000000000E+00 0.  1.
         11    1    3    3    0    0 -0.40331075949E+02 -0.70403258725E+02 -0.25826953868E+03  0.27071455287E+03  0.00000000000E+00 0. -1.
          4    1    1    2  501    0 -0.43369978724E+02  0.33806141184E+02 -0.13238267738E+02  0.56560250786E+02  0.00000000000E+00 0. -1.
<scales pt_clust_5="13000.00000" pt_clust_6="13000.00000" pt_clust_7="13000.00000" pt_clust_8="13000.00000" pt_clust_9="54.98921"></scales>
<clustering>
<clus scale="   54.989">  2  9  1 -1</clus>
<clus scale="   80.952">  5  6 -1 -1</clus>
<clus scale="   90.982">  7  8 -1 -1</clus>
<clus scale="  127.183">  2  5  1 -1</clus>
<clus scale="   54.989">  2  5  1 -1</clus>
</clustering>
</event>
<event>
 9    1  0.1487426E-004  0.1030467E+03  0.7546771E-02  0.1278149E+00
          3   -1    0    0  502    0 -0.00000000000E+00  0.00000000000E+00  0.27945198133E+03  0.27945198133E+03  0.00000000000E+00 0. -1.
         21   -1    0    0  501  502  0.00000000000E+00 -0.00000000000E+00 -0.18118050803E+03  0.18118050803E+03  0.00000000000E+00 0. -1.
        -24    2    1    2    0    0  0.16064551229E+01  0.37181758824E+02  0.18501390216E+03  0.20654799257E+03  0.83945609501E+02 0.  0.
         23    2    1    2    0    0  0.11693638228E+02 -0.78261935526E+02  0.33409888637E+02  0.12640892042E+03  0.92743316613E+02 0.  0.
         13    1    3    3    0    0 -0.95897427480E+01  0.62618822577E+02  0.11645532273E+03  0.13257044278E+03  0.00000000000E+00 0. -1.
        -14    1    3    3    0    0  0.11196197871E+02 -0.25437063754E+02  0.68558579434E+02  0.73977549792E+02  0.00000000000E+00 0.  1.
        -11    1    4    4    0    0  0.49860629496E+02 -0.35144432052E+02  0.31823637367E+02  0.68803759877E+02  0.00000000000E+00 0.  1.
         11    1    4    4    0    0 -0.38166991268E+02 -0.43117503474E+02  0.15862512699E+01  0.57605160545E+02  0.00000000000E+00 0. -1.
          4    1    1    2  501    0 -0.13300093351E+02  0.41080176702E+02 -0.12015231750E+03  0.12767557637E+03  0.00000000000E+00 0. -1.
<scales pt_clust_5="13000.00000" pt_clust_6="13000.00000" pt_clust_7="13000.00000" pt_clust_8="13000.00000" pt_clust_9="43.17955"></scales>
<clustering>
<clus scale="   43.180">  2  9  1 -1</clus>
<clus scale="   83.946">  5  6 -1 -1</clus>
<clus scale="   92.743">  7  8 -1 -1</clus>
<clus scale="   95.206">  1  5  2 -1</clus>
<clus scale="   43.180">  2  5  1 -1</clus>
</clustering>
</event>
<event>
 9    1  0.1487426E-004  0.9473991E+02  0.7546771E-02  0.1300492E+00
         -2   -1    0    0    0  501 -0.00000000000E+00  0.00000000000E+00  0.69321349081E+03  0.69321349081E+03  0.00000000000E+00 0.  1.
         21   -1    0    0  501  502  0.00000000000E+00 -0.00000000000E+00 -0.19471901730E+02  0.19471901730E+02  0.00000000000E+00 0. -1.
        -24    2    1    2    0    0 -0.16461039701E+02  0.96457816486E+01  0.32748592049E+03  0.33766329149E+03  0.80034138774E+02 0.  0.
         23    2    1    2    0    0 -0.18685263147E+02 -0.15454612387E+00  0.17226338626E+03  0.19726198047E+03  0.94278585861E+02 0.  0.
         11    1    3    3    0    0 -0.26808272766E+02 -0.28122244621E+02  0.10951717469E+03  0.11620480061E+03  0.00000000000E+00 0. -1.
        -12    1    3    3    0    0  0.10347233065E+02  0.37768026269E+02  0.21796874580E+03  0.22145849088E+03  0.00000000000E+00 0.  1.
        -11    1    4    4    0    0 -0.53030192696E+02 -0.52963677317E+00  0.61060773299E+02  0.80875830063E+02  0.00000000000E+00 0. -1.
         11    1    4    4    0    0  0.34344929548E+02  0.37509064930E+00  0.11120261296E+03  0.11638615041E+03  0.00000000000E+00 0.  1.
         -1    1    1    2    0  502  0.35146302848E+02 -0.94912355247E+01  0.17399228233E+03  0.17776012058E+03  0.00000000000E+00 0.  1.
<scales pt_clust_5="13000.00000" pt_clust_6="13000.00000" pt_clust_7="13000.00000" pt_clust_8="13000.00000" pt_clust_9="36.40532"></scales>
<clustering>
<clus scale="   36.405">  2  9  1 -1</clus>
<clus scale="   80.034">  5  6 -1 -1</clus>
<clus scale="   80.577">  1  5  2 -1</clus>
<clus scale="   94.279">  7  8 -1 -1</clus>
<clus scale="   36.405">  2  5  1 -1</clus>
</clustering>
</event>
<event>
 9    1  0.1487426E-004  0.1273382E+03  0.7546771E-02  0.1233223E+00
          3   -1    0    0  502    0 -0.00000000000E+00  0.00000000000E+00  0.46895495249E+03  0.46895495249E+03  0.00000000000E+00 0. -1.
         21   -1    0    0  501  502  0.00000000000E+00 -0.00000000000E+00 -0.58033952611E+02  0.58033952611E+02  0.00000000000E+00 0. -1.
         23    2    1    2    0    0  0.20800871361E+02  0.96159986806E+02  0.30475960227E+03  0.33300875125E+03  0.91307140557E+02 0.  0.
        -24    2    1    2    0    0  0.19653199489E+02 -0.69500288171E+02  0.57851723432E+02  0.12556161836E+03  0.84866717837E+02 0.  0.
         11    1    4    4    0    0 -0.62876120231E+01 -0.44207943819E+02 -0.12551247416E+02  0.46383296275E+02  0.00000000000E+00 0. -1.
        -12    1    4    4    0    0  0.25940811512E+02 -0.25292344352E+02  0.70402970848E+02  0.79178322090E+02  0.00000000000E+00 0.  1.
        -11    1    3    3    0    0  0.75636428259E+01  0.61306858547E+02  0.28337371865E+03  0.29002828141E+03  0.00000000000E+00 0. -1.
         11    1    3    3    0    0  0.13237228535E+02  0.34853128259E+02  0.21385883622E+02  0.42980469832E+02  0.00000000000E+00 0.  1.
          4    1    1    2  501    0 -0.40454070850E+02 -0.26659698635E+02  0.48309674171E+02  0.68418535487E+02  0.00000000000E+00 0. -1.
<scales pt_clust_5="13000.00000" pt_clust_6="13000.00000" pt_clust_7="13000.00000" pt_clust_8="13000.00000" pt_clust_9="48.44865"></scales>
<clustering>
<clus scale="   48.449">  2  9  1 -1</clus>
<clus scale="   84.867">  5  6 -1 -1</clus>
<clus scale="   91.307">  7  8 -1 -1</clus>
<clus scale="  122.802">  2  5  1 -1</clus>
<clus scale="   48.449">  2  5  1 -1</clus>
</clustering>
</event>
<event>
 9    1  0.1487426E-004  0.9179062E+02  0.7546771E-02  0.1304299E+00
          1   -1    0    0  502    0 -0.00000000000E+00  0.00000000000E+00  0.36476743015E+03  0.36476743015E+03  0.00000000000E+00 0. -1.
         21   -1    0    0  501  502  0.00000000000E+00 -0.00000000000E+00 -0.44212851517E+02  0.44212851517E+02  0.00000000000E+00 0.  1.
        -24    2    1    2    0    0  0.18671335372E+02 -0.64381025041E+00  0.15604697622E+03  0.17707647231E+03  0.81586671717E+02 0.  0.
         23    2    1    2    0    0  0.21111536741E+02 -0.38991171697E+02  0.73636336341E+02  0.12508061101E+03  0.90867160004E+02 0.  0.
         11    1    3    3    0    0  0.23017426566E+02 -0.38652815803E+02  0.93448748839E+02  0.10371359966E+03  0.00000000000E+00 0. -1.
        -12    1    3    3    0    0 -0.43460911940E+01  0.38009005553E+02  0.62598227378E+02  0.73362872644E+02  0.00000000000E+00 0.  1.
        -11    1    4    4    0    0  0.13674055250E+01 -0.32520314925E+02 -0.13694161778E+02  0.35312472974E+02  0.00000000000E+00 0.  1.
         11    1    4    4    0    0  0.19744131217E+02 -0.64708567711E+01  0.87330498119E+02  0.89768138036E+02  0.00000000000E+00 0. -1.
          2    1    1    2  501    0 -0.39782872114E+02  0.39634981947E+02  0.90871266075E+02  0.10682319835E+03  0.00000000000E+00 0. -1.
<scales pt_clust_5="13000.00000" pt_clust_6="13000.00000" pt_clust_7="13000.00000" pt_clust_8="13000.00000" pt_clust_9="56.15703"></scales>
<clustering>
<clus scale="   56.157">  2  9  1 -1</clus>
<clus scale="   81.587">  5  6 -1 -1</clus>
<clus scale="   82.614">  1  5  2 -1</clus>
<clus scale="   90.867">  7  8 -1 -1</clus>
<clus scale="   56.157">  2  5  1 -1</clus>
</clustering>
</event>
<event>
 9    1  0.1487426E-004  0.1658813E+03  0.7546771E-02  0.1194270E+00
         21   -1    0    0  501  502  0.00000000000E+00  0.00000000000E+00  0.61970139821E+03  0.61970139821E+03  0.00000000000E+00 0. -1.
          3   -1    0    0  502    0 -0.00000000000E+00 -0.00000000000E+00 -0.11115464868E+03  0.11115464868E+03  0.00000000000E+00 0. -1.
        -24    2    1    2    0    0 -0.99223250144E+02 -0.11148277607E+02 -0.35440921139E+01  0.12703275710E+03  0.78455231338E+02 0.  0.
         23    2    1    2    0    0 -0.85037075577E+02  0.20857350650E+02  0.14489787927E+03  0.19287705809E+03  0.92411205051E+02 0.  0.
         11    1    3    3    0    0 -0.25962343203E+02 -0.37088899822E+02 -0.16610978573E+02  0.48224001947E+02  0.00000000000E+00 0. -1.
        -12    1    3    3    0    0 -0.73260906941E+02  0.25940622215E+02  0.13066886459E+02  0.78808755151E+02  0.00000000000E+00 0.  1.
        -13    1    4    4    0    0 -0.10321818236E+02  0.37217030154E+02  0.13638483887E+02  0.40959193204E+02  0.00000000000E+00 0.  1.
         13    1    4    4    0    0 -0.74715257341E+02 -0.16359679504E+02  0.13125939539E+03  0.15191786488E+03  0.00000000000E+00 0. -1.
          4    1    1    2  501    0  0.18426032572E+03 -0.97090730425E+01  0.36719296238E+03  0.41094623170E+03  0.00000000000E+00 0. -1.
<scales pt_clust_5="13000.00000" pt_clust_6="13000.00000" pt_clust_7="13000.00000" pt_clust_8="13000.00000" pt_clust_9="137.75626"></scales>
<clustering>
<clus scale="   78.455">  5  6 -1 -1</clus>
<clus scale="   92.411">  7  8 -1 -1</clus>
<clus scale="  126.983">  2  5  1 -1</clus>
<clus scale="  137.756">  1  9  2 -1</clus>
<clus scale="  137.756">  1  5  2 -1</clus>
</clustering>
</event>
<event>
 9    1  0.1487426E-004  0.9374163E+02  0.7546771E-02  0.1297243E+00
          3   -1    0    0  502    0 -0.00000000000E+00  0.00000000000E+00  0.86920341461E+02  0.86920341461E+02  0.00000000000E+00 0. -1.
         21   -1    0    0  501  502  0.00000000000E+00 -0.00000000000E+00 -0.18424003201E+03  0.18424003201E+03  0.00000000000E+00 0.  1.
        -24    2    1    2    0    0 -0.30015878450E+02  0.13169933631E+02  0.23753803940E+02  0.92796708934E+02  0.83502011211E+02 0.  0.
         23    2    1    2    0    0  0.26477221895E+01 -0.30428684254E+02 -0.68197334386E+02  0.11637359471E+03  0.89213350289E+02 0.  0.
         11    1    3    3    0    0 -0.20269026460E+02 -0.35016644896E+02  0.87433618350E+01  0.41393782499E+02  0.00000000000E+00 0. -1.
        -12    1    3    3    0    0 -0.97468519902E+01  0.48186578527E+02  0.15010442105E+02  0.51402926435E+02  0.00000000000E+00 0.  1.
        -11    1    4    4    0    0  0.21585396237E+02 -0.56919805247E+02 -0.36773703738E+02  0.71120312476E+02  0.00000000000E+00 0. -1.
         11    1    4    4    0    0 -0.18937674047E+02  0.26491120993E+02 -0.31423630648E+02  0.45253282233E+02  0.00000000000E+00 0.  1.
          4    1    1    2  501    0  0.27368156260E+02  0.17258750623E+02 -0.52876160099E+02  0.61990069825E+02  0.00000000000E+00 0. -1.
<scales pt_clust_5="13000.00000" pt_clust_6="13000.00000" pt_clust_7="13000.00000" pt_clust_8="13000.00000" pt_clust_9="32.35553"></scales>
<clustering>
<clus scale="   32.356">  2  9  1 -1</clus>
<clus scale="   83.502">  5  6 -1 -1</clus>
<clus scale="   88.324">  1  5  2 -1</clus>
<clus scale="   89.213">  7  8 -1 -1</clus>
<clus scale="   32.356">  2  5  1 -1</clus>
</clustering>
</event>
<event>
 9    1  0.1487426E-004  0.1243281E+03  0.7546771E-02  0.1238308E+00
          3   -1    0    0  502    0 -0.00000000000E+00  0.00000000000E+00  0.57471408077E+03  0.57471408077E+03  0.00000000000E+00 0. -1.
         21   -1    0    0  501  502  0.00000000000E+00 -0.00000000000E+00 -0.77969736661E+02  0.77969736661E+02  0.00000000000E+00 0.  1.
        -24    2    1    2    0    0 -0.89366032694E+02 -0.28250121140E+02  0.36557907022E+03  0.38618289452E+03  0.81882930438E+02 0.  0.
         23    2    1    2    0    0  0.25649342107E+02  0.55033392110E+02 -0.10655777433E+02  0.10873409857E+03  0.89571176173E+02 0.  0.
         13    1    3    3    0    0 -0.96720440941E+01 -0.41943478211E+02  0.14475826470E+03  0.15102237914E+03  0.00000000000E+00 0. -1.
        -14    1    3    3    0    0 -0.79693988600E+02  0.13693357072E+02  0.22082080552E+03  0.23516051538E+03  0.00000000000E+00 0.  1.
        -11    1    4    4    0    0  0.58126765810E+02  0.36069744809E+02  0.36269621523E+01  0.68504760773E+02  0.00000000000E+00 0. -1.
         11    1    4    4    0    0 -0.32477423703E+02  0.18963647301E+02 -0.14282739585E+02  0.40229337795E+02  0.00000000000E+00 0.  1.
          4    1    1    2  501    0  0.63716690588E+02 -0.26783270970E+02  0.14182105132E+03  0.15776682434E+03  0.00000000000E+00 0. -1.
<scales pt_clust_5="13000.00000" pt_clust_6="13000.00000" pt_clust_7="13000.00000" pt_clust_8="13000.00000" pt_clust_9="69.11704"></scales>
<clustering>
<clus scale="   69.117">  2  9  1 -1</clus>
<clus scale="   81.883">  5  6 -1 -1</clus>
<clus scale="   89.571">  7  8 -1 -1</clus>
<clus scale="  118.909">  1  5  2 -1</clus>
<clus scale="   69.117">  2  5  1 -1</clus>
</clustering>
</event>
<event>
 9    1  0.1487426E-004  0.1217405E+03  0.7546771E-02  0.1240885E+00
         21   -1    0    0  501  502  0.00000000000E+00  0.00000000000E+00  0.28628701082E+03  0.28628701082E+03  0.00000000000E+00 0. -1.
         -2   -1    0    0    0  501 -0.00000000000E+00 -0.00000000000E+00 -0.99741008173E+02  0.99741008173E+02  0.00000000000E+00 0.  1.
         23    2    1    2    0    0  0.73230465413E+02 -0.18316770245E+02  0.74787071268E+01  0.11917621221E+03  0.91917535652E+02 0.  0.
        -24    2    1    2    0    0 -0.90046261187E+02 -0.17557101448E+02  0.60713307850E+02  0.14204246396E+03  0.89851960761E+02 0.  0.
         13    1    4    4    0    0 -0.91056969470E+02  0.50124927113E+01  0.72553687022E+02  0.11653554939E+03  0.00000000000E+00 0. -1.
        -14    1    4    4    0    0  0.10107082822E+01 -0.22569594159E+02 -0.11840379172E+02  0.25506914566E+02  0.00000000000E+00 0.  1.
        -11    1    3    3    0    0  0.46299031542E+02 -0.52417033206E+02 -0.13008188719E+02  0.71136197998E+02  0.00000000000E+00 0. -1.
         11    1    3    3    0    0  0.26931433871E+02  0.34100262961E+02  0.20486895846E+02  0.48040014215E+02  0.00000000000E+00 0.  1.
         -1    1    1    2    0  502  0.16815795775E+02  0.35873871693E+02  0.11835398767E+03  0.12480934282E+03  0.00000000000E+00 0.  1.
<scales pt_clust_5="13000.00000" pt_clust_6="13000.00000" pt_clust_7="13000.00000" pt_clust_8="13000.00000" pt_clust_9="39.61951"></scales>
<clustering>
<clus scale="   39.620">  1  9  2 -1</clus>
<clus scale="   89.852">  5  6 -1 -1</clus>
<clus scale="   91.918">  7  8 -1 -1</clus>
<clus scale="  120.189">  1  5  2 -1</clus>
<clus scale="   39.620">  1  5  2 -1</clus>
</clustering>
</event>
<event>
 9    1  0.1487426E-004  0.2534007E+03  0.7546771E-02  0.1111754E+00
          1   -1    0    0  502    0 -0.00000000000E+00  0.00000000000E+00  0.20315561187E+03  0.20315561187E+03  0.00000000000E+00 0. -1.
         21   -1    0    0  501  502  0.00000000000E+00 -0.00000000000E+00 -0.54145580966E+03  0.54145580966E+03  0.00000000000E+00 0. -1.
         23    2    1    2    0    0 -0.19762316186E+03 -0.16572981826E+03 -0.10058842294E+02  0.27383598399E+03  0.91453152253E+02 0.  0.
        -24    2    1    2    0    0  0.16707218699E+03  0.83093947317E+02 -0.32411034923E+03  0.38257614931E+03  0.80618061227E+02 0.  0.
         13    1    4    4    0    0  0.14252226236E+03  0.99305876716E+02 -0.27203585364E+03  0.32276579448E+03  0.00000000000E+00 0. -1.
        -14    1    4    4    0    0  0.24549924623E+02 -0.16211929400E+02 -0.52074495588E+02  0.59810354828E+02  0.00000000000E+00 0.  1.
        -13    1    3    3    0    0 -0.11702631355E+02 -0.48202977615E+02  0.16524189616E+02  0.52283147132E+02  0.00000000000E+00 0. -1.
         13    1    3    3    0    0 -0.18592053051E+03 -0.11752684064E+03 -0.26583031909E+02  0.22155283686E+03  0.00000000000E+00 0.  1.
          2    1    1    2  501    0  0.30550974875E+02  0.82635870940E+02 -0.41310062571E+01  0.88199288231E+02  0.00000000000E+00 0. -1.
<scales pt_clust_5="13000.00000" pt_clust_6="13000.00000" pt_clust_7="13000.00000" pt_clust_8="13000.00000" pt_clust_9="88.10254"></scales>
<clustering>
<clus scale="   80.618">  5  6 -1 -1</clus>
<clus scale="   88.103">  2  9  1 -1</clus>
<clus scale="   91.453">  7  8 -1 -1</clus>
<clus scale="  249.695">  2  5  1 -1</clus>
<clus scale="   88.103">  2  5  1 -1</clus>
</clustering>
</event>
<event>
 9    1  0.1487426E-004  0.2179774E+03  0.7546771E-02  0.1168153E+00
         21   -1    0    0  501  502  0.00000000000E+00  0.00000000000E+00  0.37655909341E+03  0.37655909341E+03  0.00000000000E+00 0.  1.
         -4   -1    0    0    0  501 -0.00000000000E+00 -0.00000000000E+00 -0.26570384566E+03  0.26570384566E+03  0.00000000000E+00 0.  1.
        -24    2    1    2    0    0  0.37487499848E+02 -0.44026802251E+02 -0.39065118053E+02  0.10786929906E+03  0.82255882888E+02 0.  0.
         23    2    1    2    0    0  0.15751246462E+03  0.11833822311E+03  0.22512139046E+03  0.31257757314E+03  0.90614497907E+02 0.  0.
         11    1    3    3    0    0 -0.15295074588E+02 -0.20252102783E+02  0.14304078483E+02  0.29132346885E+02  0.00000000000E+00 0. -1.
        -12    1    3    3    0    0  0.52782574435E+02 -0.23774699468E+02 -0.53369196536E+02  0.78736952175E+02  0.00000000000E+00 0.  1.
        -11    1    4    4    0    0  0.10817127954E+03  0.24901756432E+02  0.12183174116E+03  0.16481534014E+03  0.00000000000E+00 0.  1.
         11    1    4    4    0    0  0.49341185078E+02  0.93436466679E+02  0.10328964929E+03  0.14776223300E+03  0.00000000000E+00 0. -1.
         -3    1    1    2    0  502 -0.19499996447E+03 -0.74311420859E+02 -0.75201024650E+02  0.22181606687E+03  0.00000000000E+00 0.  1.
<scales pt_clust_5="13000.00000" pt_clust_6="13000.00000" pt_clust_7="13000.00000" pt_clust_8="13000.00000" pt_clust_9="198.25036"></scales>
<clustering>
<clus scale="   82.256">  5  6 -1 -1</clus>
<clus scale="   90.614">  7  8 -1 -1</clus>
<clus scale="  100.547">  2  5  1 -1</clus>
<clus scale="  198.250">  1  9  2 -1</clus>
<clus scale="  198.250">  1  5  2 -1</clus>
</clustering>
</event>
<event>
 9    1  0.1487426E-004  0.1366404E+03  0.7546771E-02  0.1239787E+00
          1   -1    0    0  502    0 -0.00000000000E+00  0.00000000000E+00  0.10179741409E+03  0.10179741409E+03  0.00000000000E+00 0. -1.
         21   -1    0    0  501  502  0.00000000000E+00 -0.00000000000E+00 -0.34769640010E+03  0.34769640010E+03  0.00000000000E+00 0.  1.
        -24    2    1    2    0    0 -0.18193971697E+02 -0.62373658248E+01 -0.81973976285E+02  0.11947571983E+03  0.84763137644E+02 0.  0.
         23    2    1    2    0    0  0.41605456494E+02 -0.93042362481E+02 -0.18064355367E+03  0.22665431063E+03  0.91390304846E+02 0.  0.
         11    1    3    3    0    0  0.17869931295E+02  0.92033928075E+01  0.77556423358E+01  0.21544996442E+02  0.00000000000E+00 0. -1.
        -12    1    3    3    0    0 -0.36063902992E+02 -0.15440758632E+02 -0.89729618621E+02  0.97930723392E+02  0.00000000000E+00 0.  1.
        -13    1    4    4    0    0 -0.23269398589E+02 -0.42064251430E+02 -0.35719329620E+02  0.59889370239E+02  0.00000000000E+00 0.  1.
         13    1    4    4    0    0  0.64874855083E+02 -0.50978111051E+02 -0.14492422405E+03  0.16676494039E+03  0.00000000000E+00 0. -1.
          2    1    1    2  501    0 -0.23411484797E+02  0.99279728306E+02  0.16718543950E+02  0.10336378372E+03  0.00000000000E+00 0. -1.
<scales pt_clust_5="13000.00000" pt_clust_6="13000.00000" pt_clust_7="13000.00000" pt_clust_8="13000.00000" pt_clust_9="101.57969"></scales>
<clustering>
<clus scale="   84.763">  5  6 -1 -1</clus>
<clus scale="   86.918">  1  5  2 -1</clus>
<clus scale="   91.390">  7  8 -1 -1</clus>
<clus scale="  101.580">  2  9  1 -1</clus>
<clus scale="  101.580">  2  5  1 -1</clus>
</clustering>
</event>
<event>
 9    1  0.2262538E-004  0.3178880E+03  0.7546771E-02  0.1087418E+00
          1   -1    0    0  502    0 -0.00000000000E+00  0.00000000000E+00  0.95942997140E+03  0.95942997140E+03  0.00000000000E+00 0. -1.
         21   -1    0    0  501  502  0.00000000000E+00 -0.00000000000E+00 -0.77224386409E+03  0.77224386409E+03  0.00000000000E+00 0. -1.
         23    2    1    2    0    0  0.21205624057E+03  0.57383406619E+02 -0.52529171413E+03  0.57667373939E+03  0.91435836796E+02 0.  0.
        -24    2    1    2    0    0 -0.30938229987E+03  0.23083774881E+03  0.75121681004E+03  0.84833332990E+03  0.79619527613E+02 0.  0.
         11    1    4    4    0    0 -0.29871098504E+03  0.23498719451E+03  0.70725839445E+03  0.80290825795E+03  0.00000000000E+00 0. -1.
        -12    1    4    4    0    0 -0.10671314832E+02 -0.41494457042E+01  0.43958415593E+02  0.45425071946E+02  0.00000000000E+00 0.  1.
        -11    1    3    3    0    0  0.17416560270E+03  0.39990534420E+02 -0.31382001735E+03  0.36113142109E+03  0.00000000000E+00 0. -1.
         11    1    3    3    0    0  0.37890637871E+02  0.17392872199E+02 -0.21147169678E+03  0.21554231830E+03  0.00000000000E+00 0.  1.
          2    1    1    2  501    0  0.97326059301E+02 -0.28822115542E+03 -0.38738988596E+02  0.30666676620E+03  0.00000000000E+00 0. -1.
<scales pt_clust_5="13000.00000" pt_clust_6="13000.00000" pt_clust_7="13000.00000" pt_clust_8="13000.00000" pt_clust_9="307.75557"></scales>
<clustering>
<clus scale="   79.620">  5  6 -1 -1</clus>
<clus scale="   91.436">  7  8 -1 -1</clus>
<clus scale="  237.952">  1  7  2 -1</clus>
<clus scale="  307.756">  2  9  1 -1</clus>
<clus scale="  307.756">  2  5  1 -1</clus>
</clustering>
</event>
<event>
 9    1  0.1487426E-004  0.9487843E+02  0.7546771E-02  0.1298601E+00
         21   -1    0    0  501  502  0.00000000000E+00  0.00000000000E+00  0.12316252227E+03  0.12316252227E+03  0.00000000000E+00 0. -1.
          3   -1    0    0  502    0 -0.00000000000E+00 -0.00000000000E+00 -0.10067144782E+03  0.10067144782E+03  0.00000000000E+00 0. -1.
         23    2    1    2    0    0 -0.84524055608E+00  0.22012335940E+02 -0.30153297730E+02  0.10046369985E+03  0.93265622061E+02 0.  0.
        -24    2    1    2    0    0  0.13333194277E+02 -0.48837862579E+01  0.58824801953E+02  0.10129010008E+03  0.81226237214E+02 0.  0.
         11    1    4    4    0    0  0.34206216714E+02 -0.28181539959E+02  0.13710436912E+02  0.46392246515E+02  0.00000000000E+00 0. -1.
        -12    1    4    4    0    0 -0.20873022438E+02  0.23297753701E+02  0.45114365041E+02  0.54897853567E+02  0.00000000000E+00 0.  1.
        -13    1    3    3    0    0 -0.35207363213E+02 -0.13629345062E+02 -0.33999175184E+02  0.50806115621E+02  0.00000000000E+00 0.  1.
         13    1    3    3    0    0  0.34362122657E+02  0.35641681001E+02  0.38458774543E+01  0.49657584230E+02  0.00000000000E+00 0. -1.
          4    1    1    2  501    0 -0.12487953720E+02 -0.17128549682E+02 -0.61804297711E+01  0.22080170164E+02  0.00000000000E+00 0. -1.
<scales pt_clust_5="13000.00000" pt_clust_6="13000.00000" pt_clust_7="13000.00000" pt_clust_8="13000.00000" pt_clust_9="21.19756"></scales>
<clustering>
<clus scale="   21.198">  1  9  2 -1</clus>
<clus scale="   81.226">  5  6 -1 -1</clus>
<clus scale="   83.073">  1  5  2 -1</clus>
<clus scale="   93.266">  7  8 -1 -1</clus>
<clus scale="   21.198">  1  5  2 -1</clus>
</clustering>
</event>
<event>
 9    1  0.1487426E-004  0.3077254E+03  0.7546771E-02  0.1081662E+00
         -2   -1    0    0    0  501 -0.00000000000E+00  0.00000000000E+00  0.86084008981E+03  0.86084008981E+03  0.00000000000E+00 0.  1.
         21   -1    0    0  501  502  0.00000000000E+00 -0.00000000000E+00 -0.14322819518E+03  0.14322819518E+03  0.00000000000E+00 0.  1.
        -24    2    1    2    0    0 -0.11637997850E+03 -0.27417675906E+03  0.55396925393E+03  0.63443388426E+03  0.83109714220E+02 0.  0.
         23    2    1    2    0    0  0.86218045743E+02  0.27418500435E+03  0.15256150696E+03  0.33750133706E+03  0.89560990906E+02 0.  0.
         13    1    3    3    0    0 -0.69516026984E+02 -0.16990684065E+03  0.25380460586E+03  0.31323727502E+03  0.00000000000E+00 0. -1.
        -14    1    3    3    0    0 -0.46863951513E+02 -0.10426991841E+03  0.30016464807E+03  0.32119660924E+03  0.00000000000E+00 0.  1.
        -11    1    4    4    0    0  0.45535003072E+01  0.78620434673E+02  0.83075211934E+02  0.11447007448E+03  0.00000000000E+00 0. -1.
         11    1    4    4    0    0  0.81664545436E+02  0.19556456968E+03  0.69486295028E+02  0.22303126259E+03  0.00000000000E+00 0.  1.
         -1    1    1    2    0  502  0.30161932754E+02 -0.82452915880E-02  0.11081133747E+02  0.32133063666E+02  0.00000000000E+00 0.  1.
<scales pt_clust_5="13000.00000" pt_clust_6="13000.00000" pt_clust_7="13000.00000" pt_clust_8="13000.00000" pt_clust_9="30.16193"></scales>
<clustering>
<clus scale="   30.162">  2  9  1 -1</clus>
<clus scale="   83.110">  5  6 -1 -1</clus>
<clus scale="   89.561">  7  8 -1 -1</clus>
<clus scale="  305.910">  1  5  2 -1</clus>
<clus scale="   30.162">  2  5  1 -1</clus>
</clustering>
</event>
<event>
 9    1  0.1487426E-004  0.4176902E+03  0.7546771E-02  0.1062161E+00
         21   -1    0    0  501  502  0.00000000000E+00  0.00000000000E+00  0.46937071346E+03  0.46937071346E+03  0.00000000000E+00 0.  1.
         -2   -1    0    0    0  501 -0.00000000000E+00 -0.00000000000E+00 -0.74268832866E+03  0.74268832866E+03  0.00000000000E+00 0.  1.
         23    2    1    2    0    0  0.12178287998E+03 -0.14271759084E+03  0.13013296091E+02  0.20894932043E+03  0.91055433899E+02 0.  0.
        -24    2    1    2    0    0 -0.32154534021E+03  0.44433930438E+03 -0.31912796953E+03  0.63985176152E+03  0.82090149007E+02 0.  0.
         13    1    4    4    0    0 -0.58433301240E+02  0.37402337286E+02 -0.30200388324E+02  0.75666696658E+02  0.00000000000E+00 0. -1.
        -14    1    4    4    0    0 -0.26311203897E+03  0.40693696709E+03 -0.28892758120E+03  0.56418506486E+03  0.00000000000E+00 0.  1.
        -13    1    3    3    0    0  0.17604256999E+02 -0.15921465101E+02 -0.31000949271E+02  0.39044356457E+02  0.00000000000E+00 0.  1.
         13    1    3    3    0    0  0.10417862298E+03 -0.12679612574E+03  0.44014245362E+02  0.16990496398E+03  0.00000000000E+00 0. -1.
         -1    1    1    2    0  502  0.19976246023E+03 -0.30162171353E+03  0.32797058233E+02  0.36325796016E+03  0.00000000000E+00 0.  1.
<scales pt_clust_5="13000.00000" pt_clust_6="13000.00000" pt_clust_7="13000.00000" pt_clust_8="13000.00000" pt_clust_9="409.54407"></scales>
<clustering>
<clus scale="   82.090">  5  6 -1 -1</clus>
<clus scale="   91.055">  7  8 -1 -1</clus>
<clus scale="  208.544">  2  7  1 -1</clus>
<clus scale="  409.544">  1  9  2 -1</clus>
<clus scale="  409.544">  1  5  2 -1</clus>
</clustering>
</event>
<event>
 9    1  0.1487426E-004  0.1194929E+03  0.7546771E-02  0.1246848E+00
         21   -1    0    0  501  502  0.00000000000E+00  0.00000000000E+00  0.49442889613E+02  0.49442889613E+02  0.00000000000E+00 0.  1.
          1   -1    0    0  502    0 -0.00000000000E+00 -0.00000000000E+00 -0.12618040040E+04  0.12618040040E+04  0.00000000000E+00 0. -1.
        -24    2    1    2    0    0 -0.41073672577E+02  0.65827761622E+02 -0.18607567426E+03  0.21753836332E+03  0.81721736333E+02 0.  0.
         23    2    1    2    0    0 -0.58966146324E+01  0.70232983520E+02 -0.88153614592E+02  0.14459839108E+03  0.90389119367E+02 0.  0.
         13    1    3    3    0    0  0.23033240628E+02  0.85541027360E+01 -0.61064498259E+02  0.65822304693E+02  0.00000000000E+00 0. -1.
        -14    1    3    3    0    0 -0.64106913205E+02  0.57273658886E+02 -0.12501117600E+03  0.15171605863E+03  0.00000000000E+00 0.  1.
        -11    1    4    4    0    0  0.19794974567E+02  0.22099581290E+02  0.10821698307E+02  0.31580716673E+02  0.00000000000E+00 0.  1.
         11    1    4    4    0    0 -0.25691589200E+02  0.48133402230E+02 -0.98975312898E+02  0.11301767441E+03  0.00000000000E+00 0. -1.
          2    1    1    2  501    0  0.46970287209E+02 -0.13606074514E+03 -0.93813182551E+03  0.94911013918E+03  0.00000000000E+00 0. -1.
<scales pt_clust_5="13000.00000" pt_clust_6="13000.00000" pt_clust_7="13000.00000" pt_clust_8="13000.00000" pt_clust_9="78.15604"></scales>
<clustering>
<clus scale="   81.722">  5  6 -1 -1</clus>
<clus scale="   90.389">  7  8 -1 -1</clus>
<clus scale="  112.689">  2  5  1 -1</clus>
<clus scale="   78.156">  1  9  2 -1</clus>
<clus scale="   78.156">  1  5  2 -1</clus>
</clustering>
</event>
<event>
 9    1  0.1487426E-004  0.8651035E+03  0.7546771E-02  0.9470287E-01
         21   -1    0    0  501  502  0.00000000000E+00  0.00000000000E+00  0.16004032270E+04  0.16004032270E+04  0.00000000000E+00 0. -1.
          1   -1    0    0  502    0 -0.00000000000E+00 -0.00000000000E+00 -0.59550936500E+03  0.59550936500E+03  0.00000000000E+00 0. -1.
        -24    2    1    2    0    0 -0.79842177891E+02 -0.23690122624E+03 -0.26981393595E+02  0.26439900361E+03  0.81742725335E+02 0.  0.
         23    2    1    2    0    0 -0.42425047405E+03 -0.41561245600E+03 -0.11618444649E+02  0.60156523986E+03  0.94992479928E+02 0.  0.
         11    1    3    3    0    0 -0.63240288542E+02 -0.17746426209E+03 -0.55522125759E+02  0.19640673324E+03  0.00000000000E+00 0. -1.
        -12    1    3    3    0    0 -0.16601889349E+02 -0.59436964157E+02  0.28540732164E+02  0.67992270374E+02  0.00000000000E+00 0.  1.
        -11    1    4    4    0    0 -0.27833965728E+02 -0.56313761506E+02  0.19134607942E+02  0.65666601893E+02  0.00000000000E+00 0.  1.
         11    1    4    4    0    0 -0.39641650832E+03 -0.35929869449E+03 -0.30753052591E+02  0.53589863797E+03  0.00000000000E+00 0. -1.
          2    1    1    2  501    0  0.50409265194E+03  0.65251368224E+03  0.10434937002E+04  0.13299483485E+04  0.00000000000E+00 0. -1.
<scales pt_clust_5="13000.00000" pt_clust_6="13000.00000" pt_clust_7="13000.00000" pt_clust_8="13000.00000" pt_clust_9="824.55049"></scales>
<clustering>
<clus scale="   81.743">  5  6 -1 -1</clus>
<clus scale="   94.992">  7  8 -1 -1</clus>
<clus scale="  152.636">  5  7 -1 -1</clus>
<clus scale="  824.550">  1  9  2 -1</clus>
<clus scale="  824.550">  1  5  2 -1</clus>
</clustering>
</event>
<event>
 9    1  0.1487426E-004  0.1770573E+03  0.7546771E-02  0.1171601E+00
         -2   -1    0    0    0  501 -0.00000000000E+00  0.00000000000E+00  0.11283652642E+04  0.11283652642E+04  0.00000000000E+00 0.  1.
         21   -1    0    0  501  502  0.00000000000E+00 -0.00000000000E+00 -0.81006277649E+02  0.81006277649E+02  0.00000000000E+00 0. -1.
        -24    2    1    2    0    0 -0.50834215457E+02  0.14454141110E+03  0.11219792766E+03  0.20651659897E+03  0.81144277036E+02 0.  0.
         23    2    1    2    0    0  0.14977175856E+03  0.86968582963E+01  0.52892385000E+03  0.55754687588E+03  0.92686917657E+02 0.  0.
         13    1    3    3    0    0 -0.51529045521E+02  0.14810453818E+03  0.83630819986E+02  0.17771975358E+03  0.00000000000E+00 0. -1.
        -14    1    3    3    0    0  0.69483006458E+00 -0.35631270805E+01  0.28567107677E+02  0.28796845390E+02  0.00000000000E+00 0.  1.
        -13    1    4    4    0    0  0.56714401387E+02 -0.28160172592E+02  0.11086884416E+03  0.12767701144E+03  0.00000000000E+00 0. -1.
         13    1    4    4    0    0  0.93057357173E+02  0.36857030888E+02  0.41805500584E+03  0.42986986444E+03  0.00000000000E+00 0.  1.
         -1    1    1    2    0  502 -0.98937543103E+02 -0.15323826940E+03  0.40623720891E+03  0.44530806701E+03  0.00000000000E+00 0.  1.
<scales pt_clust_5="13000.00000" pt_clust_6="13000.00000" pt_clust_7="13000.00000" pt_clust_8="13000.00000" pt_clust_9="150.85899"></scales>
<clustering>
<clus scale="   81.144">  5  6 -1 -1</clus>
<clus scale="   92.687">  7  8 -1 -1</clus>
<clus scale="  173.380">  1  5  2 -1</clus>
<clus scale="  150.859">  2  9  1 -1</clus>
<clus scale="  150.859">  2  5  1 -1</clus>
</clustering>
</event>
<event>
 9    1  0.1487426E-004  0.9207959E+02  0.7546771E-02  0.1303459E+00
         -2   -1    0    0    0  501 -0.00000000000E+00  0.00000000000E+00  0.76486613307E+03  0.76486613307E+03  0.00000000000E+00 0.  1.
         21   -1    0    0  501  502  0.00000000000E+00 -0.00000000000E+00 -0.16608713880E+02  0.16608713880E+02  0.00000000000E+00 0. -1.
        -24    2    1    2    0    0 -0.69127950029E+01  0.17072191742E+02  0.49965207468E+03  0.50659283306E+03  0.81515988058E+02 0.  0.
         23    2    1    2    0    0 -0.16588747343E+02 -0.13217553570E+02  0.18864670621E+03  0.21036675186E+03  0.90646016262E+02 0.  0.
         11    1    3    3    0    0 -0.33189581000E+02 -0.68842939767E+01  0.10485325316E+03  0.11019594588E+03  0.00000000000E+00 0. -1.
        -12    1    3    3    0    0  0.26276785997E+02  0.23956485718E+02  0.39479882152E+03  0.39639688718E+03  0.00000000000E+00 0.  1.
        -13    1    4    4    0    0  0.23718603271E+02  0.17771979716E+02  0.12722604976E+03  0.13063262664E+03  0.00000000000E+00 0.  1.
         13    1    4    4    0    0 -0.40307350614E+02 -0.30989533286E+02  0.61420656449E+02  0.79734125225E+02  0.00000000000E+00 0. -1.
         -1    1    1    2    0  502  0.23501542346E+02 -0.38546381721E+01  0.59958638305E+02  0.64515262035E+02  0.00000000000E+00 0.  1.
<scales pt_clust_5="13000.00000" pt_clust_6="13000.00000" pt_clust_7="13000.00000" pt_clust_8="13000.00000" pt_clust_9="23.81556"></scales>
<clustering>
<clus scale="   23.816">  2  9  1 -1</clus>
<clus scale="   81.516">  5  6 -1 -1</clus>
<clus scale="   83.107">  1  5  2 -1</clus>
<clus scale="   90.646">  7  8 -1 -1</clus>
<clus scale="   23.816">  2  5  1 -1</clus>
</clustering>
</event>
<event>
 9    1  0.1487426E-004  0.1491444E+03  0.7546771E-02  0.1203500E+00
          1   -1    0    0  502    0 -0.00000000000E+00  0.00000000000E+00  0.54712682560E+03  0.54712682560E+03  0.00000000000E+00 0. -1.
         21   -1    0    0  501  502  0.00000000000E+00 -0.00000000000E+00 -0.57432119479E+02  0.57432119479E+02  0.00000000000E+00 0. -1.
        -24    2    1    2    0    0 -0.71391071688E+02  0.74432329456E+02  0.19921956938E+03  0.23835001398E+03  0.80532201963E+02 0.  0.
         23    2    1    2    0    0  0.66655662737E+02 -0.12708782049E+03  0.21579035012E+03  0.27470569516E+03  0.91123280553E+02 0.  0.
         13    1    3    3    0    0 -0.76931002232E+02  0.46821823676E+02  0.18718969351E+03  0.20772733001E+03  0.00000000000E+00 0. -1.
        -14    1    3    3    0    0  0.55399305439E+01  0.27610505779E+02  0.12029875872E+02  0.30622683967E+02  0.00000000000E+00 0.  1.
        -11    1    4    4    0    0 -0.17640672197E+02 -0.20375624147E+02  0.71594448037E+02  0.76499178850E+02  0.00000000000E+00 0.  1.
         11    1    4    4    0    0  0.84296334934E+02 -0.10671219635E+03  0.14419590208E+03  0.19820651631E+03  0.00000000000E+00 0. -1.
          2    1    1    2  501    0  0.47354089515E+01  0.52655491038E+02  0.74684786621E+02  0.91503235938E+02  0.00000000000E+00 0. -1.
<scales pt_clust_5="13000.00000" pt_clust_6="13000.00000" pt_clust_7="13000.00000" pt_clust_8="13000.00000" pt_clust_9="52.86802"></scales>
<clustering>
<clus scale="   52.868">  2  9  1 -1</clus>
<clus scale="   80.532">  5  6 -1 -1</clus>
<clus scale="   91.123">  7  8 -1 -1</clus>
<clus scale="  142.920">  1  5  2 -1</clus>
<clus scale="   52.868">  2  5  1 -1</clus>
</clustering>
</event>
<event>
 9    1  0.1487426E-004  0.2061713E+03  0.7546771E-02  0.1145585E+00
          1   -1    0    0  502    0 -0.00000000000E+00  0.00000000000E+00  0.10639900632E+03  0.10639900632E+03  0.00000000000E+00 0. -1.
         21   -1    0    0  501  502  0.00000000000E+00 -0.00000000000E+00 -0.10451187197E+04  0.10451187197E+04  0.00000000000E+00 0. -1.
        -24    2    1    2    0    0  0.19481810649E+03 -0.39012884609E+02 -0.16206776085E+03  0.26896423796E+03  0.81238552513E+02 0.  0.
         23    2    1    2    0    0 -0.16596618249E+03 -0.11430068805E+03 -0.25375932999E+03  0.33688492585E+03  0.92131616102E+02 0.  0.
         13    1    3    3    0    0  0.10446552690E+03  0.15264343610E+02 -0.10587900372E+03  0.14952060033E+03  0.00000000000E+00 0. -1.
        -14    1    3    3    0    0  0.90352579591E+02 -0.54277228219E+02 -0.56188757130E+02  0.11944363763E+03  0.00000000000E+00 0.  1.
        -11    1    4    4    0    0 -0.11267563644E+03 -0.12382337874E+03 -0.18937551426E+03  0.25276691550E+03  0.00000000000E+00 0. -1.
         11    1    4    4    0    0 -0.53290546055E+02  0.95226906926E+01 -0.64383815735E+02  0.84118010351E+02  0.00000000000E+00 0.  1.
          2    1    1    2  501    0 -0.28851923998E+02  0.15331357265E+03 -0.52289262256E+03  0.54566856223E+03  0.00000000000E+00 0. -1.
<scales pt_clust_5="13000.00000" pt_clust_6="13000.00000" pt_clust_7="13000.00000" pt_clust_8="13000.00000" pt_clust_9="156.00476"></scales>
<clustering>
<clus scale="   81.239">  5  6 -1 -1</clus>
<clus scale="   92.132">  7  8 -1 -1</clus>
<clus scale="  156.005">  2  9  1 -1</clus>
<clus scale="  201.539">  1  5  2 -1</clus>
<clus scale="  156.005">  2  5  1 -1</clus>
</clustering>
</event>
<event>
 9    1  0.1487426E-004  0.9262383E+02  0.7546771E-02  0.1303396E+00
         -2   -1    0    0    0  501 -0.00000000000E+00  0.00000000000E+00  0.22471114234E+03  0.22471114234E+03  0.00000000000E+00 0.  1.
         21   -1    0    0  501  502  0.00000000000E+00 -0.00000000000E+00 -0.25055242711E+03  0.25055242711E+03  0.00000000000E+00 0.  1.
         23    2    1    2    0    0 -0.22246855707E+02 -0.31754478991E+01  0.19361206641E+03  0.21493998114E+03  0.90601088158E+02 0.  0.
        -24    2    1    2    0    0 -0.22040417897E+02  0.24184292445E+02 -0.10404243202E+03  0.13493453610E+03  0.79447097805E+02 0.  0.
         11    1    4    4    0    0 -0.15926189237E+01 -0.23323988065E+02 -0.67964494552E+02  0.71872925181E+02  0.00000000000E+00 0. -1.
        -12    1    4    4    0    0 -0.20447798973E+02  0.47508280510E+02 -0.36077937473E+02  0.63061610922E+02  0.00000000000E+00 0.  1.
        -13    1    3    3    0    0  0.27692680167E+02 -0.14557675729E+02  0.29426138789E+02  0.42950065209E+02  0.00000000000E+00 0. -1.
         13    1    3    3    0    0 -0.49939535874E+02  0.11382227830E+02  0.16418592762E+03  0.17198991593E+03  0.00000000000E+00 0.  1.
         -1    1    1    2    0  502  0.44287273604E+02 -0.21008844546E+02 -0.11541091915E+03  0.12538905220E+03  0.00000000000E+00 0.  1.
<scales pt_clust_5="13000.00000" pt_clust_6="13000.00000" pt_clust_7="13000.00000" pt_clust_8="13000.00000" pt_clust_9="49.01769"></scales>
<clustering>
<clus scale="   49.018">  2  9  1 -1</clus>
<clus scale="   79.447">  5  6 -1 -1</clus>
<clus scale="   81.746">  2  5  1 -1</clus>
<clus scale="   90.601">  7  8 -1 -1</clus>
<clus scale="   49.018">  2  5  1 -1</clus>
</clustering>
</event>
<event>
 9    1  0.1487426E-004  0.1617069E+03  0.7546771E-02  0.1217553E+00
          1   -1    0    0  502    0 -0.00000000000E+00  0.00000000000E+00  0.10033444972E+04  0.10033444972E+04  0.00000000000E+00 0. -1.
         21   -1    0    0  501  502  0.00000000000E+00 -0.00000000000E+00 -0.42416164599E+02  0.42416164599E+02  0.00000000000E+00 0.  1.
        -24    2    1    2    0    0  0.31405259593E+01  0.22009204649E+02  0.39346725067E+03  0.40214344179E+03  0.80053747175E+02 0.  0.
         23    2    1    2    0    0 -0.76474110096E+02  0.10094690146E+03  0.24013709318E+03  0.28635399463E+03  0.91072609991E+02 0.  0.
         11    1    3    3    0    0 -0.33950601063E+02  0.28310725150E+02  0.17737584413E+03  0.18280134177E+03  0.00000000000E+00 0. -1.
        -12    1    3    3    0    0  0.37091127022E+02 -0.63015205013E+01  0.21609140654E+03  0.21934210003E+03  0.00000000000E+00 0.  1.
        -13    1    4    4    0    0 -0.71321622743E+02  0.19979393138E+02  0.12904642192E+03  0.14879156237E+03  0.00000000000E+00 0. -1.
         13    1    4    4    0    0 -0.51524873532E+01  0.80967508319E+02  0.11109067126E+03  0.13756243226E+03  0.00000000000E+00 0.  1.
          2    1    1    2  501    0  0.73333584137E+02 -0.12295610611E+03  0.32732398873E+03  0.35726322535E+03  0.00000000000E+00 0. -1.
<scales pt_clust_5="13000.00000" pt_clust_6="13000.00000" pt_clust_7="13000.00000" pt_clust_8="13000.00000" pt_clust_9="133.62226"></scales>
<clustering>
<clus scale="   80.054">  5  6 -1 -1</clus>
<clus scale="   83.084">  1  5  2 -1</clus>
<clus scale="   91.073">  7  8 -1 -1</clus>
<clus scale="  133.622">  2  9  1 -1</clus>
<clus scale="  133.622">  2  5  1 -1</clus>
</clustering>
</event>
<event>
 9    1  0.1487426E-004  0.1090240E+03  0.7546771E-02  0.1265630E+00
         21   -1    0    0  501  502  0.00000000000E+00  0.00000000000E+00  0.15322166607E+03  0.15322166607E+03  0.00000000000E+00 0.  1.
         -2   -1    0    0    0  501 -0.00000000000E+00 -0.00000000000E+00 -0.49331411577E+03  0.49331411577E+03  0.00000000000E+00 0.  1.
        -24    2    1    2    0    0  0.14424291389E+02  0.65154011772E+02 -0.16579897298E+03  0.19650486501E+03  0.81680824547E+02 0.  0.
         23    2    1    2    0    0  0.13841525291E+01 -0.17419033295E+02  0.12028430869E+03  0.15119215308E+03  0.89918928130E+02 0.  0.
         13    1    3    3    0    0  0.35802461244E+02  0.25667769901E+02 -0.29545195093E+02  0.53043088107E+02  0.00000000000E+00 0. -1.
        -14    1    3    3    0    0 -0.21378169855E+02  0.39486241870E+02 -0.13625377788E+03  0.14346177690E+03  0.00000000000E+00 0.  1.
        -11    1    4    4    0    0 -0.20752336404E+02  0.11199933918E+02 -0.20011228731E+01  0.23666484292E+02  0.00000000000E+00 0. -1.
         11    1    4    4    0    0  0.22136488933E+02 -0.28618967213E+02  0.12228543156E+03  0.12752566879E+03  0.00000000000E+00 0.  1.
         -1    1    1    2    0  502 -0.15808443918E+02 -0.47734978477E+02 -0.29457778541E+03  0.29883876376E+03  0.00000000000E+00 0.  1.
<scales pt_clust_5="13000.00000" pt_clust_6="13000.00000" pt_clust_7="13000.00000" pt_clust_8="13000.00000" pt_clust_9="50.28457"></scales>
<clustering>
<clus scale="   50.285">  1  9  2 -1</clus>
<clus scale="   81.681">  5  6 -1 -1</clus>
<clus scale="   89.919">  7  8 -1 -1</clus>
<clus scale="  102.336">  2  5  1 -1</clus>
<clus scale="   50.285">  1  5  2 -1</clus>
</clustering>
</event>
<event>
 9    1  0.1487426E-004  0.1429282E+03  0.7546771E-02  0.1214229E+00
          1   -1    0    0  502    0 -0.00000000000E+00  0.00000000000E+00  0.69549550489E+03  0.69549550489E+03  0.00000000000E+00 0. -1.
         21   -1    0    0  501  502  0.00000000000E+00 -0.00000000000E+00 -0.49327549126E+02  0.49327549126E+02  0.00000000000E+00 0.  1.
         23    2    1    2    0    0 -0.65258943815E+02  0.88437058958E+02  0.31090039156E+03  0.34061189430E+03  0.85308650907E+02 0.  0.
        -24    2    1    2    0    0  0.95234344859E+02 -0.16987999078E+02  0.25731730299E+03  0.29430330718E+03  0.10509076861E+03 0.  0.
         11    1    4    4    0    0  0.49850693905E+02  0.38956832130E+02  0.16823658204E+03  0.17973946141E+03  0.00000000000E+00 0. -1.
        -12    1    4    4    0    0  0.45383650954E+02 -0.55944831209E+02  0.89080720955E+02  0.11456384577E+03  0.00000000000E+00 0.  1.
        -11    1    3    3    0    0 -0.30517990010E+02  0.91959690172E+02  0.26985633898E+03  0.28672351842E+03  0.00000000000E+00 0.  1.
         11    1    3    3    0    0 -0.34740953805E+02 -0.35226312148E+01  0.41044052585E+02  0.53888375876E+02  0.00000000000E+00 0. -1.
          2    1    1    2  501    0 -0.29975401044E+02 -0.71449059879E+02  0.77950261209E+02  0.10990785253E+03  0.00000000000E+00 0. -1.
<scales pt_clust_5="13000.00000" pt_clust_6="13000.00000" pt_clust_7="13000.00000" pt_clust_8="13000.00000" pt_clust_9="77.48221"></scales>
<clustering>
<clus scale="   77.482">  2  9  1 -1</clus>
<clus scale="   85.309">  7  8 -1 -1</clus>
<clus scale="  105.091">  5  6 -1 -1</clus>
<clus scale="  129.081">  1  7  2 -1</clus>
<clus scale="   77.482">  2  5  1 -1</clus>
</clustering>
</event>
<event>
 9    1  0.1487426E-004  0.1003383E+03  0.7546771E-02  0.1305233E+00
         21   -1    0    0  501  502  0.00000000000E+00  0.00000000000E+00  0.26455618173E+03  0.26455618173E+03  0.00000000000E+00 0. -1.
          3   -1    0    0  502    0 -0.00000000000E+00 -0.00000000000E+00 -0.66232685356E+02  0.66232685356E+02  0.00000000000E+00 0. -1.
         23    2    1    2    0    0  0.26474894233E+02 -0.20929633102E+02  0.72660032005E+01  0.10118656460E+03  0.95115490254E+02 0.  0.
        -24    2    1    2    0    0 -0.42998210740E+02 -0.27108543216E+02  0.13608580225E+03  0.15475196398E+03  0.53339530722E+02 0.  0.
         13    1    4    4    0    0 -0.41026960760E+02 -0.40808835766E+02  0.93351949607E+02  0.10983241362E+03  0.00000000000E+00 0. -1.
        -14    1    4    4    0    0 -0.19712499802E+01  0.13700292550E+02  0.42733852644E+02  0.44919550356E+02  0.00000000000E+00 0.  1.
        -13    1    3    3    0    0  0.51306266892E+02 -0.38882722251E+02 -0.11299151259E+02  0.65359543536E+02  0.00000000000E+00 0. -1.
         13    1    3    3    0    0 -0.24831372659E+02  0.17953089149E+02  0.18565154460E+02  0.35827021063E+02  0.00000000000E+00 0.  1.
          4    1    1    2  501    0  0.16523316507E+02  0.48038176318E+02  0.54971690920E+02  0.74850338509E+02  0.00000000000E+00 0. -1.
<scales pt_clust_5="13000.00000" pt_clust_6="13000.00000" pt_clust_7="13000.00000" pt_clust_8="13000.00000" pt_clust_9="50.80046"></scales>
<clustering>
<clus scale="   50.800">  1  9  2 -1</clus>
<clus scale="   53.340">  5  6 -1 -1</clus>
<clus scale="   62.177">  1  5  2 -1</clus>
<clus scale="   95.115">  7  8 -1 -1</clus>
<clus scale="   50.800">  1  5  2 -1</clus>
</clustering>
</event>
<event>
 9    1  0.1487426E-004  0.1585310E+03  0.7546771E-02  0.1192402E+00
         21   -1    0    0  501  502  0.00000000000E+00  0.00000000000E+00  0.95501972730E+02  0.95501972730E+02  0.00000000000E+00 0.  1.
          1   -1    0    0  502    0 -0.00000000000E+00 -0.00000000000E+00 -0.54229290234E+03  0.54229290234E+03  0.00000000000E+00 0. -1.
         23    2    1    2    0    0 -0.74978181531E+02 -0.12684792296E+03 -0.30372380410E+03  0.35003377814E+03  0.92538496820E+02 0.  0.
        -24    2    1    2    0    0  0.16145056832E+02  0.79602210809E+02  0.12646913449E+02  0.11472827979E+03  0.80034111093E+02 0.  0.
         11    1    4    4    0    0  0.27102113781E+02  0.32879520823E+01 -0.16962313447E+02  0.32141177292E+02  0.00000000000E+00 0. -1.
        -12    1    4    4    0    0 -0.10957056949E+02  0.76314258727E+02  0.29609226895E+02  0.82587102500E+02  0.00000000000E+00 0.  1.
        -11    1    3    3    0    0 -0.11576838435E+01 -0.92512440684E+02 -0.15681582253E+03  0.18207441915E+03  0.00000000000E+00 0. -1.
         11    1    3    3    0    0 -0.73820497687E+02 -0.34335482281E+02 -0.14690798157E+03  0.16795935899E+03  0.00000000000E+00 0.  1.
          2    1    1    2  501    0  0.58833124699E+02  0.47245712156E+02 -0.15571403896E+03  0.17303281714E+03  0.00000000000E+00 0. -1.
<scales pt_clust_5="13000.00000" pt_clust_6="13000.00000" pt_clust_7="13000.00000" pt_clust_8="13000.00000" pt_clust_9="75.45528"></scales>
<clustering>
<clus scale="   75.455">  1  9  2 -1</clus>
<clus scale="   80.034">  5  6 -1 -1</clus>
<clus scale="   92.538">  7  8 -1 -1</clus>
<clus scale="  151.572">  1  5  2 -1</clus>
<clus scale="   75.455">  1  5  2 -1</clus>
</clustering>
</event>
<event>
 9    1  0.1487426E-004  0.1409404E+03  0.7546771E-02  0.1226133E+00
         -4   -1    0    0    0  501 -0.00000000000E+00  0.00000000000E+00  0.13108739696E+03  0.13108739696E+03  0.00000000000E+00 0.  1.
         21   -1    0    0  501  502  0.00000000000E+00 -0.00000000000E+00 -0.28167571459E+03  0.28167571459E+03  0.00000000000E+00 0.  1.
         23    2    1    2    0    0  0.53954123337E+02  0.87606021303E+00 -0.10607457525E+02  0.10539179252E+03  0.89906044670E+02 0.  0.
        -24    2    1    2    0    0 -0.11134327962E+03 -0.94636244683E+02 -0.11127454732E+03  0.19375556377E+03  0.61691562521E+02 0.  0.
         13    1    4    4    0    0 -0.21190422980E+02 -0.35028556739E+02 -0.63585081518E+02  0.75624707636E+02  0.00000000000E+00 0. -1.
        -14    1    4    4    0    0 -0.90152856642E+02 -0.59607687945E+02 -0.47689465800E+02  0.11813085613E+03  0.00000000000E+00 0.  1.
        -13    1    3    3    0    0  0.36937352227E+02  0.13859465334E+02 -0.48106009688E+02  0.62214475302E+02  0.00000000000E+00 0.  1.
         13    1    3    3    0    0  0.17016771110E+02 -0.12983405121E+02  0.37498552163E+02  0.43177317215E+02  0.00000000000E+00 0. -1.
         -3    1    1    2    0  502  0.57389156284E+02  0.93760184470E+02 -0.28706312785E+02  0.11361575527E+03  0.00000000000E+00 0.  1.
<scales pt_clust_5="13000.00000" pt_clust_6="13000.00000" pt_clust_7="13000.00000" pt_clust_8="13000.00000" pt_clust_9="126.72161"></scales>
<clustering>
<clus scale="   61.692">  5  6 -1 -1</clus>
<clus scale="   89.906">  7  8 -1 -1</clus>
<clus scale="  104.857">  1  7  2 -1</clus>
<clus scale="  126.722">  2  9  1 -1</clus>
<clus scale="  126.722">  2  5  1 -1</clus>
</clustering>
</event>
<event>
 9    1  0.1487426E-004  0.1133986E+03  0.7546771E-02  0.1270097E+00
         21   -1    0    0  501  502  0.00000000000E+00  0.00000000000E+00  0.99881956498E+02  0.99881956498E+02  0.00000000000E+00 0.  1.
          3   -1    0    0  502    0 -0.00000000000E+00 -0.00000000000E+00 -0.18372841101E+03  0.18372841101E+03  0.00000000000E+00 0. -1.
        -24    2    1    2    0    0 -0.19005249469E+02 -0.14411763021E+02 -0.82079095543E+02  0.11842365800E+03  0.81965153740E+02 0.  0.
         23    2    1    2    0    0 -0.24590748997E+02  0.28647858953E+01  0.17077055491E+02  0.11630874189E+03  0.11235295136E+03 0.  0.
         13    1    3    3    0    0 -0.11218098926E+02  0.33196003190E+02 -0.47696665815E+02  0.59184392378E+02  0.00000000000E+00 0. -1.
        -14    1    3    3    0    0 -0.77871505436E+01 -0.47607766211E+02 -0.34382429729E+02  0.59239265620E+02  0.00000000000E+00 0.  1.
        -13    1    4    4    0    0 -0.57379641929E+02  0.36145866990E+02  0.15489264068E+02  0.69561945844E+02  0.00000000000E+00 0.  1.
         13    1    4    4    0    0  0.32788892932E+02 -0.33281081094E+02  0.15877914231E+01  0.46746796041E+02  0.00000000000E+00 0. -1.
          4    1    1    2  501    0  0.43595998466E+02  0.11546977125E+02 -0.18844414463E+02  0.48877967628E+02  0.00000000000E+00 0. -1.
<scales pt_clust_5="13000.00000" pt_clust_6="13000.00000" pt_clust_7="13000.00000" pt_clust_8="13000.00000" pt_clust_9="45.09929"></scales>
<clustering>
<clus scale="   45.099">  1  9  2 -1</clus>
<clus scale="   81.965">  5  6 -1 -1</clus>
<clus scale="   83.393">  2  5  1 -1</clus>
<clus scale="  112.353">  7  8 -1 -1</clus>
<clus scale="   45.099">  1  5  2 -1</clus>
</clustering>
</event>
<event>
 9    1  0.1487426E-004  0.2141032E+03  0.7546771E-02  0.1138357E+00
          3   -1    0    0  502    0 -0.00000000000E+00  0.00000000000E+00  0.16844291880E+02  0.16844291880E+02  0.00000000000E+00 0. -1.
         21   -1    0    0  501  502  0.00000000000E+00 -0.00000000000E+00 -0.15955838040E+04  0.15955838040E+04  0.00000000000E+00 0. -1.
        -24    2    1    2    0    0 -0.84908719809E+02 -0.24301613279E+01 -0.48886800263E+03  0.50263529800E+03  0.80217968151E+02 0.  0.
         23    2    1    2    0    0 -0.27917607008E+02  0.18318647403E+01 -0.48529003913E+03  0.49477337357E+03  0.92257902655E+02 0.  0.
         11    1    3    3    0    0 -0.39795330300E+02 -0.18501232332E+02 -0.82420585883E+02  0.93376211578E+02  0.00000000000E+00 0. -1.
        -12    1    3    3    0    0 -0.45113389509E+02  0.16071071004E+02 -0.40644741675E+03  0.40925908642E+03  0.00000000000E+00 0.  1.
        -13    1    4    4    0    0  0.13752079860E+02 -0.36981124938E+02 -0.20128861098E+03  0.20511905863E+03  0.00000000000E+00 0.  1.
         13    1    4    4    0    0 -0.41669686868E+02  0.38812989678E+02 -0.28400142815E+03  0.28965431493E+03  0.00000000000E+00 0. -1.
          4    1    1    2  501    0  0.11282632682E+03  0.59829658759E+00 -0.60458147036E+03  0.61501942432E+03  0.00000000000E+00 0. -1.
<scales pt_clust_5="13000.00000" pt_clust_6="13000.00000" pt_clust_7="13000.00000" pt_clust_8="13000.00000" pt_clust_9="112.82791"></scales>
<clustering>
<clus scale="   80.218">  5  6 -1 -1</clus>
<clus scale="   92.258">  7  8 -1 -1</clus>
<clus scale="   92.782">  5  7 -1 -1</clus>
<clus scale="  112.828">  2  9  1 -1</clus>
<clus scale="  112.828">  2  5  1 -1</clus>
</clustering>
</event>
<event>
 9    1  0.1487426E-004  0.1440087E+03  0.7546771E-02  0.1229162E+00
          1   -1    0    0  502    0 -0.00000000000E+00  0.00000000000E+00  0.61483330004E+03  0.61483330004E+03  0.00000000000E+00 0. -1.
         21   -1    0    0  501  502  0.00000000000E+00 -0.00000000000E+00 -0.43194401481E+03  0.43194401481E+03  0.00000000000E+00 0. -1.
        -24    2    1    2    0    0 -0.25114309979E+02  0.35176609521E+02  0.43335543732E+03  0.44307862496E+03  0.81569666072E+02 0.  0.
         23    2    1    2    0    0  0.58109986889E+01  0.76897501420E+02  0.14768336262E+03  0.18962591823E+03  0.90557273809E+02 0.  0.
         11    1    3    3    0    0 -0.54519353772E+02  0.14968464160E+02  0.25569708913E+03  0.26187290094E+03  0.00000000000E+00 0. -1.
        -12    1    3    3    0    0  0.29405043793E+02  0.20208145361E+02  0.17765834819E+03  0.18120572402E+03  0.00000000000E+00 0.  1.
        -13    1    4    4    0    0  0.40527704679E+02  0.33801496708E+02  0.11191304481E+03  0.12373182947E+03  0.00000000000E+00 0. -1.
         13    1    4    4    0    0 -0.34716705991E+02  0.43096004712E+02  0.35770317811E+02  0.65894088758E+02  0.00000000000E+00 0.  1.
          2    1    1    2  501    0  0.19303311290E+02 -0.11207411094E+03 -0.39814951471E+03  0.41407277166E+03  0.00000000000E+00 0. -1.
<scales pt_clust_5="13000.00000" pt_clust_6="13000.00000" pt_clust_7="13000.00000" pt_clust_8="13000.00000" pt_clust_9="111.97267"></scales>
<clustering>
<clus scale="   81.570">  5  6 -1 -1</clus>
<clus scale="   90.557">  7  8 -1 -1</clus>
<clus scale="   92.313">  1  5  2 -1</clus>
<clus scale="  111.973">  2  9  1 -1</clus>
<clus scale="  111.973">  2  5  1 -1</clus>
</clustering>
</event>
<event>
 9    1  0.1487426E-004  0.1065843E+03  0.7546771E-02  0.1271822E+00
          1   -1    0    0  502    0 -0.00000000000E+00  0.00000000000E+00  0.23867958231E+03  0.23867958231E+03  0.00000000000E+00 0. -1.
         21   -1    0    0  501  502  0.00000000000E+00 -0.00000000000E+00 -0.13092109072E+03  0.13092109072E+03  0.00000000000E+00 0.  1.
         23    2    1    2    0    0  0.43725283840E+02  0.35340413190E+02  0.18825656144E+03  0.21664677195E+03  0.91293184955E+02 0.  0.
        -24    2    1    2    0    0 -0.19737863331E+02 -0.51119914792E+02 -0.44047868163E+02  0.10655340305E+03  0.80066123143E+02 0.  0.
         11    1    4    4    0    0  0.15997588599E+02  0.14121988346E+02 -0.28760554714E+01  0.21531955111E+02  0.00000000000E+00 0. -1.
        -12    1    4    4    0    0 -0.35735451930E+02 -0.65241903137E+02 -0.41171812692E+02  0.85021447941E+02  0.00000000000E+00 0.  1.
        -13    1    3    3    0    0  0.19037741688E+02  0.45998871129E+02  0.18247253930E+03  0.18914163833E+03  0.00000000000E+00 0. -1.
         13    1    3    3    0    0  0.24687542151E+02 -0.10658457939E+02  0.57840221442E+01  0.27505133617E+02  0.00000000000E+00 0.  1.
          2    1    1    2  501    0 -0.23987420509E+02  0.15779501601E+02 -0.36450201692E+02  0.46400498024E+02  0.00000000000E+00 0. -1.
<scales pt_clust_5="13000.00000" pt_clust_6="13000.00000" pt_clust_7="13000.00000" pt_clust_8="13000.00000" pt_clust_9="28.71218"></scales>
<clustering>
<clus scale="   28.712">  2  9  1 -1</clus>
<clus scale="   80.066">  5  6 -1 -1</clus>
<clus scale="   91.293">  7  8 -1 -1</clus>
<clus scale="   97.141">  2  5  1 -1</clus>
<clus scale="   28.712">  2  5  1 -1</clus>
</clustering>
</event>
<event>
 9    1  0.1487426E-004  0.2807728E+03  0.7546771E-02  0.1135899E+00
         21   -1    0    0  501  502  0.00000000000E+00  0.00000000000E+00  0.32730559886E+03  0.32730559886E+03  0.00000000000E+00 0. -1.
          3   -1    0    0  502    0 -0.00000000000E+00 -0.00000000000E+00 -0.46894360752E+03  0.46894360752E+03  0.00000000000E+00 0. -1.
        -24    2    1    2    0    0 -0.43923716992E+02 -0.45915629820E+02 -0.69236988768E+01  0.10100316595E+03  0.78205907377E+02 0.  0.
         23    2    1    2    0    0  0.85567212562E+02 -0.22611895825E+03 -0.28377261256E+03  0.38226780563E+03  0.84559141640E+02 0.  0.
         13    1    3    3    0    0  0.22309686693E+02 -0.18647158585E+02 -0.36079377601E+01  0.29299417375E+02  0.00000000000E+00 0. -1.
        -14    1    3    3    0    0 -0.66233403685E+02 -0.27268471235E+02 -0.33157611167E+01  0.71703748570E+02  0.00000000000E+00 0.  1.
        -13    1    4    4    0    0  0.96496895171E+02 -0.17343807486E+03 -0.19357912283E+03  0.27724590779E+03  0.00000000000E+00 0. -1.
         13    1    4    4    0    0 -0.10929682609E+02 -0.52680883399E+02 -0.90193489732E+02  0.10502189785E+03  0.00000000000E+00 0.  1.
          4    1    1    2  501    0 -0.41643495570E+02  0.27203458807E+03  0.14905830278E+03  0.31297823480E+03  0.00000000000E+00 0. -1.
<scales pt_clust_5="13000.00000" pt_clust_6="13000.00000" pt_clust_7="13000.00000" pt_clust_8="13000.00000" pt_clust_9="267.73705"></scales>
<clustering>
<clus scale="   78.206">  5  6 -1 -1</clus>
<clus scale="   84.559">  7  8 -1 -1</clus>
<clus scale="  100.766">  2  5  1 -1</clus>
<clus scale="  267.737">  1  9  2 -1</clus>
<clus scale="  267.737">  1  5  2 -1</clus>
</clustering>
</event>
<event>
 9    1  0.1487426E-004  0.1815617E+03  0.7546771E-02  0.1167594E+00
         21   -1    0    0  501  502  0.00000000000E+00  0.00000000000E+00  0.14999529111E+03  0.14999529111E+03  0.00000000000E+00 0. -1.
          1   -1    0    0  502    0 -0.00000000000E+00 -0.00000000000E+00 -0.38635594176E+03  0.38635594176E+03  0.00000000000E+00 0. -1.
        -24    2    1    2    0    0 -0.15440943915E+03  0.45106258548E+02 -0.77191014550E+02  0.19587259404E+03  0.80813185230E+02 0.  0.
         23    2    1    2    0    0  0.15805327836E+03  0.27540474183E+02 -0.23251551278E+02  0.18632108591E+03  0.91845500159E+02 0.  0.
         11    1    3    3    0    0 -0.21757909055E+02 -0.17425271271E+02 -0.31951024450E+02  0.42401823649E+02  0.00000000000E+00 0. -1.
        -12    1    3    3    0    0 -0.13265153010E+03  0.62531529818E+02 -0.45239990100E+02  0.15347077039E+03  0.00000000000E+00 0.  1.
        -13    1    4    4    0    0  0.73756276596E+02 -0.95014281742E+00 -0.54823112756E+02  0.91904650595E+02  0.00000000000E+00 0. -1.
         13    1    4    4    0    0  0.84297001768E+02  0.28490617001E+02  0.31571561478E+02  0.94416435319E+02  0.00000000000E+00 0.  1.
          2    1    1    2  501    0 -0.36438392098E+01 -0.72646732731E+02 -0.13591808483E+03  0.15415755292E+03  0.00000000000E+00 0. -1.
<scales pt_clust_5="13000.00000" pt_clust_6="13000.00000" pt_clust_7="13000.00000" pt_clust_8="13000.00000" pt_clust_9="72.73810"></scales>
<clustering>
<clus scale="   72.738">  1  9  2 -1</clus>
<clus scale="   80.813">  5  6 -1 -1</clus>
<clus scale="   91.846">  7  8 -1 -1</clus>
<clus scale="  176.238">  2  5  1 -1</clus>
<clus scale="   72.738">  1  5  2 -1</clus>
</clustering>
</event>
<event>
 9    1  0.1487426E-004  0.1378139E+03  0.7546771E-02  0.1218413E+00
         21   -1    0    0  501  502  0.00000000000E+00  0.00000000000E+00  0.18234725519E+03  0.18234725519E+03  0.00000000000E+00 0. -1.
          1   -1    0    0  502    0 -0.00000000000E+00 -0.00000000000E+00 -0.30236667616E+03  0.30236667616E+03  0.00000000000E+00 0. -1.
        -24    2    1    2    0    0  0.49870165690E+02  0.98793137104E+02 -0.20567802201E+03  0.24717062571E+03  0.80887280273E+02 0.  0.
         23    2    1    2    0    0 -0.58938058540E+01 -0.61108222025E+02  0.12615865579E+03  0.16687274966E+03  0.90341332749E+02 0.  0.
         11    1    3    3    0    0  0.84920276250E+00  0.63022682432E+02 -0.15764262802E+03  0.16977566910E+03  0.00000000000E+00 0. -1.
        -12    1    3    3    0    0  0.49020962927E+02  0.35770454672E+02 -0.48035393988E+02  0.77394956614E+02  0.00000000000E+00 0.  1.
        -13    1    4    4    0    0  0.19748657825E+02 -0.50459740852E+02  0.12804969778E+03  0.13904287121E+03  0.00000000000E+00 0. -1.
         13    1    4    4    0    0 -0.25642463679E+02 -0.10648481174E+02 -0.18910419916E+01  0.27829878452E+02  0.00000000000E+00 0.  1.
          2    1    1    2  501    0 -0.43976359836E+02 -0.37684915079E+02 -0.40500054747E+02  0.70670555986E+02  0.00000000000E+00 0. -1.
<scales pt_clust_5="13000.00000" pt_clust_6="13000.00000" pt_clust_7="13000.00000" pt_clust_8="13000.00000" pt_clust_9="57.91439"></scales>
<clustering>
<clus scale="   57.914">  1  9  2 -1</clus>
<clus scale="   80.887">  5  6 -1 -1</clus>
<clus scale="   90.341">  7  8 -1 -1</clus>
<clus scale="  131.810">  2  5  1 -1</clus>
<clus scale="   57.914">  1  5  2 -1</clus>
</clustering>
</event>
<event>
 9    1  0.1487426E-004  0.1109373E+03  0.7546771E-02  0.1263076E+00
         -2   -1    0    0    0  501 -0.00000000000E+00  0.00000000000E+00  0.37369057930E+03  0.37369057930E+03  0.00000000000E+00 0.  1.
         21   -1    0    0  501  502  0.00000000000E+00 -0.00000000000E+00 -0.52340470224E+02  0.52340470224E+02  0.00000000000E+00 0. -1.
        -24    2    1    2    0    0  0.45391358552E+02  0.48369067025E+02  0.19509743292E+03  0.22137956119E+03  0.80907105410E+02 0.  0.
         23    2    1    2    0    0 -0.22960059339E+02 -0.54060447440E+02  0.14023856689E+03  0.17761151542E+03  0.91811211003E+02 0.  0.
         11    1    3    3    0    0  0.25088649125E+02  0.18438303068E+02  0.98819445256E+01  0.32665948058E+02  0.00000000000E+00 0. -1.
        -12    1    3    3    0    0  0.20302709428E+02  0.29930763957E+02  0.18521548840E+03  0.18871361314E+03  0.00000000000E+00 0.  1.
        -11    1    4    4    0    0  0.42079769020E+01  0.24302237826E+02  0.45045842422E+02  0.51355951480E+02  0.00000000000E+00 0.  1.
         11    1    4    4    0    0 -0.27168036241E+02 -0.78362685265E+02  0.95192724464E+02  0.12625556394E+03  0.00000000000E+00 0. -1.
         -1    1    1    2    0  502 -0.22431299213E+02  0.56913804144E+01 -0.13985890730E+02  0.27039972909E+02  0.00000000000E+00 0.  1.
<scales pt_clust_5="13000.00000" pt_clust_6="13000.00000" pt_clust_7="13000.00000" pt_clust_8="13000.00000" pt_clust_9="23.14206"></scales>
<clustering>
<clus scale="   23.142">  2  9  1 -1</clus>
<clus scale="   80.907">  5  6 -1 -1</clus>
<clus scale="   91.811">  7  8 -1 -1</clus>
<clus scale="  102.097">  1  5  2 -1</clus>
<clus scale="   23.142">  2  5  1 -1</clus>
</clustering>
</event>
<event>
 9    1  0.1487426E-004  0.3267920E+03  0.7546771E-02  0.1072927E+00
         21   -1    0    0  501  502  0.00000000000E+00  0.00000000000E+00  0.10245185666E+03  0.10245185666E+03  0.00000000000E+00 0. -1.
          1   -1    0    0  502    0 -0.00000000000E+00 -0.00000000000E+00 -0.15029456437E+04  0.15029456437E+04  0.00000000000E+00 0. -1.
         23    2    1    2    0    0  0.32046830075E+03 -0.41831600122E+02 -0.10204293846E+04  0.10744063890E+04  0.92860891564E+02 0.  0.
        -24    2    1    2    0    0 -0.29073200126E+03  0.45657008138E+02 -0.39362871134E+03  0.49808409496E+03  0.80836528295E+02 0.  0.
         11    1    4    4    0    0 -0.24574026173E+03  0.67705257122E+02 -0.33539708117E+03  0.42126414532E+03  0.00000000000E+00 0. -1.
        -12    1    4    4    0    0 -0.44991739527E+02 -0.22048248984E+02 -0.58231630173E+02  0.76819949633E+02  0.00000000000E+00 0.  1.
        -11    1    3    3    0    0  0.86491259645E+02 -0.53935283168E+02 -0.31732552658E+03  0.33329452829E+03  0.00000000000E+00 0.  1.
         11    1    3    3    0    0  0.23397704111E+03  0.12103683046E+02 -0.70310385801E+03  0.74111186069E+03  0.00000000000E+00 0. -1.
          2    1    1    2  501    0 -0.29736299496E+02 -0.38254080159E+01  0.13564308902E+02  0.32907016428E+02  0.00000000000E+00 0. -1.
<scales pt_clust_5="13000.00000" pt_clust_6="13000.00000" pt_clust_7="13000.00000" pt_clust_8="13000.00000" pt_clust_9="29.98135"></scales>
<clustering>
<clus scale="   29.981">  1  9  2 -1</clus>
<clus scale="   80.837">  5  6 -1 -1</clus>
<clus scale="   92.861">  7  8 -1 -1</clus>
<clus scale="  323.581">  1  5  2 -1</clus>
<clus scale="   29.981">  1  5  2 -1</clus>
</clustering>
</event>
<event>
 9    1  0.1487426E-004  0.9874205E+02  0.7546771E-02  0.1283073E+00
          3   -1    0    0  502    0 -0.00000000000E+00  0.00000000000E+00  0.46197543906E+03  0.46197543906E+03  0.00000000000E+00 0. -1.
         21   -1    0    0  501  502  0.00000000000E+00 -0.00000000000E+00 -0.76198546416E+02  0.76198546416E+02  0.00000000000E+00 0.  1.
         23    2    1    2    0    0 -0.44123305730E+02  0.27711446860E+02  0.39073726327E+03  0.40276114755E+03  0.82620473659E+02 0.  0.
        -24    2    1    2    0    0  0.52724266560E+02 -0.50102095058E+02  0.35867008305E+01  0.10994972571E+03  0.82377239251E+02 0.  0.
         13    1    4    4    0    0 -0.64475220376E+01 -0.45396249005E+02 -0.14171143900E+02  0.47991783501E+02  0.00000000000E+00 0. -1.
        -14    1    4    4    0    0  0.59171788597E+02 -0.47058460527E+01  0.17757844730E+02  0.61957942205E+02  0.00000000000E+00 0.  1.
        -11    1    3    3    0    0  0.28916334379E+01 -0.25888239023E+02  0.11985247114E+03  0.12265063107E+03  0.00000000000E+00 0.  1.
         11    1    3    3    0    0 -0.47014939168E+02  0.53599685883E+02  0.27088479213E+03  0.28011051647E+03  0.00000000000E+00 0. -1.
          4    1    1    2  501    0 -0.86009608293E+01  0.22390648198E+02 -0.85470714543E+01  0.25463112228E+02  0.00000000000E+00 0. -1.
<scales pt_clust_5="13000.00000" pt_clust_6="13000.00000" pt_clust_7="13000.00000" pt_clust_8="13000.00000" pt_clust_9="23.98578"></scales>
<clustering>
<clus scale="   23.986">  2  9  1 -1</clus>
<clus scale="   82.377">  5  6 -1 -1</clus>
<clus scale="   82.620">  7  8 -1 -1</clus>
<clus scale="   98.539">  2  5  1 -1</clus>
<clus scale="   23.986">  2  5  1 -1</clus>
</clustering>
</event>
<event>
 9    1  0.1487426E-004  0.1005375E+03  0.7546771E-02  0.1284117E+00
          1   -1    0    0  502    0 -0.00000000000E+00  0.00000000000E+00  0.43930084767E+03  0.43930084767E+03  0.00000000000E+00 0. -1.
         21   -1    0    0  501  502  0.00000000000E+00 -0.00000000000E+00 -0.34195781230E+02  0.34195781230E+02  0.00000000000E+00 0.  1.
         23    2    1    2    0    0  0.48720472106E+02 -0.40725518158E+02  0.26449227585E+03  0.28088238486E+03  0.70046398271E+02 0.  0.
        -24    2    1    2    0    0 -0.17983828789E+02  0.48929479503E+02  0.86068115827E+02  0.12947022002E+03  0.81469658446E+02 0.  0.
         11    1    4    4    0    0 -0.39196943143E+01  0.21147712202E+02  0.94736562735E+02  0.97147341980E+02  0.00000000000E+00 0. -1.
        -12    1    4    4    0    0 -0.14064134475E+02  0.27781767301E+02 -0.86684469081E+01  0.32322878039E+02  0.00000000000E+00 0.  1.
        -11    1    3    3    0    0  0.24890221126E+02 -0.35817105323E+02  0.24723558658E+03  0.25105342741E+03  0.00000000000E+00 0. -1.
         11    1    3    3    0    0  0.23830250980E+02 -0.49084128344E+01  0.17256689270E+02  0.29828957456E+02  0.00000000000E+00 0.  1.
          2    1    1    2  501    0 -0.30736643317E+02 -0.82039613448E+01  0.54544674764E+02  0.63144024019E+02  0.00000000000E+00 0. -1.
<scales pt_clust_5="13000.00000" pt_clust_6="13000.00000" pt_clust_7="13000.00000" pt_clust_8="13000.00000" pt_clust_9="31.81269"></scales>
<clustering>
<clus scale="   31.813">  2  9  1 -1</clus>
<clus scale="   70.046">  7  8 -1 -1</clus>
<clus scale="   81.470">  5  6 -1 -1</clus>
<clus scale="   91.526">  1  7  2 -1</clus>
<clus scale="   31.813">  2  5  1 -1</clus>
</clustering>
</event>
<event>
 9    1  0.1487426E-004  0.1130220E+03  0.7546771E-02  0.1258708E+00
         21   -1    0    0  501  502  0.00000000000E+00  0.00000000000E+00  0.32953840753E+03  0.32953840753E+03  0.00000000000E+00 0.  1.
          1   -1    0    0  502    0 -0.00000000000E+00 -0.00000000000E+00 -0.60195872156E+02  0.60195872156E+02  0.00000000000E+00 0. -1.
        -24    2    1    2    0    0  0.60589940584E+02  0.13649964230E+02  0.41650055556E+02  0.11004083393E+03  0.80726672057E+02 0.  0.
         23    2    1    2    0    0 -0.68974420215E+02 -0.50410000124E+02  0.16991708835E+03  0.21070362334E+03  0.90694879779E+02 0.  0.
         13    1    3    3    0    0  0.66989862645E+02  0.16277687085E+02  0.11444421128E+01  0.68948636983E+02  0.00000000000E+00 0. -1.
        -14    1    3    3    0    0 -0.63999220611E+01 -0.26277228551E+01  0.40505613444E+02  0.41092196951E+02  0.00000000000E+00 0.  1.
        -11    1    4    4    0    0 -0.16240316954E+01  0.23746682790E+02  0.41417702256E+02  0.47769953764E+02  0.00000000000E+00 0.  1.
         11    1    4    4    0    0 -0.67350388520E+02 -0.74156682913E+02  0.12849938610E+03  0.16293366958E+03  0.00000000000E+00 0. -1.
          2    1    1    2  501    0  0.83844796316E+01  0.36760035893E+02  0.57775391468E+02  0.68989822415E+02  0.00000000000E+00 0. -1.
<scales pt_clust_5="13000.00000" pt_clust_6="13000.00000" pt_clust_7="13000.00000" pt_clust_8="13000.00000" pt_clust_9="37.70411"></scales>
<clustering>
<clus scale="   37.704">  1  9  2 -1</clus>
<clus scale="   80.727">  5  6 -1 -1</clus>
<clus scale="   90.695">  7  8 -1 -1</clus>
<clus scale="  105.191">  2  5  1 -1</clus>
<clus scale="   37.704">  1  5  2 -1</clus>
</clustering>
</event>
<event>
 9    1  0.1487426E-004  0.1533866E+03  0.7546771E-02  0.1197765E+00
          1   -1    0    0  502    0 -0.00000000000E+00  0.00000000000E+00  0.42693368292E+03  0.42693368292E+03  0.00000000000E+00 0. -1.
         21   -1    0    0  501  502  0.00000000000E+00 -0.00000000000E+00 -0.68767482616E+02  0.68767482616E+02  0.00000000000E+00 0. -1.
         23    2    1    2    0    0  0.77063577997E+02  0.92563674752E+02  0.20457044368E+03  0.25359203824E+03  0.89179742628E+02 0.  0.
        -24    2    1    2    0    0 -0.71720744243E+02 -0.11195773633E+03  0.10047316890E+03  0.18530521173E+03  0.81023230904E+02 0.  0.
         13    1    4    4    0    0 -0.32851589239E+02 -0.99254277198E+02  0.99608116729E+02  0.14440365430E+03  0.00000000000E+00 0. -1.
        -14    1    4    4    0    0 -0.38869155004E+02 -0.12703459132E+02  0.86505217186E+00  0.40901557427E+02  0.00000000000E+00 0.  1.
        -13    1    3    3    0    0  0.37458548763E+02 -0.50450209737E+01  0.91801310486E+02  0.99277770518E+02  0.00000000000E+00 0. -1.
         13    1    3    3    0    0  0.39605029234E+02  0.97608695726E+02  0.11276913319E+03  0.15431426772E+03  0.00000000000E+00 0.  1.
          2    1    1    2  501    0 -0.53428337539E+01  0.19394061578E+02  0.53122587724E+02  0.56803915564E+02  0.00000000000E+00 0. -1.
<scales pt_clust_5="13000.00000" pt_clust_6="13000.00000" pt_clust_7="13000.00000" pt_clust_8="13000.00000" pt_clust_9="20.11656"></scales>
<clustering>
<clus scale="   20.117">  2  9  1 -1</clus>
<clus scale="   81.023">  5  6 -1 -1</clus>
<clus scale="   89.180">  7  8 -1 -1</clus>
<clus scale="  148.792">  2  5  1 -1</clus>
<clus scale="   20.117">  2  5  1 -1</clus>
</clustering>
</event>
<event>
 9    1  0.1487426E-004  0.1644353E+03  0.7546771E-02  0.1212590E+00
         21   -1    0    0  501  502  0.00000000000E+00  0.00000000000E+00  0.53614429944E+02  0.53614429944E+02  0.00000000000E+00 0.  1.
         -4   -1    0    0    0  501 -0.00000000000E+00 -0.00000000000E+00 -0.94272389487E+03  0.94272389487E+03  0.00000000000E+00 0.  1.
        -24    2    1    2    0    0  0.54059378035E+01 -0.14667748869E+02 -0.12148047047E+03  0.14987056860E+03  0.86367329509E+02 0.  0.
         23    2    1    2    0    0  0.13062324442E+03 -0.13004174445E+02 -0.63407640904E+03  0.65383866488E+03  0.90667340648E+02 0.  0.
         13    1    3    3    0    0  0.23431092068E+02  0.30215538455E+02 -0.65920196857E+02  0.76206739815E+02  0.00000000000E+00 0. -1.
        -14    1    3    3    0    0 -0.18025154265E+02 -0.44883287324E+02 -0.55560273609E+02  0.73663828782E+02  0.00000000000E+00 0.  1.
        -13    1    4    4    0    0 -0.14855332434E+01  0.22344201407E+02 -0.10620226138E+03  0.10853750719E+03  0.00000000000E+00 0. -1.
         13    1    4    4    0    0  0.13210877766E+03 -0.35348375851E+02 -0.52787414766E+03  0.54530115769E+03  0.00000000000E+00 0.  1.
         -3    1    1    2    0  502 -0.13602918222E+03  0.27671923314E+02 -0.13355258542E+03  0.19262909133E+03  0.00000000000E+00 0.  1.
<scales pt_clust_5="13000.00000" pt_clust_6="13000.00000" pt_clust_7="13000.00000" pt_clust_8="13000.00000" pt_clust_9="137.18017"></scales>
<clustering>
<clus scale="   86.367">  5  6 -1 -1</clus>
<clus scale="   87.771">  2  5  1 -1</clus>
<clus scale="   90.667">  7  8 -1 -1</clus>
<clus scale="  137.180">  1  9  2 -1</clus>
<clus scale="  137.180">  1  5  2 -1</clus>
</clustering>
</event>
<event>
 9    1  0.1487426E-004  0.9503589E+02  0.7546771E-02  0.1294718E+00
          3   -1    0    0  502    0 -0.00000000000E+00  0.00000000000E+00  0.54148396411E+02  0.54148396411E+02  0.00000000000E+00 0. -1.
         21   -1    0    0  501  502  0.00000000000E+00 -0.00000000000E+00 -0.34002088314E+03  0.34002088314E+03  0.00000000000E+00 0.  1.
         23    2    1    2    0    0 -0.56107173630E+01 -0.24526798542E+02 -0.69901408291E+02  0.11574243515E+03  0.88752805123E+02 0.  0.
        -24    2    1    2    0    0  0.14653278751E+02  0.54437718936E+02 -0.22487727085E+03  0.24593451702E+03  0.82072016510E+02 0.  0.
         13    1    4    4    0    0 -0.29650466690E+02  0.47253066460E+00 -0.62255144126E+02  0.68957062222E+02  0.00000000000E+00 0. -1.
        -14    1    4    4    0    0  0.44303745441E+02  0.53965188271E+02 -0.16262212672E+03  0.17697745479E+03  0.00000000000E+00 0.  1.
        -13    1    3    3    0    0 -0.36092470887E+02  0.17406766517E+02 -0.35415048402E+02  0.53477917205E+02  0.00000000000E+00 0. -1.
         13    1    3    3    0    0  0.30481753524E+02 -0.41933565058E+02 -0.34486359890E+02  0.62264517944E+02  0.00000000000E+00 0.  1.
          4    1    1    2  501    0 -0.90425613883E+01 -0.29910920394E+02  0.89061924171E+01  0.32492327381E+02  0.00000000000E+00 0. -1.
<scales pt_clust_5="13000.00000" pt_clust_6="13000.00000" pt_clust_7="13000.00000" pt_clust_8="13000.00000" pt_clust_9="31.24791"></scales>
<clustering>
<clus scale="   31.248">  2  9  1 -1</clus>
<clus scale="   82.072">  5  6 -1 -1</clus>
<clus scale="   88.753">  7  8 -1 -1</clus>
<clus scale="   88.829">  2  5  1 -1</clus>
<clus scale="   31.248">  2  5  1 -1</clus>
</clustering>
</event>
<event>
 9    1  0.1487426E-004  0.1023449E+03  0.7546771E-02  0.1284479E+00
         21   -1    0    0  501  502  0.00000000000E+00  0.00000000000E+00  0.50477351923E+03  0.50477351923E+03  0.00000000000E+00 0. -1.
         -4   -1    0    0    0  501 -0.00000000000E+00 -0.00000000000E+00 -0.23835251150E+02  0.23835251150E+02  0.00000000000E+00 0.  1.
         23    2    1    2    0    0 -0.43698483952E+01 -0.40845142060E+02  0.25317795428E+03  0.27308975682E+03  0.93763092624E+02 0.  0.
        -24    2    1    2    0    0  0.24278047715E+02  0.35813616254E+02  0.21314253364E+03  0.23031321763E+03  0.75778624007E+02 0.  0.
         11    1    4    4    0    0 -0.23819307395E+02  0.24175985177E+02  0.55188027931E+02  0.64788549072E+02  0.00000000000E+00 0. -1.
        -12    1    4    4    0    0  0.48097355110E+02  0.11637631077E+02  0.15795450571E+03  0.16552466855E+03  0.00000000000E+00 0.  1.
        -11    1    3    3    0    0  0.31855447213E+02 -0.47493871277E+02  0.20264174533E+03  0.21055667711E+03  0.00000000000E+00 0. -1.
         11    1    3    3    0    0 -0.36225295608E+02  0.66487292173E+01  0.50536208957E+02  0.62533079708E+02  0.00000000000E+00 0.  1.
         -3    1    1    2    0  502 -0.19908199320E+02  0.50315258062E+01  0.14617780153E+02  0.25205795935E+02  0.00000000000E+00 0.  1.
<scales pt_clust_5="13000.00000" pt_clust_6="13000.00000" pt_clust_7="13000.00000" pt_clust_8="13000.00000" pt_clust_9="20.53419"></scales>
<clustering>
<clus scale="   20.534">  1  9  2 -1</clus>
<clus scale="   75.779">  5  6 -1 -1</clus>
<clus scale="   86.171">  1  5  2 -1</clus>
<clus scale="   93.763">  7  8 -1 -1</clus>
<clus scale="   20.534">  1  5  2 -1</clus>
</clustering>
</event>
<event>
 9    1  0.1487426E-004  0.1386043E+03  0.7546771E-02  0.1239948E+00
          3   -1    0    0  502    0 -0.00000000000E+00  0.00000000000E+00  0.40711708820E+03  0.40711708820E+03  0.00000000000E+00 0. -1.
         21   -1    0    0  501  502  0.00000000000E+00 -0.00000000000E+00 -0.14490878132E+03  0.14490878132E+03  0.00000000000E+00 0.  1.
        -24    2    1    2    0    0 -0.58261973619E+01 -0.22123348824E+02 -0.83985067840E+02  0.11808115568E+03  0.79788975227E+02 0.  0.
         23    2    1    2    0    0 -0.44276413074E+02  0.10769079010E+03  0.27249715750E+03  0.31040042618E+03  0.92390566074E+02 0.  0.
         11    1    3    3    0    0  0.34612804375E+02  0.40192369733E+01 -0.34603872015E+02  0.49108333824E+02  0.00000000000E+00 0. -1.
        -12    1    3    3    0    0 -0.40439001737E+02 -0.26142585797E+02 -0.49381195824E+02  0.68972821855E+02  0.00000000000E+00 0.  1.
        -13    1    4    4    0    0 -0.55454669675E+02  0.41406422110E+02  0.19952024492E+03  0.21118248108E+03  0.00000000000E+00 0. -1.
         13    1    4    4    0    0  0.11178256601E+02  0.66284367993E+02  0.72976912582E+02  0.99217945105E+02  0.00000000000E+00 0.  1.
          4    1    1    2  501    0  0.50102610436E+02 -0.85567441280E+02  0.73696217223E+02  0.12354428766E+03  0.00000000000E+00 0. -1.
<scales pt_clust_5="13000.00000" pt_clust_6="13000.00000" pt_clust_7="13000.00000" pt_clust_8="13000.00000" pt_clust_9="103.32054"></scales>
<clustering>
<clus scale="   79.789">  5  6 -1 -1</clus>
<clus scale="   83.004">  1  5  2 -1</clus>
<clus scale="   92.391">  7  8 -1 -1</clus>
<clus scale="  103.321">  2  9  1 -1</clus>
<clus scale="  103.321">  2  5  1 -1</clus>
</clustering>
</event>
<event>
 9    1  0.1487426E-004  0.9575547E+02  0.7546771E-02  0.1294493E+00
         21   -1    0    0  501  502  0.00000000000E+00  0.00000000000E+00  0.52371885241E+02  0.52371885241E+02  0.00000000000E+00 0. -1.
         -2   -1    0    0    0  501 -0.00000000000E+00 -0.00000000000E+00 -0.46265572325E+03  0.46265572325E+03  0.00000000000E+00 0.  1.
        -24    2    1    2    0    0 -0.78889855325E+01 -0.18332742960E+02 -0.26891925648E+03  0.28301371979E+03  0.85912010354E+02 0.  0.
         23    2    1    2    0    0 -0.27377572768E+02  0.67122664637E+01 -0.16187991100E+03  0.18959167339E+03  0.94579654380E+02 0.  0.
         13    1    3    3    0    0 -0.24005275252E+02 -0.10550554641E+02 -0.18823292048E+02  0.32278224341E+02  0.00000000000E+00 0. -1.
        -14    1    3    3    0    0  0.16116289719E+02 -0.77821883193E+01 -0.25009596444E+03  0.25073549545E+03  0.00000000000E+00 0.  1.
        -13    1    4    4    0    0  0.52329135420E+00  0.37817319866E+02 -0.22331596403E+02  0.43921790874E+02  0.00000000000E+00 0.  1.
         13    1    4    4    0    0 -0.27900864122E+02 -0.31105053402E+02 -0.13954831460E+03  0.14566988252E+03  0.00000000000E+00 0. -1.
         -1    1    1    2    0  502  0.35266558300E+02  0.11620476496E+02  0.20515329476E+02  0.42422215310E+02  0.00000000000E+00 0.  1.
<scales pt_clust_5="13000.00000" pt_clust_6="13000.00000" pt_clust_7="13000.00000" pt_clust_8="13000.00000" pt_clust_9="37.13173"></scales>
<clustering>
<clus scale="   37.132">  1  9  2 -1</clus>
<clus scale="   85.912">  5  6 -1 -1</clus>
<clus scale="   87.205">  2  5  1 -1</clus>
<clus scale="   94.580">  7  8 -1 -1</clus>
<clus scale="   37.132">  1  5  2 -1</clus>
</clustering>
</event>
<event>
 9    1  0.1487426E-004  0.1205647E+03  0.7546771E-02  0.1246543E+00
         21   -1    0    0  501  502  0.00000000000E+00  0.00000000000E+00  0.61261753491E+02  0.61261753491E+02  0.00000000000E+00 0. -1.
         -2   -1    0    0    0  501 -0.00000000000E+00 -0.00000000000E+00 -0.43899369418E+03  0.43899369418E+03  0.00000000000E+00 0.  1.
        -24    2    1    2    0    0  0.89869800480E+02 -0.34053656014E+02 -0.29622270089E+03  0.32076126364E+03  0.76835325202E+02 0.  0.
         23    2    1    2    0    0 -0.32979275609E+02  0.10195353136E+02 -0.39788010231E+02  0.10501995069E+03  0.90854424434E+02 0.  0.
         13    1    3    3    0    0  0.42680625993E+02 -0.47243662277E+02 -0.22828908136E+03  0.23700106356E+03  0.00000000000E+00 0. -1.
        -14    1    3    3    0    0  0.47189174487E+02  0.13190006263E+02 -0.67933619537E+02  0.83760200079E+02  0.00000000000E+00 0.  1.
        -13    1    4    4    0    0 -0.62026077188E+02  0.11091599083E+02 -0.42236577657E+02  0.75856353153E+02  0.00000000000E+00 0.  1.
         13    1    4    4    0    0  0.29046801579E+02 -0.89624594730E+00  0.24485674255E+01  0.29163597535E+02  0.00000000000E+00 0. -1.
         -1    1    1    2    0  502 -0.56890524871E+02  0.23858302878E+02 -0.41721229569E+02  0.74474233351E+02  0.00000000000E+00 0.  1.
<scales pt_clust_5="13000.00000" pt_clust_6="13000.00000" pt_clust_7="13000.00000" pt_clust_8="13000.00000" pt_clust_9="61.69076"></scales>
<clustering>
<clus scale="   61.691">  1  9  2 -1</clus>
<clus scale="   76.835">  5  6 -1 -1</clus>
<clus scale="   90.854">  7  8 -1 -1</clus>
<clus scale="  110.386">  2  5  1 -1</clus>
<clus scale="   61.691">  1  5  2 -1</clus>
</clustering>
</event>
<event>
 9    1  0.1487426E-004  0.1325802E+03  0.7546771E-02  0.1226568E+00
         21   -1    0    0  501  502  0.00000000000E+00  0.00000000000E+00  0.11579253773E+03  0.11579253773E+03  0.00000000000E+00 0. -1.
          1   -1    0    0  502    0 -0.00000000000E+00 -0.00000000000E+00 -0.65593682521E+03  0.65593682521E+03  0.00000000000E+00 0. -1.
         23    2    1    2    0    0 -0.75094575672E+02 -0.45432815203E+02 -0.10096797082E+03  0.16248842075E+03  0.92220495300E+02 0.  0.
        -24    2    1    2    0    0  0.13930983157E+03 -0.47225270816E+02 -0.12856181951E+02  0.16826704585E+03  0.80691151486E+02 0.  0.
         11    1    4    4    0    0  0.50471676426E+02 -0.14561906316E+02 -0.44103758076E+02  0.68589946153E+02  0.00000000000E+00 0. -1.
        -12    1    4    4    0    0  0.88838155144E+02 -0.32663364500E+02  0.31247576125E+02  0.99677099694E+02  0.00000000000E+00 0.  1.
        -11    1    3    3    0    0 -0.64070186876E+02 -0.13595788692E+02 -0.10993900033E+02  0.66413102279E+02  0.00000000000E+00 0. -1.
         11    1    3    3    0    0 -0.11024388797E+02 -0.31837026511E+02 -0.89974070783E+02  0.96075318467E+02  0.00000000000E+00 0.  1.
          2    1    1    2  501    0 -0.64215255897E+02  0.92658086019E+02 -0.42632013471E+03  0.44097389634E+03  0.00000000000E+00 0. -1.
<scales pt_clust_5="13000.00000" pt_clust_6="13000.00000" pt_clust_7="13000.00000" pt_clust_8="13000.00000" pt_clust_9="112.73479"></scales>
<clustering>
<clus scale="   80.691">  5  6 -1 -1</clus>
<clus scale="   92.220">  7  8 -1 -1</clus>
<clus scale="  112.735">  1  9  2 -1</clus>
<clus scale="  124.836">  1  5  2 -1</clus>
<clus scale="  112.735">  1  5  2 -1</clus>
</clustering>
</event>
<event>
 9    1  0.1487426E-004  0.2539783E+03  0.7546771E-02  0.1151306E+00
          1   -1    0    0  502    0 -0.00000000000E+00  0.00000000000E+00  0.13113996639E+04  0.13113996639E+04  0.00000000000E+00 0. -1.
         21   -1    0    0  501  502  0.00000000000E+00 -0.00000000000E+00 -0.13318249996E+03  0.13318249996E+03  0.00000000000E+00 0. -1.
        -24    2    1    2    0    0 -0.49479630567E+02  0.12653891445E+02 -0.14687935915E+02  0.95245546125E+02  0.79041911575E+02 0.  0.
         23    2    1    2    0    0  0.77791289191E+01  0.22531563681E+03  0.10296120860E+04  0.10577323712E+04  0.88707780984E+02 0.  0.
         13    1    3    3    0    0 -0.52989783138E+02  0.38671144094E+02 -0.19750696233E+02  0.68508864421E+02  0.00000000000E+00 0. -1.
        -14    1    3    3    0    0  0.35101525709E+01 -0.26017252650E+02  0.50627603178E+01  0.26736681704E+02  0.00000000000E+00 0.  1.
        -13    1    4    4    0    0 -0.38810878614E+02  0.81334568810E+02  0.42731732869E+03  0.43671695156E+03  0.00000000000E+00 0. -1.
         13    1    4    4    0    0  0.46590007533E+02  0.14398106800E+03  0.60229475730E+03  0.62101541963E+03  0.00000000000E+00 0.  1.
          2    1    1    2  501    0  0.41700501648E+02 -0.23796952826E+03  0.16329301385E+03  0.29160424652E+03  0.00000000000E+00 0. -1.
<scales pt_clust_5="13000.00000" pt_clust_6="13000.00000" pt_clust_7="13000.00000" pt_clust_8="13000.00000" pt_clust_9="237.98299"></scales>
<clustering>
<clus scale="   79.042">  5  6 -1 -1</clus>
<clus scale="   88.708">  7  8 -1 -1</clus>
<clus scale="   94.106">  1  5  2 -1</clus>
<clus scale="  237.983">  2  9  1 -1</clus>
<clus scale="  237.983">  2  5  1 -1</clus>
</clustering>
</event>
<event>
 9    1  0.1487426E-004  0.1575735E+03  0.7546771E-02  0.1193683E+00
          1   -1    0    0  502    0 -0.00000000000E+00  0.00000000000E+00  0.71486907453E+03  0.71486907453E+03  0.00000000000E+00 0. -1.
         21   -1    0    0  501  502  0.00000000000E+00 -0.00000000000E+00 -0.68316766236E+02  0.68316766236E+02  0.00000000000E+00 0. -1.
        -24    2    1    2    0    0 -0.12498834338E+03  0.31796752997E+02  0.51641452575E+03  0.53821440350E+03  0.79734949960E+02 0.  0.
         23    2    1    2    0    0  0.10966302239E+03 -0.45378744557E+02  0.45004138963E+02  0.15740961210E+03  0.93097822314E+02 0.  0.
         11    1    3    3    0    0 -0.13111891849E+03  0.21960589566E+02  0.50396230931E+03  0.52120288515E+03  0.00000000000E+00 0. -1.
        -12    1    3    3    0    0  0.61305751150E+01  0.98361634310E+01  0.12452216436E+02  0.17011518346E+02  0.00000000000E+00 0.  1.
        -11    1    4    4    0    0  0.89773691231E+02  0.93890962965E+01  0.40606013353E+02  0.98976356201E+02  0.00000000000E+00 0. -1.
         11    1    4    4    0    0  0.19889331158E+02 -0.54767840853E+02  0.43981256098E+01  0.58433255895E+02  0.00000000000E+00 0.  1.
          2    1    1    2  501    0  0.15325320988E+02  0.13581991560E+02  0.85133643580E+02  0.87561825172E+02  0.00000000000E+00 0. -1.
<scales pt_clust_5="13000.00000" pt_clust_6="13000.00000" pt_clust_7="13000.00000" pt_clust_8="13000.00000" pt_clust_9="20.47770"></scales>
<clustering>
<clus scale="   20.478">  2  9  1 -1</clus>
<clus scale="   79.735">  5  6 -1 -1</clus>
<clus scale="   93.098">  7  8 -1 -1</clus>
<clus scale="  150.066">  1  5  2 -1</clus>
<clus scale="   20.478">  2  5  1 -1</clus>
</clustering>
</event>
<event>
 9    1  0.1487426E-004  0.8974067E+02  0.7546771E-02  0.1305073E+00
         21   -1    0    0  501  502  0.00000000000E+00  0.00000000000E+00  0.35060579993E+03  0.35060579993E+03  0.00000000000E+00 0.  1.
         -4   -1    0    0    0  501 -0.00000000000E+00 -0.00000000000E+00 -0.52595867193E+02  0.52595867193E+02  0.00000000000E+00 0.  1.
        -24    2    1    2    0    0  0.22301464941E+02  0.46679607677E+00  0.16599427380E+02  0.87793426052E+02  0.83274074186E+02 0.  0.
         23    2    1    2    0    0 -0.30918422658E+02 -0.27745508813E+02  0.12986979218E+03  0.16119096617E+03  0.85968613658E+02 0.  0.
         11    1    3    3    0    0  0.51916031832E+02  0.12472678159E+02  0.16336902494E+02  0.55836694429E+02  0.00000000000E+00 0. -1.
        -12    1    3    3    0    0 -0.29614566891E+02 -0.12005882082E+02  0.26252488642E+00  0.31956731623E+02  0.00000000000E+00 0.  1.
        -11    1    4    4    0    0  0.28398939919E+02 -0.20804630985E+02  0.56731660119E+02  0.66766860933E+02  0.00000000000E+00 0. -1.
         11    1    4    4    0    0 -0.59317362577E+02 -0.69408778285E+01  0.73138132065E+02  0.94424105239E+02  0.00000000000E+00 0.  1.
         -3    1    1    2    0  502  0.86169577171E+01  0.27278712737E+02  0.15154071317E+03  0.15421727490E+03  0.00000000000E+00 0.  1.
<scales pt_clust_5="13000.00000" pt_clust_6="13000.00000" pt_clust_7="13000.00000" pt_clust_8="13000.00000" pt_clust_9="28.60734"></scales>
<clustering>
<clus scale="   28.607">  1  9  2 -1</clus>
<clus scale="   83.274">  5  6 -1 -1</clus>
<clus scale="   85.969">  7  8 -1 -1</clus>
<clus scale="   87.163">  2  5  1 -1</clus>
<clus scale="   28.607">  1  5  2 -1</clus>
</clustering>
</event>
<event>
 9    1  0.1487426E-004  0.1301311E+03  0.7546771E-02  0.1229572E+00
         -2   -1    0    0    0  501 -0.00000000000E+00  0.00000000000E+00  0.49985462737E+03  0.49985462737E+03  0.00000000000E+00 0.  1.
         21   -1    0    0  501  502  0.00000000000E+00 -0.00000000000E+00 -0.79550761854E+02  0.79550761854E+02  0.00000000000E+00 0. -1.
         23    2    1    2    0    0  0.61272782081E+02  0.37439214799E+02  0.76739033868E+02  0.13769542051E+03  0.88966852708E+02 0.  0.
        -24    2    1    2    0    0 -0.10174304738E+03 -0.81206801665E+02  0.81764937907E+02  0.17320926407E+03  0.79810724604E+02 0.  0.
         11    1    4    4    0    0 -0.99490638674E+02 -0.74582008282E+02  0.39640448036E+02  0.13050757933E+03  0.00000000000E+00 0. -1.
        -12    1    4    4    0    0 -0.22524087056E+01 -0.66247933828E+01  0.42124489871E+02  0.42701684735E+02  0.00000000000E+00 0.  1.
        -13    1    3    3    0    0  0.20458387710E+02 -0.12131699255E+02  0.69042402145E+02  0.73024496222E+02  0.00000000000E+00 0.  1.
         13    1    3    3    0    0  0.40814394370E+02  0.49570914053E+02  0.76966317224E+01  0.64670924284E+02  0.00000000000E+00 0. -1.
         -1    1    1    2    0  502  0.40470265299E+02  0.43767586866E+02  0.26179989374E+03  0.26850070465E+03  0.00000000000E+00 0.  1.
<scales pt_clust_5="13000.00000" pt_clust_6="13000.00000" pt_clust_7="13000.00000" pt_clust_8="13000.00000" pt_clust_9="59.61080"></scales>
<clustering>
<clus scale="   59.611">  2  9  1 -1</clus>
<clus scale="   79.811">  5  6 -1 -1</clus>
<clus scale="   88.967">  7  8 -1 -1</clus>
<clus scale="  124.051">  2  5  1 -1</clus>
<clus scale="   59.611">  2  5  1 -1</clus>
</clustering>
</event>
<event>
 9    1  0.1487426E-004  0.1810514E+03  0.7546771E-02  0.1168237E+00
         21   -1    0    0  501  502  0.00000000000E+00  0.00000000000E+00  0.93068533000E+03  0.93068533000E+03  0.00000000000E+00 0.  1.
         -2   -1    0    0    0  501 -0.00000000000E+00 -0.00000000000E+00 -0.62229349647E+02  0.62229349647E+02  0.00000000000E+00 0.  1.
         23    2    1    2    0    0  0.12815048938E+03 -0.10914583285E+03  0.19436304884E+03  0.27261291778E+03  0.90583924785E+02 0.  0.
        -24    2    1    2    0    0 -0.14135114687E+03  0.41729298179E+02  0.33385203339E+03  0.37319498397E+03  0.78075827316E+02 0.  0.
         13    1    4    4    0    0 -0.42560209409E+02 -0.22451608806E+02  0.80366114733E+02  0.93670478595E+02  0.00000000000E+00 0. -1.
        -14    1    4    4    0    0 -0.98790937462E+02  0.64180906985E+02  0.25348591866E+03  0.27952450537E+03  0.00000000000E+00 0.  1.
        -11    1    3    3    0    0  0.11487106189E+03 -0.87812325139E+02  0.10214125860E+03  0.17702881690E+03  0.00000000000E+00 0.  1.
         11    1    3    3    0    0  0.13279427496E+02 -0.21333507715E+02  0.92221790241E+02  0.95584100881E+02  0.00000000000E+00 0. -1.
         -1    1    1    2    0  502  0.13200657486E+02  0.67416534676E+02  0.34024089812E+03  0.34710677789E+03  0.00000000000E+00 0.  1.
<scales pt_clust_5="13000.00000" pt_clust_6="13000.00000" pt_clust_7="13000.00000" pt_clust_8="13000.00000" pt_clust_9="68.69677"></scales>
<clustering>
<clus scale="   68.697">  1  9  2 -1</clus>
<clus scale="   78.076">  5  6 -1 -1</clus>
<clus scale="   90.584">  7  8 -1 -1</clus>
<clus scale="  175.129">  1  5  2 -1</clus>
<clus scale="   68.697">  1  5  2 -1</clus>
</clustering>
</event>
<event>
 9    1  0.1487426E-004  0.9452445E+02  0.7546771E-02  0.1298945E+00
          1   -1    0    0  502    0 -0.00000000000E+00  0.00000000000E+00  0.67264266991E+02  0.67264266991E+02  0.00000000000E+00 0. -1.
         21   -1    0    0  501  502  0.00000000000E+00 -0.00000000000E+00 -0.26394401732E+03  0.26394401732E+03  0.00000000000E+00 0.  1.
        -24    2    1    2    0    0 -0.12528506965E+02 -0.26299627623E+02  0.10814037347E+02  0.85948003363E+02  0.80134149889E+02 0.  0.
         23    2    1    2    0    0  0.63695619301E+01 -0.85494846968E+01 -0.17190389989E+03  0.19507030838E+03  0.91584984620E+02 0.  0.
         13    1    3    3    0    0 -0.39358430191E+02 -0.37804945825E+02 -0.66924902511E+00  0.54577906246E+02  0.00000000000E+00 0. -1.
        -14    1    3    3    0    0  0.26829923225E+02  0.11505318202E+02  0.11483286372E+02  0.31370097117E+02  0.00000000000E+00 0.  1.
        -11    1    4    4    0    0  0.77451754619E+01  0.28001535490E+02 -0.14923864835E+03  0.15204028379E+03  0.00000000000E+00 0.  1.
         11    1    4    4    0    0 -0.13756135318E+01 -0.36551020187E+02 -0.22665251536E+02  0.43030024593E+02  0.00000000000E+00 0. -1.
          2    1    1    2  501    0  0.61589450351E+01  0.34849112320E+02 -0.35589887785E+02  0.50189972564E+02  0.00000000000E+00 0. -1.
<scales pt_clust_5="13000.00000" pt_clust_6="13000.00000" pt_clust_7="13000.00000" pt_clust_8="13000.00000" pt_clust_9="35.38917"></scales>
<clustering>
<clus scale="   35.389">  2  9  1 -1</clus>
<clus scale="   80.134">  5  6 -1 -1</clus>
<clus scale="   83.478">  1  5  2 -1</clus>
<clus scale="   91.585">  7  8 -1 -1</clus>
<clus scale="   35.389">  2  5  1 -1</clus>
</clustering>
</event>
<event>
 9    1  0.1487426E-004  0.1098296E+03  0.7546771E-02  0.1265225E+00
         21   -1    0    0  501  502  0.00000000000E+00  0.00000000000E+00  0.40219062276E+03  0.40219062276E+03  0.00000000000E+00 0.  1.
         -2   -1    0    0    0  501 -0.00000000000E+00 -0.00000000000E+00 -0.10919284882E+03  0.10919284882E+03  0.00000000000E+00 0.  1.
         23    2    1    2    0    0 -0.36544005119E+02 -0.50889354814E+02 -0.62346991265E+02  0.12797723617E+03  0.92551795843E+02 0.  0.
        -24    2    1    2    0    0  0.12228292008E+02  0.42157295723E+02  0.14955289134E+03  0.17599891127E+03  0.81748276747E+02 0.  0.
         11    1    4    4    0    0  0.21757036147E+02  0.71848772818E+01  0.13501416137E+03  0.13694456854E+03  0.00000000000E+00 0. -1.
        -12    1    4    4    0    0 -0.95287441383E+01  0.34972418441E+02  0.14538729972E+02  0.39054342725E+02  0.00000000000E+00 0.  1.
        -11    1    3    3    0    0  0.18240163324E+02  0.10203168809E+02 -0.36295138062E+02  0.41882517340E+02  0.00000000000E+00 0.  1.
         11    1    3    3    0    0 -0.54784168443E+02 -0.61092523623E+02 -0.26051853203E+02  0.86094718827E+02  0.00000000000E+00 0. -1.
         -1    1    1    2    0  502  0.24315713110E+02  0.87320590914E+01  0.20579187387E+03  0.20740732415E+03  0.00000000000E+00 0.  1.
<scales pt_clust_5="13000.00000" pt_clust_6="13000.00000" pt_clust_7="13000.00000" pt_clust_8="13000.00000" pt_clust_9="25.83607"></scales>
<clustering>
<clus scale="   25.836">  1  9  2 -1</clus>
<clus scale="   81.748">  5  6 -1 -1</clus>
<clus scale="   92.552">  7  8 -1 -1</clus>
<clus scale="  100.893">  1  5  2 -1</clus>
<clus scale="   25.836">  1  5  2 -1</clus>
</clustering>
</event>
<event>
 9    1  0.1487426E-004  0.9270520E+02  0.7546771E-02  0.1304991E+00
          1   -1    0    0  502    0 -0.00000000000E+00  0.00000000000E+00  0.44507346361E+02  0.44507346361E+02  0.00000000000E+00 0. -1.
         21   -1    0    0  501  502  0.00000000000E+00 -0.00000000000E+00 -0.37492646532E+03  0.37492646532E+03  0.00000000000E+00 0.  1.
        -24    2    1    2    0    0 -0.96335594523E+01 -0.58835791027E+01 -0.11523198770E+02  0.80349921208E+02  0.78714063276E+02 0.  0.
         23    2    1    2    0    0 -0.11110612279E+02  0.20106455341E+01 -0.27664187763E+03  0.29185334540E+03  0.92304703902E+02 0.  0.
         13    1    3    3    0    0 -0.11332959517E+02  0.35645990324E+02 -0.10176348975E+02  0.38763780467E+02  0.00000000000E+00 0. -1.
        -14    1    3    3    0    0  0.16994000646E+01 -0.41529569427E+02 -0.13468497945E+01  0.41586140741E+02  0.00000000000E+00 0.  1.
        -11    1    4    4    0    0 -0.32362585861E+02  0.26541533677E+02 -0.23677292007E+03  0.24044376817E+03  0.00000000000E+00 0.  1.
         11    1    4    4    0    0  0.21251973581E+02 -0.24530888143E+02 -0.39868957563E+02  0.51409577234E+02  0.00000000000E+00 0. -1.
          2    1    1    2  501    0  0.20744171731E+02  0.38729335686E+01 -0.42254042562E+02  0.47230545075E+02  0.00000000000E+00 0. -1.
<scales pt_clust_5="13000.00000" pt_clust_6="13000.00000" pt_clust_7="13000.00000" pt_clust_8="13000.00000" pt_clust_9="21.10261"></scales>
<clustering>
<clus scale="   21.103">  2  9  1 -1</clus>
<clus scale="   78.714">  5  6 -1 -1</clus>
<clus scale="   79.183">  1  5  2 -1</clus>
<clus scale="   92.305">  7  8 -1 -1</clus>
<clus scale="   21.103">  2  5  1 -1</clus>
</clustering>
</event>
<event>
 9    1  0.1487426E-004  0.1067199E+03  0.7546771E-02  0.1271725E+00
         21   -1    0    0  501  502  0.00000000000E+00  0.00000000000E+00  0.84409809056E+02  0.84409809056E+02  0.00000000000E+00 0.  1.
          1   -1    0    0  502    0 -0.00000000000E+00 -0.00000000000E+00 -0.58078078940E+03  0.58078078940E+03  0.00000000000E+00 0. -1.
        -24    2    1    2    0    0  0.15768120033E+02 -0.50784874187E+02 -0.23161134227E+03  0.25130051992E+03  0.81733716343E+02 0.  0.
         23    2    1    2    0    0  0.29155112390E+02  0.53394701432E+02  0.30412902756E+02  0.11530719746E+03  0.93111709326E+02 0.  0.
         13    1    3    3    0    0  0.14777506972E+02 -0.51251252103E+02 -0.62419661521E+02  0.82105296411E+02  0.00000000000E+00 0. -1.
        -14    1    3    3    0    0  0.99061306037E+00  0.46637791582E+00 -0.16919168075E+03  0.16919522350E+03  0.00000000000E+00 0.  1.
        -13    1    4    4    0    0  0.23343803268E+02 -0.15538812342E+02 -0.15729070859E+02  0.32152628354E+02  0.00000000000E+00 0. -1.
         13    1    4    4    0    0  0.58113091220E+01  0.68933513773E+02  0.46141973615E+02  0.83154569111E+02  0.00000000000E+00 0.  1.
          2    1    1    2  501    0 -0.44923232422E+02 -0.26098272444E+01 -0.29517254083E+03  0.29858288107E+03  0.00000000000E+00 0. -1.
<scales pt_clust_5="13000.00000" pt_clust_6="13000.00000" pt_clust_7="13000.00000" pt_clust_8="13000.00000" pt_clust_9="44.99900"></scales>
<clustering>
<clus scale="   44.999">  1  9  2 -1</clus>
<clus scale="   81.734">  5  6 -1 -1</clus>
<clus scale="   93.112">  7  8 -1 -1</clus>
<clus scale="   96.952">  2  5  1 -1</clus>
<clus scale="   44.999">  1  5  2 -1</clus>
</clustering>
</event>
<event>
 9    1  0.1487426E-004  0.9087347E+02  0.7546771E-02  0.1305428E+00
          1   -1    0    0  502    0 -0.00000000000E+00  0.00000000000E+00  0.22441760826E+03  0.22441760826E+03  0.00000000000E+00 0. -1.
         21   -1    0    0  501  502  0.00000000000E+00 -0.00000000000E+00 -0.10343776584E+03  0.10343776584E+03  0.00000000000E+00 0. -1.
        -24    2    1    2    0    0 -0.30558600478E+02  0.31686814319E+02  0.89778670813E+02  0.12823838985E+03  0.80293166792E+02 0.  0.
         23    2    1    2    0    0 -0.13011931335E+02  0.46569908357E+02 -0.10179669324E+02  0.10095148936E+03  0.88031305876E+02 0.  0.
         11    1    3    3    0    0 -0.32213466952E+02  0.57357029250E+02  0.62402856019E+02  0.90673329578E+02  0.00000000000E+00 0. -1.
        -12    1    3    3    0    0  0.16548664740E+01 -0.25670214931E+02  0.27375814794E+02  0.37565060272E+02  0.00000000000E+00 0.  1.
        -11    1    4    4    0    0 -0.38573080367E+02 -0.34778423402E+01  0.11984215790E+02  0.40541328844E+02  0.00000000000E+00 0.  1.
         11    1    4    4    0    0  0.25561149032E+02  0.50047750697E+02 -0.22163885114E+02  0.60410160512E+02  0.00000000000E+00 0. -1.
          2    1    1    2  501    0  0.43570531813E+02 -0.78256722676E+02  0.41380840934E+02  0.98665494895E+02  0.00000000000E+00 0. -1.
<scales pt_clust_5="13000.00000" pt_clust_6="13000.00000" pt_clust_7="13000.00000" pt_clust_8="13000.00000" pt_clust_9="89.56849"></scales>
<clustering>
<clus scale="   80.293">  5  6 -1 -1</clus>
<clus scale="   88.031">  7  8 -1 -1</clus>
<clus scale="   89.568">  2  9  1 -1</clus>
<clus scale="   83.399">  1  5  2 -1</clus>
<clus scale="   89.568">  2  5  1 -1</clus>
</clustering>
</event>
<event>
 9    1  0.1487426E-004  0.1178773E+03  0.7546771E-02  0.1249009E+00
          3   -1    0    0  502    0 -0.00000000000E+00  0.00000000000E+00  0.75341827979E+03  0.75341827979E+03  0.00000000000E+00 0. -1.
         21   -1    0    0  501  502  0.00000000000E+00 -0.00000000000E+00 -0.91764119177E+02  0.91764119177E+02  0.00000000000E+00 0.  1.
        -24    2    1    2    0    0 -0.23695075310E+02 -0.89975499116E+02  0.71167087427E+02  0.13304413847E+03  0.63078850755E+02 0.  0.
         23    2    1    2    0    0  0.72155019368E+02 -0.11714913521E+02  0.74368156443E+01  0.11830586915E+03  0.92722092453E+02 0.  0.
         13    1    3    3    0    0 -0.38815447399E+02 -0.88062072727E+02  0.55083149826E+02  0.11088607218E+03  0.00000000000E+00 0. -1.
        -14    1    3    3    0    0  0.15120372089E+02 -0.19134263896E+01  0.16083937601E+02  0.22158066283E+02  0.00000000000E+00 0.  1.
        -11    1    4    4    0    0  0.64669494849E+02 -0.47379571705E+02 -0.35409885535E+01  0.80246532504E+02  0.00000000000E+00 0.  1.
         11    1    4    4    0    0  0.74855245193E+01  0.35664658184E+02  0.10977804198E+02  0.38059336643E+02  0.00000000000E+00 0. -1.
          4    1    1    2  501    0 -0.48459944058E+02  0.10169041264E+03  0.58305025754E+03  0.59383239136E+03  0.00000000000E+00 0. -1.
<scales pt_clust_5="13000.00000" pt_clust_6="13000.00000" pt_clust_7="13000.00000" pt_clust_8="13000.00000" pt_clust_9="72.78513"></scales>
<clustering>
<clus scale="   63.079">  5  6 -1 -1</clus>
<clus scale="   92.722">  7  8 -1 -1</clus>
<clus scale="  112.410">  1  5  2 -1</clus>
<clus scale="   72.785">  2  9  1 -1</clus>
<clus scale="   72.785">  2  5  1 -1</clus>
</clustering>
</event>
<event>
 9    1  0.1487426E-004  0.2387953E+03  0.7546771E-02  0.1145782E+00
         -2   -1    0    0    0  501 -0.00000000000E+00  0.00000000000E+00  0.65306334095E+03  0.65306334095E+03  0.00000000000E+00 0.  1.
         21   -1    0    0  501  502  0.00000000000E+00 -0.00000000000E+00 -0.68795362138E+03  0.68795362138E+03  0.00000000000E+00 0.  1.
         23    2    1    2    0    0  0.61863158182E+02  0.66346315272E+02 -0.56955429302E+03  0.58400231419E+03  0.91857097697E+02 0.  0.
        -24    2    1    2    0    0 -0.22759147372E+03 -0.18579343343E+03  0.43386751682E+03  0.52921337033E+03  0.74220552208E+02 0.  0.
         11    1    4    4    0    0 -0.12288625505E+03 -0.62203738367E+02  0.16086034259E+03  0.21176965450E+03  0.00000000000E+00 0. -1.
        -12    1    4    4    0    0 -0.10470521867E+03 -0.12358969506E+03  0.27300717423E+03  0.31744371583E+03  0.00000000000E+00 0.  1.
        -11    1    3    3    0    0  0.13148187791E+02  0.77851096433E+02 -0.35913870291E+03  0.36771493849E+03  0.00000000000E+00 0.  1.
         11    1    3    3    0    0  0.48714970391E+02 -0.11504781161E+02 -0.21041559010E+03  0.21628737570E+03  0.00000000000E+00 0. -1.
         -1    1    1    2    0  502  0.16572831554E+03  0.11944711815E+03  0.10079649577E+03  0.22780127780E+03  0.00000000000E+00 0.  1.
<scales pt_clust_5="13000.00000" pt_clust_6="13000.00000" pt_clust_7="13000.00000" pt_clust_8="13000.00000" pt_clust_9="226.96812"></scales>
<clustering>
<clus scale="   74.221">  5  6 -1 -1</clus>
<clus scale="   91.857">  7  8 -1 -1</clus>
<clus scale="  129.099">  1  7  2 -1</clus>
<clus scale="  226.968">  2  9  1 -1</clus>
<clus scale="  226.968">  2  5  1 -1</clus>
</clustering>
</event>
<event>
 9    1  0.1487426E-004  0.1719432E+03  0.7546771E-02  0.1177389E+00
         21   -1    0    0  501  502  0.00000000000E+00  0.00000000000E+00  0.47337624277E+02  0.47337624277E+02  0.00000000000E+00 0. -1.
          1   -1    0    0  502    0 -0.00000000000E+00 -0.00000000000E+00 -0.11720516383E+04  0.11720516383E+04  0.00000000000E+00 0. -1.
        -24    2    1    2    0    0 -0.14535008319E+03  0.94379031525E+02 -0.48219497183E+03  0.51860109157E+03  0.80006581223E+02 0.  0.
         23    2    1    2    0    0  0.11963569184E+03 -0.47924898547E+01 -0.21118722685E+03  0.25950128780E+03  0.91679915267E+02 0.  0.
         11    1    3    3    0    0 -0.13364026187E+03  0.46533957012E+02 -0.36534289151E+03  0.39179147148E+03  0.00000000000E+00 0. -1.
        -12    1    3    3    0    0 -0.11709821315E+02  0.47845074513E+02 -0.11685208032E+03  0.12680962008E+03  0.00000000000E+00 0.  1.
        -11    1    4    4    0    0  0.75558583863E+02  0.30514599538E+02 -0.17327967012E+03  0.19148390130E+03  0.00000000000E+00 0. -1.
         11    1    4    4    0    0  0.44077107978E+02 -0.35307089392E+02 -0.37907556735E+02  0.68017386503E+02  0.00000000000E+00 0.  1.
          2    1    1    2  501    0  0.25714391347E+02 -0.89586541670E+02 -0.43133181536E+03  0.44128688323E+03  0.00000000000E+00 0. -1.
<scales pt_clust_5="13000.00000" pt_clust_6="13000.00000" pt_clust_7="13000.00000" pt_clust_8="13000.00000" pt_clust_9="93.20401"></scales>
<clustering>
<clus scale="   80.007">  5  6 -1 -1</clus>
<clus scale="   91.680">  7  8 -1 -1</clus>
<clus scale="   93.204">  1  9  2 -1</clus>
<clus scale="  166.013">  2  5  1 -1</clus>
<clus scale="   93.204">  1  5  2 -1</clus>
</clustering>
</event>
<event>
 9    1  0.1487426E-004  0.2196054E+03  0.7546771E-02  0.1153803E+00
         -2   -1    0    0    0  501 -0.00000000000E+00  0.00000000000E+00  0.41784093218E+03  0.41784093218E+03  0.00000000000E+00 0.  1.
         21   -1    0    0  501  502  0.00000000000E+00 -0.00000000000E+00 -0.22726353990E+03  0.22726353990E+03  0.00000000000E+00 0. -1.
         23    2    1    2    0    0 -0.93586588482E+02 -0.43709970903E+02  0.20146464667E+02  0.13871877785E+03  0.90377033531E+02 0.  0.
        -24    2    1    2    0    0  0.91939286958E+02  0.20751265073E+03 -0.35067253733E+02  0.24358627632E+03  0.81180225611E+02 0.  0.
         13    1    4    4    0    0  0.75891503728E+02  0.21131171362E+03 -0.33650802998E+02  0.22703422031E+03  0.00000000000E+00 0. -1.
        -14    1    4    4    0    0  0.16047783230E+02 -0.37990628922E+01 -0.14164507342E+01  0.16552056010E+02  0.00000000000E+00 0.  1.
        -13    1    3    3    0    0 -0.89092807243E+02 -0.64639708788E+02  0.11183030284E+01  0.11007756745E+03  0.00000000000E+00 0.  1.
         13    1    3    3    0    0 -0.44937812388E+01  0.20929737884E+02  0.19028161639E+02  0.28641210398E+02  0.00000000000E+00 0. -1.
         -1    1    1    2    0  502  0.16473015235E+01 -0.16380267982E+03  0.20549818134E+03  0.26279941791E+03  0.00000000000E+00 0.  1.
<scales pt_clust_5="13000.00000" pt_clust_6="13000.00000" pt_clust_7="13000.00000" pt_clust_8="13000.00000" pt_clust_9="204.04990"></scales>
<clustering>
<clus scale="   81.180">  5  6 -1 -1</clus>
<clus scale="   90.377">  7  8 -1 -1</clus>
<clus scale="  137.248">  1  7  2 -1</clus>
<clus scale="  204.050">  2  9  1 -1</clus>
<clus scale="  204.050">  2  5  1 -1</clus>
</clustering>
</event>
<event>
 9    1  0.1487426E-004  0.1312989E+03  0.7546771E-02  0.1241739E+00
         21   -1    0    0  501  502  0.00000000000E+00  0.00000000000E+00  0.82358447766E+02  0.82358447766E+02  0.00000000000E+00 0.  1.
          1   -1    0    0  502    0 -0.00000000000E+00 -0.00000000000E+00 -0.46212199257E+03  0.46212199257E+03  0.00000000000E+00 0. -1.
         23    2    1    2    0    0  0.18568295833E+02 -0.16207478907E+02 -0.16706762396E+03  0.19177526372E+03  0.90877372420E+02 0.  0.
        -24    2    1    2    0    0  0.96842891455E+02  0.26056025743E+02 -0.22796464800E+02  0.13026745627E+03  0.79952918973E+02 0.  0.
         11    1    4    4    0    0  0.48627744683E+01  0.20324589360E+02 -0.31388744007E+02  0.37709266216E+02  0.00000000000E+00 0. -1.
        -12    1    4    4    0    0  0.91980116986E+02  0.57314363838E+01  0.85922792069E+01  0.92558190053E+02  0.00000000000E+00 0.  1.
        -13    1    3    3    0    0 -0.70108353846E+01  0.34916480366E+02 -0.48766540230E+02  0.60386156195E+02  0.00000000000E+00 0.  1.
         13    1    3    3    0    0  0.25579131218E+02 -0.51123959273E+02 -0.11830108373E+03  0.13138910753E+03  0.00000000000E+00 0. -1.
          2    1    1    2  501    0 -0.11541118729E+03 -0.98485468363E+01 -0.18989945604E+03  0.22243772034E+03  0.00000000000E+00 0. -1.
<scales pt_clust_5="13000.00000" pt_clust_6="13000.00000" pt_clust_7="13000.00000" pt_clust_8="13000.00000" pt_clust_9="104.14872"></scales>
<clustering>
<clus scale="   79.953">  5  6 -1 -1</clus>
<clus scale="   90.877">  7  8 -1 -1</clus>
<clus scale="   94.160">  2  7  1 -1</clus>
<clus scale="  104.149">  1  9  2 -1</clus>
<clus scale="  104.149">  1  5  2 -1</clus>
</clustering>
</event>
<event>
 9    1  0.1487426E-004  0.1006694E+03  0.7546771E-02  0.1283437E+00
          1   -1    0    0  502    0 -0.00000000000E+00  0.00000000000E+00  0.63289242796E+03  0.63289242796E+03  0.00000000000E+00 0. -1.
         21   -1    0    0  501  502  0.00000000000E+00 -0.00000000000E+00 -0.39436812877E+02  0.39436812877E+02  0.00000000000E+00 0. -1.
        -24    2    1    2    0    0  0.12841735377E+02  0.40488109885E+02  0.33188311661E+03  0.34393455430E+03  0.79626486436E+02 0.  0.
         23    2    1    2    0    0  0.31458489726E+02 -0.75070663882E+02  0.98156802770E+02  0.15558510177E+03  0.89144404261E+02 0.  0.
         11    1    3    3    0    0  0.12755619106E+02  0.57750253389E+02  0.15006485633E+03  0.16129866302E+03  0.00000000000E+00 0. -1.
        -12    1    3    3    0    0  0.86116271212E-01 -0.17262143505E+02  0.18181826028E+03  0.18263589129E+03  0.00000000000E+00 0.  1.
        -13    1    4    4    0    0 -0.84761186817E+01 -0.79131284548E+02  0.74379749804E+02  0.10893095044E+03  0.00000000000E+00 0.  1.
         13    1    4    4    0    0  0.39934608408E+02  0.40606206656E+01  0.23777052967E+02  0.46654151333E+02  0.00000000000E+00 0. -1.
          2    1    1    2  501    0 -0.44300225103E+02  0.34582553998E+02  0.16341569570E+03  0.17280958476E+03  0.00000000000E+00 0. -1.
<scales pt_clust_5="13000.00000" pt_clust_6="13000.00000" pt_clust_7="13000.00000" pt_clust_8="13000.00000" pt_clust_9="56.20023"></scales>
<clustering>
<clus scale="   56.200">  2  9  1 -1</clus>
<clus scale="   79.626">  5  6 -1 -1</clus>
<clus scale="   89.144">  7  8 -1 -1</clus>
<clus scale="   92.347">  1  5  2 -1</clus>
<clus scale="   56.200">  2  5  1 -1</clus>
</clustering>
</event>
<event>
 9    1  0.1487426E-004  0.9219311E+02  0.7546771E-02  0.1304201E+00
          3   -1    0    0  502    0 -0.00000000000E+00  0.00000000000E+00  0.16473316455E+03  0.16473316455E+03  0.00000000000E+00 0. -1.
         21   -1    0    0  501  502  0.00000000000E+00 -0.00000000000E+00 -0.17883080902E+03  0.17883080902E+03  0.00000000000E+00 0.  1.
         23    2    1    2    0    0 -0.35630427655E+01  0.29188661052E+02  0.10121348190E+03  0.13876710470E+03  0.90263321563E+02 0.  0.
        -24    2    1    2    0    0  0.32511171622E+02  0.26914085760E+02 -0.22890294701E+02  0.92872240257E+02  0.79498069953E+02 0.  0.
         13    1    4    4    0    0  0.53789568665E+02  0.36963770336E+02 -0.23401448628E+02  0.69334448960E+02  0.00000000000E+00 0. -1.
        -14    1    4    4    0    0 -0.21278397043E+02 -0.10049684576E+02  0.51115392657E+00  0.23537791297E+02  0.00000000000E+00 0.  1.
        -13    1    3    3    0    0 -0.11599152327E+02 -0.20413653255E+02 -0.24106573924E+01  0.23602305883E+02  0.00000000000E+00 0.  1.
         13    1    3    3    0    0  0.80361095616E+01  0.49602314307E+02  0.10362413929E+03  0.11516479881E+03  0.00000000000E+00 0. -1.
          4    1    1    2  501    0 -0.28948128857E+02 -0.56102746812E+02 -0.92420831666E+02  0.11192462861E+03  0.00000000000E+00 0. -1.
<scales pt_clust_5="13000.00000" pt_clust_6="13000.00000" pt_clust_7="13000.00000" pt_clust_8="13000.00000" pt_clust_9="63.13091"></scales>
<clustering>
<clus scale="   63.131">  2  9  1 -1</clus>
<clus scale="   79.498">  5  6 -1 -1</clus>
<clus scale="   81.683">  2  5  1 -1</clus>
<clus scale="   90.263">  7  8 -1 -1</clus>
<clus scale="   63.131">  2  5  1 -1</clus>
</clustering>
</event>
<event>
 9    1  0.1487426E-004  0.1515365E+03  0.7546771E-02  0.1200837E+00
         -4   -1    0    0    0  501 -0.00000000000E+00  0.00000000000E+00  0.22111187167E+03  0.22111187167E+03  0.00000000000E+00 0.  1.
         21   -1    0    0  501  502  0.00000000000E+00 -0.00000000000E+00 -0.23094311251E+03  0.23094311251E+03  0.00000000000E+00 0.  1.
         23    2    1    2    0    0  0.13166094386E+03  0.43916615963E+02  0.68764741342E+02  0.17911002330E+03  0.89936296902E+02 0.  0.
        -24    2    1    2    0    0 -0.10901432607E+03  0.56266242756E+02 -0.22417804118E+01  0.14496278005E+03  0.77195651823E+02 0.  0.
         11    1    4    4    0    0 -0.40695070918E+02  0.45046646793E+02 -0.33121219582E+02  0.69154207182E+02  0.00000000000E+00 0. -1.
        -12    1    4    4    0    0 -0.68319255148E+02  0.11219595963E+02  0.30879439171E+02  0.75808572873E+02  0.00000000000E+00 0.  1.
        -13    1    3    3    0    0  0.11080207378E+03  0.69216168965E+02  0.65539225736E+02  0.14616212816E+03  0.00000000000E+00 0.  1.
         13    1    3    3    0    0  0.20858870083E+02 -0.25299553002E+02  0.32255156063E+01  0.32947895140E+02  0.00000000000E+00 0. -1.
         -3    1    1    2    0  502 -0.22646617793E+02 -0.10018285872E+03 -0.76354201777E+02  0.12798218082E+03  0.00000000000E+00 0.  1.
<scales pt_clust_5="13000.00000" pt_clust_6="13000.00000" pt_clust_7="13000.00000" pt_clust_8="13000.00000" pt_clust_9="102.71063"></scales>
<clustering>
<clus scale="   77.196">  5  6 -1 -1</clus>
<clus scale="   89.936">  7  8 -1 -1</clus>
<clus scale="  102.711">  2  9  1 -1</clus>
<clus scale="  144.340">  2  5  1 -1</clus>
<clus scale="  102.711">  2  5  1 -1</clus>
</clustering>
</event>
<event>
 9    1  0.1487426E-004  0.1364105E+03  0.7546771E-02  0.1222990E+00
          1   -1    0    0  502    0 -0.00000000000E+00  0.00000000000E+00  0.27178841755E+03  0.27178841755E+03  0.00000000000E+00 0. -1.
         21   -1    0    0  501  502  0.00000000000E+00 -0.00000000000E+00 -0.19766589226E+03  0.19766589226E+03  0.00000000000E+00 0.  1.
        -24    2    1    2    0    0  0.77308968950E+02  0.56139945375E+02  0.17433736367E+03  0.21207982492E+03  0.73864508538E+02 0.  0.
         23    2    1    2    0    0 -0.80705382763E+02 -0.78068283448E+02  0.83079931895E+01  0.14660629177E+03  0.93895507599E+02 0.  0.
         13    1    3    3    0    0  0.59401168461E+02  0.86237401328E+01  0.13534309385E+03  0.14805614058E+03  0.00000000000E+00 0. -1.
        -14    1    3    3    0    0  0.17907800489E+02  0.47516205242E+02  0.38994269816E+02  0.64023684347E+02  0.00000000000E+00 0.  1.
        -11    1    4    4    0    0 -0.29593552199E+02 -0.67123803469E+01  0.42658949604E+02  0.52350934690E+02  0.00000000000E+00 0. -1.
         11    1    4    4    0    0 -0.51111830565E+02 -0.71355903101E+02 -0.34350956414E+02  0.94255357076E+02  0.00000000000E+00 0.  1.
          2    1    1    2  501    0  0.33964138131E+01  0.21928338073E+02 -0.10852283156E+03  0.11076819312E+03  0.00000000000E+00 0. -1.
<scales pt_clust_5="13000.00000" pt_clust_6="13000.00000" pt_clust_7="13000.00000" pt_clust_8="13000.00000" pt_clust_9="22.18981"></scales>
<clustering>
<clus scale="   22.190">  2  9  1 -1</clus>
<clus scale="   73.865">  5  6 -1 -1</clus>
<clus scale="   93.896">  7  8 -1 -1</clus>
<clus scale="  123.480">  1  5  2 -1</clus>
<clus scale="   22.190">  2  5  1 -1</clus>
</clustering>
</event>
<event>
 9    1  0.1487426E-004  0.1323026E+03  0.7546771E-02  0.1225505E+00
         21   -1    0    0  501  502  0.00000000000E+00  0.00000000000E+00  0.47230662528E+02  0.47230662528E+02  0.00000000000E+00 0. -1.
         -2   -1    0    0    0  501 -0.00000000000E+00 -0.00000000000E+00 -0.66681973944E+03  0.66681973944E+03  0.00000000000E+00 0.  1.
        -24    2    1    2    0    0 -0.43378541530E+02 -0.81226832563E+02 -0.23932535751E+03  0.26940691416E+03  0.82607278461E+02 0.  0.
         23    2    1    2    0    0  0.76697717507E+02  0.83659904476E+02 -0.13571030309E+03  0.19781873063E+03  0.88506747408E+02 0.  0.
         11    1    3    3    0    0 -0.64800472603E+02 -0.75857314919E+02 -0.17558856667E+03  0.20195241573E+03  0.00000000000E+00 0. -1.
        -12    1    3    3    0    0  0.21421931073E+02 -0.53695176441E+01 -0.63736790842E+02  0.67454498423E+02  0.00000000000E+00 0.  1.
        -11    1    4    4    0    0 -0.19024864748E+02  0.16751628808E+02 -0.37289711661E+02  0.45089745422E+02  0.00000000000E+00 0.  1.
         11    1    4    4    0    0  0.95722582255E+02  0.66908275668E+02 -0.98420591428E+02  0.15272898521E+03  0.00000000000E+00 0. -1.
         -1    1    1    2    0  502 -0.33319175977E+02 -0.24330719128E+01 -0.24455341631E+03  0.24682475718E+03  0.00000000000E+00 0.  1.
<scales pt_clust_5="13000.00000" pt_clust_6="13000.00000" pt_clust_7="13000.00000" pt_clust_8="13000.00000" pt_clust_9="33.40791"></scales>
<clustering>
<clus scale="   33.408">  1  9  2 -1</clus>
<clus scale="   82.607">  5  6 -1 -1</clus>
<clus scale="   88.507">  7  8 -1 -1</clus>
<clus scale="  128.431">  2  5  1 -1</clus>
<clus scale="   33.408">  1  5  2 -1</clus>
</clustering>
</event>
<event>
 9    1  0.1487426E-004  0.1056260E+03  0.7546771E-02  0.1279138E+00
         -2   -1    0    0    0  501 -0.00000000000E+00  0.00000000000E+00  0.19587527716E+03  0.19587527716E+03  0.00000000000E+00 0.  1.
         21   -1    0    0  501  502  0.00000000000E+00 -0.00000000000E+00 -0.68495602815E+02  0.68495602815E+02  0.00000000000E+00 0.  1.
         23    2    1    2    0    0  0.14661773510E+02  0.61926229923E+02  0.10223548383E+03  0.15220348594E+03  0.93080510442E+02 0.  0.
        -24    2    1    2    0    0 -0.35430237597E+01 -0.33490516208E+02  0.21500061715E+02  0.81418473969E+02  0.70940450777E+02 0.  0.
         13    1    4    4    0    0  0.21523187250E+02 -0.18718872422E+02 -0.16965667890E+02  0.33188517006E+02  0.00000000000E+00 0. -1.
        -14    1    4    4    0    0 -0.25066211010E+02 -0.14771643786E+02  0.38465729605E+02  0.48229956962E+02  0.00000000000E+00 0.  1.
        -13    1    3    3    0    0  0.35776240463E+02  0.77786172869E+02  0.85139815956E+02  0.12074525387E+03  0.00000000000E+00 0.  1.
         13    1    3    3    0    0 -0.21114466953E+02 -0.15859942946E+02  0.17095667870E+02  0.31458232069E+02  0.00000000000E+00 0. -1.
         -1    1    1    2    0  502 -0.11118749750E+02 -0.28435713715E+02  0.36441288022E+01  0.30748920066E+02  0.00000000000E+00 0.  1.
<scales pt_clust_5="13000.00000" pt_clust_6="13000.00000" pt_clust_7="13000.00000" pt_clust_8="13000.00000" pt_clust_9="30.53222"></scales>
<clustering>
<clus scale="   30.532">  2  9  1 -1</clus>
<clus scale="   70.940">  5  6 -1 -1</clus>
<clus scale="   86.749">  2  5  1 -1</clus>
<clus scale="   93.081">  7  8 -1 -1</clus>
<clus scale="   30.532">  2  5  1 -1</clus>
</clustering>
</event>
<event>
 9    1  0.1487426E-004  0.1850038E+03  0.7546771E-02  0.1189374E+00
         21   -1    0    0  501  502  0.00000000000E+00  0.00000000000E+00  0.13666108749E+03  0.13666108749E+03  0.00000000000E+00 0. -1.
          1   -1    0    0  502    0 -0.00000000000E+00 -0.00000000000E+00 -0.42342983307E+03  0.42342983307E+03  0.00000000000E+00 0. -1.
        -24    2    1    2    0    0  0.50133376527E+02 -0.37644472618E+02 -0.10462219629E+03  0.14608760221E+03  0.80407224816E+02 0.  0.
         23    2    1    2    0    0  0.71415907945E+01 -0.14553053216E+03 -0.42522799031E+02  0.17666748900E+03  0.90405061360E+02 0.  0.
         13    1    3    3    0    0  0.72337393305E+01 -0.26206700500E+02  0.51558474651E+01  0.27671300997E+02  0.00000000000E+00 0. -1.
        -14    1    3    3    0    0  0.42899637197E+02 -0.11437772117E+02 -0.10977804375E+03  0.11841630121E+03  0.00000000000E+00 0.  1.
        -13    1    4    4    0    0  0.26783733220E+02 -0.19462254160E+02 -0.36002914509E+02  0.48911732287E+02  0.00000000000E+00 0.  1.
         13    1    4    4    0    0 -0.19642142425E+02 -0.12606827800E+03 -0.65198845219E+01  0.12775575671E+03  0.00000000000E+00 0. -1.
          2    1    1    2  501    0 -0.57274967322E+02  0.18317500478E+03 -0.13962375027E+03  0.23733582936E+03  0.00000000000E+00 0. -1.
<scales pt_clust_5="13000.00000" pt_clust_6="13000.00000" pt_clust_7="13000.00000" pt_clust_8="13000.00000" pt_clust_9="161.41053"></scales>
<clustering>
<clus scale="   80.407">  5  6 -1 -1</clus>
<clus scale="   90.405">  7  8 -1 -1</clus>
<clus scale="  101.960">  2  5  1 -1</clus>
<clus scale="  161.411">  1  9  2 -1</clus>
<clus scale="  161.411">  1  5  2 -1</clus>
</clustering>
</event>
<event>
 9    1  0.1487426E-004  0.9420847E+02  0.7546771E-02  0.1300307E+00
          3   -1    0    0  502    0 -0.00000000000E+00  0.00000000000E+00  0.24198205595E+03  0.24198205595E+03  0.00000000000E+00 0. -1.
         21   -1    0    0  501  502  0.00000000000E+00 -0.00000000000E+00 -0.91343477822E+02  0.91343477822E+02  0.00000000000E+00 0. -1.
        -24    2    1    2    0    0 -0.16672745531E+02 -0.19642647168E+01  0.12870018288E+03  0.15229299073E+03  0.79671696183E+02 0.  0.
         23    2    1    2    0    0  0.15562590512E+02 -0.61692229096E+02  0.32555816779E+02  0.11648712269E+03  0.91985016126E+02 0.  0.
         11    1    3    3    0    0 -0.21548420741E+02  0.27448544755E+02  0.21417622756E+02  0.40944738491E+02  0.00000000000E+00 0. -1.
        -12    1    3    3    0    0  0.48756752098E+01 -0.29412809472E+02  0.10728256013E+03  0.11134825224E+03  0.00000000000E+00 0.  1.
        -11    1    4    4    0    0 -0.32040801222E+02  0.36909193670E+00  0.74933582182E+00  0.32051687568E+02  0.00000000000E+00 0.  1.
         11    1    4    4    0    0  0.47603391734E+02 -0.62061321033E+02  0.31806480957E+02  0.84435435120E+02  0.00000000000E+00 0. -1.
          4    1    1    2  501    0  0.11101550187E+01  0.63656493813E+02 -0.10617421532E+02  0.64545420354E+02  0.00000000000E+00 0. -1.
<scales pt_clust_5="13000.00000" pt_clust_6="13000.00000" pt_clust_7="13000.00000" pt_clust_8="13000.00000" pt_clust_9="63.66617"></scales>
<clustering>
<clus scale="   63.666">  2  9  1 -1</clus>
<clus scale="   79.672">  5  6 -1 -1</clus>
<clus scale="   82.229">  1  5  2 -1</clus>
<clus scale="   91.985">  7  8 -1 -1</clus>
<clus scale="   63.666">  2  5  1 -1</clus>
</clustering>
</event>
<event>
 9    1  0.1487426E-004  0.1218608E+03  0.7546771E-02  0.1240337E+00
         21   -1    0    0  501  502  0.00000000000E+00  0.00000000000E+00  0.14714182881E+03  0.14714182881E+03  0.00000000000E+00 0. -1.
         -2   -1    0    0    0  501 -0.00000000000E+00 -0.00000000000E+00 -0.18001096579E+03  0.18001096579E+03  0.00000000000E+00 0.  1.
         23    2    1    2    0    0  0.91116748094E+02 -0.48156393050E+02 -0.57619205412E+02  0.14408128711E+03  0.82572056332E+02 0.  0.
        -24    2    1    2    0    0 -0.71027647529E+02 -0.99249554391E+01  0.44113438606E+02  0.11863584107E+03  0.83576527006E+02 0.  0.
         13    1    4    4    0    0 -0.73983223183E+02 -0.33239786091E+02  0.17209965949E+02  0.82913108855E+02  0.00000000000E+00 0. -1.
        -14    1    4    4    0    0  0.29555756543E+01  0.23314830652E+02  0.26903472658E+02  0.35722732214E+02  0.00000000000E+00 0.  1.
        -13    1    3    3    0    0  0.10173183655E+03 -0.22367481782E+02 -0.46119409677E+02  0.11391519108E+03  0.00000000000E+00 0. -1.
         13    1    3    3    0    0 -0.10615088460E+02 -0.25788911268E+02 -0.11499795736E+02  0.30166096025E+02  0.00000000000E+00 0.  1.
         -1    1    1    2    0  502 -0.20089100565E+02  0.58081348489E+02 -0.19363370168E+02  0.64435666428E+02  0.00000000000E+00 0.  1.
<scales pt_clust_5="13000.00000" pt_clust_6="13000.00000" pt_clust_7="13000.00000" pt_clust_8="13000.00000" pt_clust_9="61.45746"></scales>
<clustering>
<clus scale="   61.457">  1  9  2 -1</clus>
<clus scale="   82.572">  7  8 -1 -1</clus>
<clus scale="   83.577">  5  6 -1 -1</clus>
<clus scale="  121.174">  2  7  1 -1</clus>
<clus scale="   61.457">  1  5  2 -1</clus>
</clustering>
</event>
<event>
 9    1  0.1487426E-004  0.1006979E+03  0.7546771E-02  0.1283532E+00
         21   -1    0    0  501  502  0.00000000000E+00  0.00000000000E+00  0.67020894081E+03  0.67020894081E+03  0.00000000000E+00 0. -1.
          3   -1    0    0  502    0 -0.00000000000E+00 -0.00000000000E+00 -0.26000855427E+02  0.26000855427E+02  0.00000000000E+00 0. -1.
        -24    2    1    2    0    0  0.40257149898E+02 -0.10016436809E+02  0.11817567702E+03  0.14832713007E+03  0.79463700852E+02 0.  0.
         23    2    1    2    0    0 -0.64864732571E+02 -0.22234566674E+02  0.38097715723E+03  0.39726166420E+03  0.89282842834E+02 0.  0.
         11    1    3    3    0    0 -0.63029975531E+01  0.28482441897E+02  0.40913830460E+02  0.50248570104E+02  0.00000000000E+00 0. -1.
        -12    1    3    3    0    0  0.46560147451E+02 -0.38498878706E+02  0.77261846557E+02  0.98078559970E+02  0.00000000000E+00 0.  1.
        -11    1    4    4    0    0  0.20073628267E+02 -0.17696679194E+02  0.72850116498E+02  0.77609680324E+02  0.00000000000E+00 0.  1.
         11    1    4    4    0    0 -0.84938360838E+02 -0.45378874795E+01  0.30812704073E+03  0.31965198387E+03  0.00000000000E+00 0. -1.
          4    1    1    2  501    0  0.24607582673E+02  0.32251003483E+02  0.14505525114E+03  0.15062100197E+03  0.00000000000E+00 0. -1.
<scales pt_clust_5="13000.00000" pt_clust_6="13000.00000" pt_clust_7="13000.00000" pt_clust_8="13000.00000" pt_clust_9="40.56674"></scales>
<clustering>
<clus scale="   40.567">  1  9  2 -1</clus>
<clus scale="   79.464">  5  6 -1 -1</clus>
<clus scale="   89.283">  7  8 -1 -1</clus>
<clus scale="   92.104">  2  5  1 -1</clus>
<clus scale="   40.567">  1  5  2 -1</clus>
</clustering>
</event>
<event>
 9    1  0.1487426E-004  0.1160836E+03  0.7546771E-02  0.1253186E+00
         21   -1    0    0  501  502  0.00000000000E+00  0.00000000000E+00  0.53247150211E+03  0.53247150211E+03  0.00000000000E+00 0. -1.
          1   -1    0    0  502    0 -0.00000000000E+00 -0.00000000000E+00 -0.39470921057E+02  0.39470921057E+02  0.00000000000E+00 0. -1.
         23    2    1    2    0    0 -0.71263903679E+02 -0.38438933894E+01  0.10501851275E+03  0.15615585903E+03  0.90897991206E+02 0.  0.
        -24    2    1    2    0    0  0.74424062551E+02 -0.24818955569E+02  0.35266588428E+03  0.37019294212E+03  0.80713485984E+02 0.  0.
         13    1    4    4    0    0  0.61750723574E+02  0.99167147425E+01  0.29596743958E+03  0.30250325351E+03  0.00000000000E+00 0. -1.
        -14    1    4    4    0    0  0.12673338977E+02 -0.34735670311E+02  0.56698444697E+02  0.67689688608E+02  0.00000000000E+00 0.  1.
        -11    1    3    3    0    0 -0.16068682473E+02  0.20734870508E+02 -0.84866928867E+01  0.27571024057E+02  0.00000000000E+00 0.  1.
         11    1    3    3    0    0 -0.55195221206E+02 -0.24578763897E+02  0.11350520563E+03  0.12858483497E+03  0.00000000000E+00 0. -1.
          2    1    1    2  501    0 -0.31601588720E+01  0.28662848958E+02  0.35316184031E+02  0.45593622021E+02  0.00000000000E+00 0. -1.
<scales pt_clust_5="13000.00000" pt_clust_6="13000.00000" pt_clust_7="13000.00000" pt_clust_8="13000.00000" pt_clust_9="28.83655"></scales>
<clustering>
<clus scale="   28.837">  1  9  2 -1</clus>
<clus scale="   80.713">  5  6 -1 -1</clus>
<clus scale="   90.898">  7  8 -1 -1</clus>
<clus scale="  108.294">  1  5  2 -1</clus>
<clus scale="   28.837">  1  5  2 -1</clus>
</clustering>
</event>
<event>
 9    1  0.1487426E-004  0.9695807E+02  0.7546771E-02  0.1292143E+00
         -2   -1    0    0    0  501 -0.00000000000E+00  0.00000000000E+00  0.17084984707E+03  0.17084984707E+03  0.00000000000E+00 0.  1.
         21   -1    0    0  501  502  0.00000000000E+00 -0.00000000000E+00 -0.22063602237E+03  0.22063602237E+03  0.00000000000E+00 0.  1.
        -24    2    1    2    0    0 -0.35579420464E+02 -0.16523448573E+02  0.12738047730E+03  0.15603828285E+03  0.81137169063E+02 0.  0.
         23    2    1    2    0    0 -0.23156738483E+02  0.12905131682E+01 -0.11652582814E+03  0.14966129234E+03  0.91007328500E+02 0.  0.
         13    1    3    3    0    0 -0.57782822417E+02 -0.26391176374E+02  0.74932527994E+02  0.98235596952E+02  0.00000000000E+00 0. -1.
        -14    1    3    3    0    0  0.22203401954E+02  0.98677278012E+01  0.52447949311E+02  0.57802685899E+02  0.00000000000E+00 0.  1.
        -11    1    4    4    0    0 -0.50889997975E+01 -0.31867809749E+02 -0.59499695199E+01  0.32815504787E+02  0.00000000000E+00 0. -1.
         11    1    4    4    0    0 -0.18067738686E+02  0.33158322917E+02 -0.11057585862E+03  0.11684578756E+03  0.00000000000E+00 0.  1.
         -1    1    1    2    0  502  0.58736158947E+02  0.15232935405E+02 -0.60640824468E+02  0.85786294250E+02  0.00000000000E+00 0.  1.
<scales pt_clust_5="13000.00000" pt_clust_6="13000.00000" pt_clust_7="13000.00000" pt_clust_8="13000.00000" pt_clust_9="60.67931"></scales>
<clustering>
<clus scale="   60.679">  2  9  1 -1</clus>
<clus scale="   81.137">  5  6 -1 -1</clus>
<clus scale="   87.760">  1  5  2 -1</clus>
<clus scale="   91.007">  7  8 -1 -1</clus>
<clus scale="   60.679">  2  5  1 -1</clus>
</clustering>
</event>
<event>
 9    1  0.1487426E-004  0.9967411E+02  0.7546771E-02  0.1284784E+00
         21   -1    0    0  501  502  0.00000000000E+00  0.00000000000E+00  0.24748898308E+03  0.24748898308E+03  0.00000000000E+00 0. -1.
         -4   -1    0    0    0  501 -0.00000000000E+00 -0.00000000000E+00 -0.10624337461E+03  0.10624337461E+03  0.00000000000E+00 0.  1.
         23    2    1    2    0    0 -0.55752838870E+02  0.24778215347E+02 -0.34227324921E+02  0.11231866805E+03  0.87872830975E+02 0.  0.
        -24    2    1    2    0    0 -0.14654227560E+02 -0.14762723597E+02  0.13850936052E+03  0.16126525985E+03  0.79930949507E+02 0.  0.
         13    1    4    4    0    0  0.21713441964E+02 -0.92993011936E+01  0.11548643853E+03  0.11787734324E+03  0.00000000000E+00 0. -1.
        -14    1    4    4    0    0 -0.36367669525E+02 -0.54634224034E+01  0.23022921995E+02  0.43387916615E+02  0.00000000000E+00 0.  1.
        -13    1    3    3    0    0 -0.65669407667E+02 -0.13084076213E+02 -0.28457029457E+02  0.72756214024E+02  0.00000000000E+00 0. -1.
         13    1    3    3    0    0  0.99165687969E+01  0.37862291559E+02 -0.57702954644E+01  0.39562454026E+02  0.00000000000E+00 0.  1.
         -3    1    1    2    0  502  0.70407066430E+02 -0.10015491750E+02  0.36963572868E+02  0.80148429788E+02  0.00000000000E+00 0.  1.
<scales pt_clust_5="13000.00000" pt_clust_6="13000.00000" pt_clust_7="13000.00000" pt_clust_8="13000.00000" pt_clust_9="71.11586"></scales>
<clustering>
<clus scale="   71.116">  1  9  2 -1</clus>
<clus scale="   79.931">  5  6 -1 -1</clus>
<clus scale="   87.873">  7  8 -1 -1</clus>
<clus scale="   92.748">  1  5  2 -1</clus>
<clus scale="   71.116">  1  5  2 -1</clus>
</clustering>
</event>
<event>
 9    1  0.1487426E-004  0.1034231E+03  0.7546771E-02  0.1275721E+00
          1   -1    0    0  502    0 -0.00000000000E+00  0.00000000000E+00  0.63363883405E+03  0.63363883405E+03  0.00000000000E+00 0. -1.
         21   -1    0    0  501  502  0.00000000000E+00 -0.00000000000E+00 -0.25296097432E+02  0.25296097432E+02  0.00000000000E+00 0.  1.
         23    2    1    2    0    0 -0.39008910864E+02 -0.26532407602E+02  0.37473952044E+03  0.38852194775E+03  0.91071026791E+02 0.  0.
        -24    2    1    2    0    0  0.56277649787E+02  0.93719368671E+01  0.14023809962E+03  0.17392601006E+03  0.85606806523E+02 0.  0.
         11    1    4    4    0    0  0.90290328179E+01  0.18624005740E+02  0.11987876483E+03  0.12165235420E+03  0.00000000000E+00 0. -1.
        -12    1    4    4    0    0  0.47248616970E+02 -0.92520688732E+01  0.20359334784E+02  0.52273655858E+02  0.00000000000E+00 0.  1.
        -13    1    3    3    0    0 -0.56515264175E+02  0.13877390145E+02  0.19767582039E+03  0.20606379354E+03  0.00000000000E+00 0.  1.
         13    1    3    3    0    0  0.17506353311E+02 -0.40409797747E+02  0.17706370005E+03  0.18245815420E+03  0.00000000000E+00 0. -1.
          2    1    1    2  501    0 -0.17268738924E+02  0.17160470735E+02  0.93365116561E+02  0.96486973682E+02  0.00000000000E+00 0. -1.
<scales pt_clust_5="13000.00000" pt_clust_6="13000.00000" pt_clust_7="13000.00000" pt_clust_8="13000.00000" pt_clust_9="24.34526"></scales>
<clustering>
<clus scale="   24.345">  2  9  1 -1</clus>
<clus scale="   85.607">  5  6 -1 -1</clus>
<clus scale="   91.071">  7  8 -1 -1</clus>
<clus scale="   98.645">  2  5  1 -1</clus>
<clus scale="   24.345">  2  5  1 -1</clus>
</clustering>
</event>
<event>
 9    1  0.1487426E-004  0.1419230E+03  0.7546771E-02  0.1217860E+00
          1   -1    0    0  502    0 -0.00000000000E+00  0.00000000000E+00  0.92584006824E+03  0.92584006824E+03  0.00000000000E+00 0. -1.
         21   -1    0    0  501  502  0.00000000000E+00 -0.00000000000E+00 -0.58187735480E+02  0.58187735480E+02  0.00000000000E+00 0. -1.
         23    2    1    2    0    0  0.16701709245E+02 -0.81913156969E+02  0.10224212657E+03  0.15925621681E+03  0.88996504264E+02 0.  0.
        -24    2    1    2    0    0 -0.11895405468E+03 -0.45055661494E+01  0.21479854052E+03  0.25811742057E+03  0.79472149477E+02 0.  0.
         13    1    4    4    0    0 -0.26470200733E+02  0.30843093187E+02  0.38853749631E+02  0.56227944872E+02  0.00000000000E+00 0. -1.
        -14    1    4    4    0    0 -0.92483853949E+02 -0.35348659336E+02  0.17594479089E+03  0.20188947570E+03  0.00000000000E+00 0.  1.
        -13    1    3    3    0    0 -0.92733593472E+01 -0.42877203771E+02 -0.30718124841E+01  0.43975968765E+02  0.00000000000E+00 0. -1.
         13    1    3    3    0    0  0.25975068592E+02 -0.39035953198E+02  0.10531393906E+03  0.11528024805E+03  0.00000000000E+00 0.  1.
          2    1    1    2  501    0  0.10225234544E+03  0.86418723119E+02  0.55061166567E+03  0.56665416633E+03  0.00000000000E+00 0. -1.
<scales pt_clust_5="13000.00000" pt_clust_6="13000.00000" pt_clust_7="13000.00000" pt_clust_8="13000.00000" pt_clust_9="117.58536"></scales>
<clustering>
<clus scale="   79.472">  5  6 -1 -1</clus>
<clus scale="   88.997">  7  8 -1 -1</clus>
<clus scale="  122.103">  1  7  2 -1</clus>
<clus scale="  117.585">  2  9  1 -1</clus>
<clus scale="  117.585">  2  5  1 -1</clus>
</clustering>
</event>
<event>
 9    1  0.1487426E-004  0.9835802E+02  0.7546771E-02  0.1290319E+00
         21   -1    0    0  501  502  0.00000000000E+00  0.00000000000E+00  0.18698613309E+03  0.18698613309E+03  0.00000000000E+00 0.  1.
         -2   -1    0    0    0  501 -0.00000000000E+00 -0.00000000000E+00 -0.18844949884E+03  0.18844949884E+03  0.00000000000E+00 0.  1.
        -24    2    1    2    0    0  0.31058299234E+02  0.17505134384E+02 -0.12721846548E+03  0.15386756451E+03  0.78864705460E+02 0.  0.
         23    2    1    2    0    0 -0.46738152904E+02  0.25844243184E+01  0.10009424557E+02  0.10305009620E+03  0.91257873971E+02 0.  0.
         11    1    3    3    0    0  0.22143964636E+02 -0.28081105218E+02 -0.32282515068E+02  0.48177426449E+02  0.00000000000E+00 0. -1.
        -12    1    3    3    0    0  0.89143345975E+01  0.45586239602E+02 -0.94935950411E+02  0.10569013806E+03  0.00000000000E+00 0.  1.
        -13    1    4    4    0    0  0.72117010510E+01 -0.24759791631E+02  0.29801371975E+02  0.39410375350E+02  0.00000000000E+00 0. -1.
         13    1    4    4    0    0 -0.53949853955E+02  0.27344215949E+02 -0.19791947418E+02  0.63639720853E+02  0.00000000000E+00 0.  1.
         -1    1    1    2    0  502  0.15679853670E+02 -0.20089558702E+02  0.11574567517E+03  0.11851797122E+03  0.00000000000E+00 0.  1.
<scales pt_clust_5="13000.00000" pt_clust_6="13000.00000" pt_clust_7="13000.00000" pt_clust_8="13000.00000" pt_clust_9="25.48427"></scales>
<clustering>
<clus scale="   25.484">  1  9  2 -1</clus>
<clus scale="   78.865">  5  6 -1 -1</clus>
<clus scale="   86.982">  2  5  1 -1</clus>
<clus scale="   91.258">  7  8 -1 -1</clus>
<clus scale="   25.484">  1  5  2 -1</clus>
</clustering>
</event>
<event>
 9    1  0.1487426E-004  0.9540612E+02  0.7546771E-02  0.1294691E+00
         21   -1    0    0  501  502  0.00000000000E+00  0.00000000000E+00  0.40601058027E+02  0.40601058027E+02  0.00000000000E+00 0.  1.
          1   -1    0    0  502    0 -0.00000000000E+00 -0.00000000000E+00 -0.38006678600E+03  0.38006678600E+03  0.00000000000E+00 0. -1.
         23    2    1    2    0    0 -0.17092957021E+02 -0.90898619525E+01 -0.24775234084E+03  0.26482974577E+03  0.91535660171E+02 0.  0.
        -24    2    1    2    0    0  0.45696082430E+02  0.14555850586E+02 -0.75949252446E+02  0.12272429815E+03  0.83623918076E+02 0.  0.
         11    1    4    4    0    0  0.16226769731E+02 -0.22212177814E+02  0.60361852652E+01  0.28162464944E+02  0.00000000000E+00 0. -1.
        -12    1    4    4    0    0  0.29469312698E+02  0.36768028399E+02 -0.81985437711E+02  0.94561833210E+02  0.00000000000E+00 0.  1.
        -11    1    3    3    0    0 -0.28623871320E+02 -0.46015505016E+02 -0.12849101086E+03  0.13945139865E+03  0.00000000000E+00 0. -1.
         11    1    3    3    0    0  0.11530914299E+02  0.36925643063E+02 -0.11926132998E+03  0.12537834712E+03  0.00000000000E+00 0.  1.
          2    1    1    2  501    0 -0.28603125408E+02 -0.54659886330E+01 -0.15764134685E+02  0.33113800103E+02  0.00000000000E+00 0. -1.
<scales pt_clust_5="13000.00000" pt_clust_6="13000.00000" pt_clust_7="13000.00000" pt_clust_8="13000.00000" pt_clust_9="29.12071"></scales>
<clustering>
<clus scale="   29.121">  1  9  2 -1</clus>
<clus scale="   83.624">  5  6 -1 -1</clus>
<clus scale="   87.844">  1  5  2 -1</clus>
<clus scale="   91.536">  7  8 -1 -1</clus>
<clus scale="   29.121">  1  5  2 -1</clus>
</clustering>
</event>
<event>
 9    1  0.1487426E-004  0.2553213E+03  0.7546771E-02  0.1135880E+00
         -2   -1    0    0    0  501 -0.00000000000E+00  0.00000000000E+00  0.24956248171E+03  0.24956248171E+03  0.00000000000E+00 0.  1.
         21   -1    0    0  501  502  0.00000000000E+00 -0.00000000000E+00 -0.42527149260E+03  0.42527149260E+03  0.00000000000E+00 0. -1.
         23    2    1    2    0    0 -0.52797059333E+02 -0.82494840290E+02 -0.10097900128E+02  0.13444498528E+03  0.91545389463E+02 0.  0.
        -24    2    1    2    0    0  0.26642516860E+03 -0.10856481602E+02 -0.61570268699E+02  0.28509320923E+03  0.79918748160E+02 0.  0.
         13    1    4    4    0    0  0.20247243397E+03  0.14708440927E+02 -0.72080061538E+02  0.21542274723E+03  0.00000000000E+00 0. -1.
        -14    1    4    4    0    0  0.63952734627E+02 -0.25564922528E+02  0.10509792839E+02  0.69670462003E+02  0.00000000000E+00 0.  1.
        -13    1    3    3    0    0 -0.68003098726E+02 -0.61423544210E+02 -0.35342927335E+02  0.98216066569E+02  0.00000000000E+00 0. -1.
         13    1    3    3    0    0  0.15206039392E+02 -0.21071296079E+02  0.25245027207E+02  0.36228918713E+02  0.00000000000E+00 0.  1.
         -1    1    1    2    0  502 -0.21362810926E+03  0.93351321892E+02 -0.10404084206E+03  0.25529577980E+03  0.00000000000E+00 0.  1.
<scales pt_clust_5="13000.00000" pt_clust_6="13000.00000" pt_clust_7="13000.00000" pt_clust_8="13000.00000" pt_clust_9="242.49114"></scales>
<clustering>
<clus scale="   79.919">  5  6 -1 -1</clus>
<clus scale="   91.545">  7  8 -1 -1</clus>
<clus scale="  134.065">  1  7  2 -1</clus>
<clus scale="  242.491">  2  9  1 -1</clus>
<clus scale="  242.491">  2  5  1 -1</clus>
</clustering>
</event>
<event>
 9    1  0.1487426E-004  0.3834054E+03  0.7546771E-02  0.1060621E+00
         21   -1    0    0  501  502  0.00000000000E+00  0.00000000000E+00  0.31896973565E+03  0.31896973565E+03  0.00000000000E+00 0. -1.
          1   -1    0    0  502    0 -0.00000000000E+00 -0.00000000000E+00 -0.98824925146E+03  0.98824925146E+03  0.00000000000E+00 0. -1.
         23    2    1    2    0    0 -0.14231447525E+03 -0.22545946918E+03 -0.33097518133E+03  0.43448575390E+03  0.90265816228E+02 0.  0.
        -24    2    1    2    0    0  0.45008873541E+03  0.12016162480E+03 -0.14593392153E+03  0.49481921252E+03  0.80812485430E+02 0.  0.
         13    1    4    4    0    0  0.32951528085E+03  0.12408310464E+03 -0.10499075315E+03  0.36742345518E+03  0.00000000000E+00 0. -1.
        -14    1    4    4    0    0  0.12057345456E+03 -0.39214798441E+01 -0.40943168380E+02  0.12739575733E+03  0.00000000000E+00 0.  1.
        -13    1    3    3    0    0 -0.24472328289E+02  0.22369176088E+01 -0.21925985607E+02  0.32933986961E+02  0.00000000000E+00 0.  1.
         13    1    3    3    0    0 -0.11784214696E+03 -0.22769638679E+03 -0.30904919572E+03  0.40155176694E+03  0.00000000000E+00 0. -1.
          2    1    1    2  501    0 -0.30777426017E+03  0.10529784439E+03 -0.19237041296E+03  0.37791402069E+03  0.00000000000E+00 0. -1.
<scales pt_clust_5="13000.00000" pt_clust_6="13000.00000" pt_clust_7="13000.00000" pt_clust_8="13000.00000" pt_clust_9="374.79197"></scales>
<clustering>
<clus scale="   80.812">  5  6 -1 -1</clus>
<clus scale="   90.266">  7  8 -1 -1</clus>
<clus scale="  281.484">  2  7  1 -1</clus>
<clus scale="  374.792">  1  9  2 -1</clus>
<clus scale="  374.792">  1  5  2 -1</clus>
</clustering>
</event>
<event>
 9    1  0.1487426E-004  0.1391814E+03  0.7546771E-02  0.1221633E+00
         21   -1    0    0  501  502  0.00000000000E+00  0.00000000000E+00  0.52309140484E+03  0.52309140484E+03  0.00000000000E+00 0. -1.
          1   -1    0    0  502    0 -0.00000000000E+00 -0.00000000000E+00 -0.16440681218E+03  0.16440681218E+03  0.00000000000E+00 0. -1.
        -24    2    1    2    0    0  0.92545403419E+02  0.64268367608E+02 -0.12048079955E+03  0.17489613229E+03  0.58120213890E+02 0.  0.
         23    2    1    2    0    0 -0.16591590547E+02 -0.26521437426E+02  0.24350848567E+03  0.26214651975E+03  0.91900749191E+02 0.  0.
         11    1    3    3    0    0  0.99119511116E+02  0.50804860793E+02 -0.11048833731E+03  0.15688685110E+03  0.00000000000E+00 0. -1.
        -12    1    3    3    0    0 -0.65741076974E+01  0.13463506815E+02 -0.99924622313E+01  0.18009281197E+02  0.00000000000E+00 0.  1.
        -11    1    4    4    0    0  0.29636174730E+02  0.37249876017E+00  0.30508333599E+02  0.42534692040E+02  0.00000000000E+00 0. -1.
         11    1    4    4    0    0 -0.46227765278E+02 -0.26893936186E+02  0.21300015207E+03  0.21961182771E+03  0.00000000000E+00 0.  1.
          2    1    1    2  501    0 -0.75953812872E+02 -0.37746930182E+02  0.23565690654E+03  0.25045556498E+03  0.00000000000E+00 0. -1.
<scales pt_clust_5="13000.00000" pt_clust_6="13000.00000" pt_clust_7="13000.00000" pt_clust_8="13000.00000" pt_clust_9="84.81635"></scales>
<clustering>
<clus scale="   58.120">  5  6 -1 -1</clus>
<clus scale="   84.816">  1  9  2 -1</clus>
<clus scale="   91.901">  7  8 -1 -1</clus>
<clus scale="  119.598">  2  5  1 -1</clus>
<clus scale="   84.816">  1  5  2 -1</clus>
</clustering>
</event>
<event>
 9    1  0.1487426E-004  0.3993041E+03  0.7546771E-02  0.1044214E+00
         21   -1    0    0  501  502  0.00000000000E+00  0.00000000000E+00  0.14432310904E+03  0.14432310904E+03  0.00000000000E+00 0. -1.
         -2   -1    0    0    0  501 -0.00000000000E+00 -0.00000000000E+00 -0.14014883928E+04  0.14014883928E+04  0.00000000000E+00 0.  1.
         23    2    1    2    0    0  0.21964298670E+03 -0.33814166643E+03 -0.88842077640E+03  0.97978398620E+03  0.90013085105E+02 0.  0.
        -24    2    1    2    0    0 -0.18463729056E+03  0.30916127884E+03 -0.26917740177E+03  0.45657949079E+03  0.79603595310E+02 0.  0.
         13    1    4    4    0    0 -0.12222715893E+03  0.24380662170E+03 -0.16537070352E+03  0.31894923851E+03  0.00000000000E+00 0. -1.
        -14    1    4    4    0    0 -0.62410131632E+02  0.65354657138E+02 -0.10380669825E+03  0.13763025228E+03  0.00000000000E+00 0.  1.
        -11    1    3    3    0    0  0.16862952751E+03 -0.31378469250E+03 -0.75159037339E+03  0.83173603996E+03  0.00000000000E+00 0.  1.
         11    1    3    3    0    0  0.51013459189E+02 -0.24356973926E+02 -0.13683040301E+03  0.14804794623E+03  0.00000000000E+00 0. -1.
         -1    1    1    2    0  502 -0.35005696143E+02  0.28980387588E+02 -0.99567105550E+02  0.10944802481E+03  0.00000000000E+00 0.  1.
<scales pt_clust_5="13000.00000" pt_clust_6="13000.00000" pt_clust_7="13000.00000" pt_clust_8="13000.00000" pt_clust_9="45.44517"></scales>
<clustering>
<clus scale="   45.445">  1  9  2 -1</clus>
<clus scale="   79.604">  5  6 -1 -1</clus>
<clus scale="   90.013">  7  8 -1 -1</clus>
<clus scale="  397.087">  1  5  2 -1</clus>
<clus scale="   45.445">  1  5  2 -1</clus>
</clustering>
</event>
<event>
 9    1  0.1487426E-004  0.1318713E+03  0.7546771E-02  0.1227162E+00
          1   -1    0    0  502    0 -0.00000000000E+00  0.00000000000E+00  0.37464181917E+03  0.37464181917E+03  0.00000000000E+00 0. -1.
         21   -1    0    0  501  502  0.00000000000E+00 -0.00000000000E+00 -0.11040578072E+03  0.11040578072E+03  0.00000000000E+00 0.  1.
         23    2    1    2    0    0 -0.87682743048E+02  0.45921426255E+02  0.21090552865E+03  0.24971943493E+03  0.89897793898E+02 0.  0.
        -24    2    1    2    0    0  0.65529761719E+02 -0.70382681297E+02  0.11208503776E+03  0.16793972281E+03  0.79955133106E+02 0.  0.
         13    1    4    4    0    0  0.77079886467E+02 -0.73891282985E+02  0.11344566601E+03  0.15579200793E+03  0.00000000000E+00 0. -1.
        -14    1    4    4    0    0 -0.11550124748E+02  0.35086016876E+01 -0.13606282502E+01  0.12147714877E+02  0.00000000000E+00 0.  1.
        -11    1    3    3    0    0 -0.30084883687E+02 -0.25876105421E+02  0.84482483533E+02  0.93337897352E+02  0.00000000000E+00 0.  1.
         11    1    3    3    0    0 -0.57597859361E+02  0.71797531676E+02  0.12642304512E+03  0.15638153757E+03  0.00000000000E+00 0. -1.
          2    1    1    2  501    0  0.22152981329E+02  0.24461255043E+02 -0.58754527965E+02  0.67388442157E+02  0.00000000000E+00 0. -1.
<scales pt_clust_5="13000.00000" pt_clust_6="13000.00000" pt_clust_7="13000.00000" pt_clust_8="13000.00000" pt_clust_9="33.00163"></scales>
<clustering>
<clus scale="   33.002">  2  9  1 -1</clus>
<clus scale="   79.955">  5  6 -1 -1</clus>
<clus scale="   89.898">  7  8 -1 -1</clus>
<clus scale="  125.305">  2  5  1 -1</clus>
<clus scale="   33.002">  2  5  1 -1</clus>
</clustering>
</event>
<event>
 9    1  0.1487426E-004  0.8751563E+02  0.7546771E-02  0.1311748E+00
         21   -1    0    0  501  502  0.00000000000E+00  0.00000000000E+00  0.33869482094E+02  0.33869482094E+02  0.00000000000E+00 0. -1.
          1   -1    0    0  502    0 -0.00000000000E+00 -0.00000000000E+00 -0.43302861422E+03  0.43302861422E+03  0.00000000000E+00 0. -1.
         23    2    1    2    0    0 -0.15970136819E+02  0.79048428983E+00 -0.23236056954E+03  0.24749008618E+03  0.83691327769E+02 0.  0.
        -24    2    1    2    0    0  0.30440164079E+02 -0.38393735982E+02 -0.14819392314E+03  0.17502874881E+03  0.79201903408E+02 0.  0.
         11    1    4    4    0    0 -0.27149201063E+02 -0.14505883394E+02 -0.48252075594E+02  0.57234277933E+02  0.00000000000E+00 0. -1.
        -12    1    4    4    0    0  0.57589365142E+02 -0.23887852588E+02 -0.99941847549E+02  0.11779447088E+03  0.00000000000E+00 0.  1.
        -11    1    3    3    0    0 -0.48471133679E+02  0.16115238269E+01 -0.17457745677E+03  0.18118867575E+03  0.00000000000E+00 0.  1.
         11    1    3    3    0    0  0.32500996860E+02 -0.82103953702E+00 -0.57783112777E+02  0.66301410430E+02  0.00000000000E+00 0. -1.
          2    1    1    2  501    0 -0.14470027260E+02  0.37603251692E+02 -0.18604639444E+02  0.44379261323E+02  0.00000000000E+00 0. -1.
<scales pt_clust_5="13000.00000" pt_clust_6="13000.00000" pt_clust_7="13000.00000" pt_clust_8="13000.00000" pt_clust_9="40.29127"></scales>
<clustering>
<clus scale="   40.291">  1  9  2 -1</clus>
<clus scale="   79.202">  5  6 -1 -1</clus>
<clus scale="   83.233">  1  5  2 -1</clus>
<clus scale="   83.691">  7  8 -1 -1</clus>
<clus scale="   40.291">  1  5  2 -1</clus>
</clustering>
</event>
<event>
 9    1  0.1487426E-004  0.1960403E+03  0.7546771E-02  0.1153857E+00
         21   -1    0    0  501  502  0.00000000000E+00  0.00000000000E+00  0.29970584003E+03  0.29970584003E+03  0.00000000000E+00 0. -1.
          3   -1    0    0  502    0 -0.00000000000E+00 -0.00000000000E+00 -0.21214241263E+03  0.21214241263E+03  0.00000000000E+00 0. -1.
         23    2    1    2    0    0 -0.56415590975E+02  0.14896284844E+03  0.86799389527E+01  0.18352099365E+03  0.90730174968E+02 0.  0.
        -24    2    1    2    0    0  0.12511730550E+02 -0.20614680276E+03  0.11170460788E+03  0.24911375338E+03  0.83226768609E+02 0.  0.
         13    1    4    4    0    0 -0.22237357337E+02 -0.12848432331E+03  0.97588134917E+02  0.16286855274E+03  0.00000000000E+00 0. -1.
        -14    1    4    4    0    0  0.34749087887E+02 -0.77662479456E+02  0.14116472962E+02  0.86245200639E+02  0.00000000000E+00 0.  1.
        -13    1    3    3    0    0 -0.13235793029E+02  0.63736321658E+02 -0.39887021170E+02  0.76344478342E+02  0.00000000000E+00 0.  1.
         13    1    3    3    0    0 -0.43179797946E+02  0.85226526778E+02  0.48566960123E+02  0.10717651530E+03  0.00000000000E+00 0. -1.
          4    1    1    2  501    0  0.43903860425E+02  0.57183954326E+02 -0.32821119439E+02  0.79213505627E+02  0.00000000000E+00 0. -1.
<scales pt_clust_5="13000.00000" pt_clust_6="13000.00000" pt_clust_7="13000.00000" pt_clust_8="13000.00000" pt_clust_9="72.09410"></scales>
<clustering>
<clus scale="   72.094">  1  9  2 -1</clus>
<clus scale="   83.227">  5  6 -1 -1</clus>
<clus scale="   90.730">  7  8 -1 -1</clus>
<clus scale="  192.682">  1  5  2 -1</clus>
<clus scale="   72.094">  1  5  2 -1</clus>
</clustering>
</event>
<event>
 9    1  0.1487426E-004  0.1153045E+03  0.7546771E-02  0.1254945E+00
          1   -1    0    0  502    0 -0.00000000000E+00  0.00000000000E+00  0.28685336734E+03  0.28685336734E+03  0.00000000000E+00 0. -1.
         21   -1    0    0  501  502  0.00000000000E+00 -0.00000000000E+00 -0.70120079863E+02  0.70120079863E+02  0.00000000000E+00 0.  1.
        -24    2    1    2    0    0 -0.40111151085E+02 -0.51825894767E+02  0.11845915848E+03  0.15751254186E+03  0.80515841964E+02 0.  0.
         23    2    1    2    0    0  0.71687679387E+02  0.44324762801E+02  0.36557920152E+02  0.12973118029E+03  0.91596340765E+02 0.  0.
         13    1    3    3    0    0 -0.24185456135E+02  0.17515894870E+02  0.19624514553E+02  0.35733239889E+02  0.00000000000E+00 0. -1.
        -14    1    3    3    0    0 -0.15925694950E+02 -0.69341789636E+02  0.98834643922E+02  0.12177930197E+03  0.00000000000E+00 0.  1.
        -11    1    4    4    0    0  0.44994943795E+02  0.44772325321E+01 -0.25020846430E+02  0.51678170771E+02  0.00000000000E+00 0.  1.
         11    1    4    4    0    0  0.26692735592E+02  0.39847530269E+02  0.61578766582E+02  0.78053009523E+02  0.00000000000E+00 0. -1.
          2    1    1    2  501    0 -0.31576528302E+02  0.75011319658E+01  0.61716208850E+02  0.69729725047E+02  0.00000000000E+00 0. -1.
<scales pt_clust_5="13000.00000" pt_clust_6="13000.00000" pt_clust_7="13000.00000" pt_clust_8="13000.00000" pt_clust_9="32.45528"></scales>
<clustering>
<clus scale="   32.455">  2  9  1 -1</clus>
<clus scale="   80.516">  5  6 -1 -1</clus>
<clus scale="   91.596">  7  8 -1 -1</clus>
<clus scale="  106.715">  1  5  2 -1</clus>
<clus scale="   32.455">  2  5  1 -1</clus>
</clustering>
</event>
<event>
 9    1  0.1487426E-004  0.1530276E+03  0.7546771E-02  0.1221235E+00
          1   -1    0    0  502    0 -0.00000000000E+00  0.00000000000E+00  0.23672640843E+03  0.23672640843E+03  0.00000000000E+00 0. -1.
         21   -1    0    0  501  502  0.00000000000E+00 -0.00000000000E+00 -0.22248354480E+03  0.22248354480E+03  0.00000000000E+00 0.  1.
        -24    2    1    2    0    0 -0.15472059959E+02 -0.31124082448E+02 -0.11670504614E+03  0.14782820062E+03  0.83815368247E+02 0.  0.
         23    2    1    2    0    0 -0.11632940647E+03  0.19610392405E+02  0.51678424428E+02  0.15714867277E+03  0.90044141973E+02 0.  0.
         13    1    3    3    0    0 -0.19502420236E+02 -0.24925421629E+02 -0.77013913935E+00  0.31657766072E+02  0.00000000000E+00 0. -1.
        -14    1    3    3    0    0  0.40303602769E+01 -0.61986608198E+01 -0.11593490700E+03  0.11617043454E+03  0.00000000000E+00 0.  1.
        -13    1    4    4    0    0 -0.98988234908E+02  0.34023151612E+02  0.71797104289E+02  0.12692938856E+03  0.00000000000E+00 0.  1.
         13    1    4    4    0    0 -0.17341171559E+02 -0.14412759206E+02 -0.20118679862E+02  0.30219284213E+02  0.00000000000E+00 0. -1.
          2    1    1    2  501    0  0.13180146643E+03  0.11513690043E+02  0.79269485340E+02  0.15423307984E+03  0.00000000000E+00 0. -1.
<scales pt_clust_5="13000.00000" pt_clust_6="13000.00000" pt_clust_7="13000.00000" pt_clust_8="13000.00000" pt_clust_9="123.73166"></scales>
<clustering>
<clus scale="   83.815">  5  6 -1 -1</clus>
<clus scale="   90.044">  7  8 -1 -1</clus>
<clus scale="   90.737">  1  5  2 -1</clus>
<clus scale="  123.732">  2  9  1 -1</clus>
<clus scale="  123.732">  2  5  1 -1</clus>
</clustering>
</event>
<event>
 9    1  0.1487426E-004  0.1894942E+03  0.7546771E-02  0.1160230E+00
          1   -1    0    0  502    0 -0.00000000000E+00  0.00000000000E+00  0.11005716632E+04  0.11005716632E+04  0.00000000000E+00 0. -1.
         21   -1    0    0  501  502  0.00000000000E+00 -0.00000000000E+00 -0.11468072977E+03  0.11468072977E+03  0.00000000000E+00 0. -1.
        -24    2    1    2    0    0 -0.16590851443E+03 -0.33289775527E+02  0.60265574204E+03  0.63112813647E+03  0.80591171460E+02 0.  0.
         23    2    1    2    0    0  0.15997773052E+03 -0.13336718332E+03  0.86803071324E+02  0.24400410429E+03  0.92863070547E+02 0.  0.
         13    1    3    3    0    0 -0.84645612774E+02 -0.38674084700E+02  0.43364988831E+03  0.44352315636E+03  0.00000000000E+00 0. -1.
        -14    1    3    3    0    0 -0.81262901652E+02  0.53843091731E+01  0.16900585373E+03  0.18760498012E+03  0.00000000000E+00 0.  1.
        -13    1    4    4    0    0  0.10356441295E+03 -0.13543419478E+03  0.54648766046E+02  0.17903769541E+03  0.00000000000E+00 0. -1.
         13    1    4    4    0    0  0.56413317573E+02  0.20670114614E+01  0.32154305278E+02  0.64966408889E+02  0.00000000000E+00 0.  1.
          2    1    1    2  501    0  0.59307839055E+01  0.16665695885E+03  0.29643212011E+03  0.34012015225E+03  0.00000000000E+00 0. -1.
<scales pt_clust_5="13000.00000" pt_clust_6="13000.00000" pt_clust_7="13000.00000" pt_clust_8="13000.00000" pt_clust_9="166.76254"></scales>
<clustering>
<clus scale="   80.591">  5  6 -1 -1</clus>
<clus scale="   92.863">  7  8 -1 -1</clus>
<clus scale="  166.763">  2  9  1 -1</clus>
<clus scale="  183.792">  1  5  2 -1</clus>
<clus scale="  166.763">  2  5  1 -1</clus>
</clustering>
</event>
<event>
 9    1  0.1487426E-004  0.1391713E+03  0.7546771E-02  0.1228392E+00
         21   -1    0    0  501  502  0.00000000000E+00  0.00000000000E+00  0.65474343760E+02  0.65474343760E+02  0.00000000000E+00 0. -1.
          1   -1    0    0  502    0 -0.00000000000E+00 -0.00000000000E+00 -0.54579481797E+03  0.54579481797E+03  0.00000000000E+00 0. -1.
         23    2    1    2    0    0 -0.31399127423E+02 -0.45195533667E+02 -0.20626370366E+03  0.23096321945E+03  0.88151867954E+02 0.  0.
        -24    2    1    2    0    0 -0.47414091776E+02  0.12016366151E+03 -0.18543207503E+03  0.23999884920E+03  0.80789798386E+02 0.  0.
         13    1    4    4    0    0 -0.74150167699E+01  0.89898119503E+02 -0.70126264296E+02  0.11425562265E+03  0.00000000000E+00 0. -1.
        -14    1    4    4    0    0 -0.39999075006E+02  0.30265542004E+02 -0.11530581073E+03  0.12574322655E+03  0.00000000000E+00 0.  1.
        -13    1    3    3    0    0  0.20695346937E+02  0.98984565238E+01 -0.22330627293E+02  0.32014586390E+02  0.00000000000E+00 0.  1.
         13    1    3    3    0    0 -0.52094474360E+02 -0.55093990190E+02 -0.18393307637E+03  0.19894863306E+03  0.00000000000E+00 0. -1.
          2    1    1    2  501    0  0.78813219199E+02 -0.74968127840E+02 -0.88624695525E+02  0.14030709308E+03  0.00000000000E+00 0. -1.
<scales pt_clust_5="13000.00000" pt_clust_6="13000.00000" pt_clust_7="13000.00000" pt_clust_8="13000.00000" pt_clust_9="113.32103"></scales>
<clustering>
<clus scale="   80.790">  5  6 -1 -1</clus>
<clus scale="   88.152">  7  8 -1 -1</clus>
<clus scale="  103.920">  2  7  1 -1</clus>
<clus scale="  113.321">  1  9  2 -1</clus>
<clus scale="  113.321">  1  5  2 -1</clus>
</clustering>
</event>
<event>
 9    1  0.1487426E-004  0.1960317E+03  0.7546771E-02  0.1153625E+00
         21   -1    0    0  501  502  0.00000000000E+00  0.00000000000E+00  0.77303884921E+02  0.77303884921E+02  0.00000000000E+00 0.  1.
          1   -1    0    0  502    0 -0.00000000000E+00 -0.00000000000E+00 -0.90735862074E+03  0.90735862074E+03  0.00000000000E+00 0. -1.
        -24    2    1    2    0    0  0.49902975374E+02  0.16596950134E+03 -0.66266072187E+03  0.69140223034E+03  0.94242397500E+02 0.  0.
         23    2    1    2    0    0 -0.38714036661E+01 -0.17153182763E+03 -0.12438155904E+03  0.23001538347E+03  0.89432369694E+02 0.  0.
         13    1    3    3    0    0  0.22876255209E+02  0.12694489471E+03 -0.59455038864E+03  0.60838186526E+03  0.00000000000E+00 0. -1.
        -14    1    3    3    0    0  0.27026720164E+02  0.39024606631E+02 -0.68110333224E+02  0.83020365077E+02  0.00000000000E+00 0.  1.
        -11    1    4    4    0    0  0.20103967225E+02 -0.14384012839E+01 -0.22886353699E+02  0.30496289645E+02  0.00000000000E+00 0. -1.
         11    1    4    4    0    0 -0.23975370891E+02 -0.17009342634E+03 -0.10149520534E+03  0.19951909383E+03  0.00000000000E+00 0.  1.
          2    1    1    2  501    0 -0.46031571708E+02  0.55623262825E+01 -0.43012454918E+02  0.63244891854E+02  0.00000000000E+00 0. -1.
<scales pt_clust_5="13000.00000" pt_clust_6="13000.00000" pt_clust_7="13000.00000" pt_clust_8="13000.00000" pt_clust_9="46.36642"></scales>
<clustering>
<clus scale="   46.366">  1  9  2 -1</clus>
<clus scale="   89.432">  7  8 -1 -1</clus>
<clus scale="   94.242">  5  6 -1 -1</clus>
<clus scale="  193.765">  1  7  2 -1</clus>
<clus scale="   46.366">  1  5  2 -1</clus>
</clustering>
</event>
<event>
 9    1  0.1535507E-004  0.9758239E+02  0.7546771E-02  0.1291981E+00
         21   -1    0    0  501  502  0.00000000000E+00  0.00000000000E+00  0.22393563575E+03  0.22393563575E+03  0.00000000000E+00 0. -1.
          3   -1    0    0  502    0 -0.00000000000E+00 -0.00000000000E+00 -0.28738711446E+03  0.28738711446E+03  0.00000000000E+00 0. -1.
         23    2    1    2    0    0 -0.32966329361E+02 -0.16536845210E+02 -0.25470631632E+03  0.27313919573E+03  0.91484788623E+02 0.  0.
        -24    2    1    2    0    0  0.10069278952E+01 -0.29360815267E+02  0.13101221149E+03  0.15598153150E+03  0.79391228941E+02 0.  0.
         11    1    4    4    0    0  0.21997746856E+02 -0.50122491400E+02  0.77776337646E+02  0.95106906734E+02  0.00000000000E+00 0. -1.
        -12    1    4    4    0    0 -0.20990818960E+02  0.20761676133E+02  0.53235873842E+02  0.60874624765E+02  0.00000000000E+00 0.  1.
        -11    1    3    3    0    0  0.11310727164E+02 -0.44642348777E+02 -0.11179464546E+03  0.12090870361E+03  0.00000000000E+00 0.  1.
         11    1    3    3    0    0 -0.44277056525E+02  0.28105503567E+02 -0.14291167086E+03  0.15223049213E+03  0.00000000000E+00 0. -1.
          4    1    1    2  501    0  0.31959401466E+02  0.45897660477E+02  0.60242626125E+02  0.82202022979E+02  0.00000000000E+00 0. -1.
<scales pt_clust_5="13000.00000" pt_clust_6="13000.00000" pt_clust_7="13000.00000" pt_clust_8="13000.00000" pt_clust_9="55.92851"></scales>
<clustering>
<clus scale="   55.929">  1  9  2 -1</clus>
<clus scale="   79.391">  5  6 -1 -1</clus>
<clus scale="   86.347">  1  5  2 -1</clus>
<clus scale="   91.485">  7  8 -1 -1</clus>
<clus scale="   55.929">  1  5  2 -1</clus>
</clustering>
</event>
<event>
 9    1  0.1487426E-004  0.1520014E+03  0.7546771E-02  0.1200485E+00
          1   -1    0    0  502    0 -0.00000000000E+00  0.00000000000E+00  0.52004948353E+03  0.52004948353E+03  0.00000000000E+00 0. -1.
         21   -1    0    0  501  502  0.00000000000E+00 -0.00000000000E+00 -0.76211900219E+02  0.76211900219E+02  0.00000000000E+00 0. -1.
        -24    2    1    2    0    0  0.93169467540E+02  0.10082198530E+03  0.31227778282E+03  0.34978035637E+03  0.77351545926E+02 0.  0.
         23    2    1    2    0    0 -0.70778851243E+02 -0.43611430812E+02  0.28750663378E+02  0.12671414582E+03  0.91204558147E+02 0.  0.
         13    1    3    3    0    0  0.87875181657E+02  0.43014619407E+02  0.17046754685E+03  0.19654894953E+03  0.00000000000E+00 0. -1.
        -14    1    3    3    0    0  0.52942858832E+01  0.57807365896E+02  0.14181023598E+03  0.15323140684E+03  0.00000000000E+00 0.  1.
        -13    1    4    4    0    0 -0.14318327686E+02  0.21607044149E+02  0.31016769850E+02  0.40421762412E+02  0.00000000000E+00 0. -1.
         13    1    4    4    0    0 -0.56460523557E+02 -0.65218474960E+02 -0.22661064728E+01  0.86292383412E+02  0.00000000000E+00 0.  1.
          2    1    1    2  501    0 -0.22390616297E+02 -0.57210554491E+02  0.10280913711E+03  0.11976688155E+03  0.00000000000E+00 0. -1.
<scales pt_clust_5="13000.00000" pt_clust_6="13000.00000" pt_clust_7="13000.00000" pt_clust_8="13000.00000" pt_clust_9="61.43607"></scales>
<clustering>
<clus scale="   61.436">  2  9  1 -1</clus>
<clus scale="   77.352">  5  6 -1 -1</clus>
<clus scale="   91.205">  7  8 -1 -1</clus>
<clus scale="  144.116">  1  5  2 -1</clus>
<clus scale="   61.436">  2  5  1 -1</clus>
</clustering>
</event>
<event>
 9    1  0.1487426E-004  0.2633975E+03  0.7546771E-02  0.1124858E+00
          1   -1    0    0  502    0 -0.00000000000E+00  0.00000000000E+00  0.10734812579E+03  0.10734812579E+03  0.00000000000E+00 0. -1.
         21   -1    0    0  501  502  0.00000000000E+00 -0.00000000000E+00 -0.16442805422E+04  0.16442805422E+04  0.00000000000E+00 0. -1.
         23    2    1    2    0    0  0.12164989054E+03  0.49811773137E+02 -0.31618414273E+03  0.35437898225E+03  0.91280569288E+02 0.  0.
        -24    2    1    2    0    0  0.14976347956E+03 -0.20929567619E+02 -0.27558731612E+02  0.17323960304E+03  0.79908258406E+02 0.  0.
         13    1    4    4    0    0  0.15139441824E+03 -0.35691641121E+02 -0.20825422307E+02  0.15693266496E+03  0.00000000000E+00 0. -1.
        -14    1    4    4    0    0 -0.16309386765E+01  0.14762073502E+02 -0.67333093048E+01  0.16306938071E+02  0.00000000000E+00 0.  1.
        -11    1    3    3    0    0  0.43199841223E+02 -0.23709293166E+02 -0.13478436674E+03  0.14351021699E+03  0.00000000000E+00 0.  1.
         11    1    3    3    0    0  0.78450049320E+02  0.73521066303E+02 -0.18139977600E+03  0.21086876526E+03  0.00000000000E+00 0. -1.
          2    1    1    2  501    0 -0.27141337010E+03 -0.28882205518E+02 -0.11931895421E+04  0.12240100827E+04  0.00000000000E+00 0. -1.
<scales pt_clust_5="13000.00000" pt_clust_6="13000.00000" pt_clust_7="13000.00000" pt_clust_8="13000.00000" pt_clust_9="250.98388"></scales>
<clustering>
<clus scale="   79.908">  5  6 -1 -1</clus>
<clus scale="   91.281">  7  8 -1 -1</clus>
<clus scale="  160.038">  1  7  2 -1</clus>
<clus scale="  250.984">  2  9  1 -1</clus>
<clus scale="  250.984">  2  5  1 -1</clus>
</clustering>
</event>
<event>
 9    1  0.1487426E-004  0.1370023E+03  0.7546771E-02  0.1235160E+00
         21   -1    0    0  501  502  0.00000000000E+00  0.00000000000E+00  0.58477660275E+03  0.58477660275E+03  0.00000000000E+00 0.  1.
          1   -1    0    0  502    0 -0.00000000000E+00 -0.00000000000E+00 -0.51825491627E+02  0.51825491627E+02  0.00000000000E+00 0. -1.
        -24    2    1    2    0    0 -0.22735142321E+02  0.40033423759E+02  0.19481923910E+03  0.21664485402E+03  0.82830520573E+02 0.  0.
         23    2    1    2    0    0 -0.61121260490E+02 -0.94924735694E+02  0.16345844127E+03  0.21857263362E+03  0.91152730151E+02 0.  0.
         11    1    3    3    0    0 -0.53704885128E+02  0.23982531884E+02  0.10605278799E+03  0.12127064922E+03  0.00000000000E+00 0. -1.
        -12    1    3    3    0    0  0.30969742807E+02  0.16050891874E+02  0.88766451112E+02  0.95374204806E+02  0.00000000000E+00 0.  1.
        -11    1    4    4    0    0 -0.84549607534E+02 -0.62714041699E+02  0.11940654358E+03  0.15918420088E+03  0.00000000000E+00 0.  1.
         11    1    4    4    0    0  0.23428347045E+02 -0.32210693995E+02  0.44051897693E+02  0.59388432739E+02  0.00000000000E+00 0. -1.
          2    1    1    2  501    0  0.83856402810E+02  0.54891311935E+02  0.17467343075E+03  0.20138460674E+03  0.00000000000E+00 0. -1.
<scales pt_clust_5="13000.00000" pt_clust_6="13000.00000" pt_clust_7="13000.00000" pt_clust_8="13000.00000" pt_clust_9="102.27810"></scales>
<clustering>
<clus scale="   82.831">  5  6 -1 -1</clus>
<clus scale="   91.153">  7  8 -1 -1</clus>
<clus scale="   94.765">  2  5  1 -1</clus>
<clus scale="  102.278">  1  9  2 -1</clus>
<clus scale="  102.278">  1  5  2 -1</clus>
</clustering>
</event>
<event>
 9    1  0.1487426E-004  0.1059859E+03  0.7546771E-02  0.1273185E+00
          3   -1    0    0  502    0 -0.00000000000E+00  0.00000000000E+00  0.29489657820E+03  0.29489657820E+03  0.00000000000E+00 0. -1.
         21   -1    0    0  501  502  0.00000000000E+00 -0.00000000000E+00 -0.11415787127E+03  0.11415787127E+03  0.00000000000E+00 0. -1.
        -24    2    1    2    0    0 -0.30063385494E+02  0.58950191210E+02  0.21940748497E+03  0.24250115944E+03  0.79298396438E+02 0.  0.
         23    2    1    2    0    0 -0.92276051583E+01 -0.16441289675E+02  0.66212795844E+01  0.93055140555E+02  0.90884284325E+02 0.  0.
         13    1    3    3    0    0 -0.34577500756E+02  0.20172515235E+02  0.18851155354E+03  0.19271517779E+03  0.00000000000E+00 0. -1.
        -14    1    3    3    0    0  0.45141152617E+01  0.38777675975E+02  0.30895931430E+02  0.49785981657E+02  0.00000000000E+00 0.  1.
        -11    1    4    4    0    0 -0.41334826737E+02 -0.98934132832E+01  0.30667015884E+02  0.52411004484E+02  0.00000000000E+00 0. -1.
         11    1    4    4    0    0  0.32107221579E+02 -0.65478763917E+01 -0.24045736300E+02  0.40644136071E+02  0.00000000000E+00 0.  1.
          4    1    1    2  501    0  0.39290990653E+02 -0.42508901535E+02 -0.45290057626E+02  0.73498149473E+02  0.00000000000E+00 0. -1.
<scales pt_clust_5="13000.00000" pt_clust_6="13000.00000" pt_clust_7="13000.00000" pt_clust_8="13000.00000" pt_clust_9="57.88600"></scales>
<clustering>
<clus scale="   57.886">  2  9  1 -1</clus>
<clus scale="   79.298">  5  6 -1 -1</clus>
<clus scale="   90.884">  7  8 -1 -1</clus>
<clus scale="   96.236">  1  5  2 -1</clus>
<clus scale="   57.886">  2  5  1 -1</clus>
</clustering>
</event>
<event>
 9    1  0.1487426E-004  0.1287468E+03  0.7546771E-02  0.1251084E+00
         21   -1    0    0  501  502  0.00000000000E+00  0.00000000000E+00  0.39746012713E+03  0.39746012713E+03  0.00000000000E+00 0.  1.
         -2   -1    0    0    0  501 -0.00000000000E+00 -0.00000000000E+00 -0.25972742679E+03  0.25972742679E+03  0.00000000000E+00 0.  1.
        -24    2    1    2    0    0  0.21597376531E+02  0.27835604521E+01 -0.19550910033E+03  0.21230889725E+03  0.79856525452E+02 0.  0.
         23    2    1    2    0    0 -0.10755876230E+03  0.17349129205E+02  0.54068906966E+02  0.15207805965E+03  0.91292989289E+02 0.  0.
         13    1    3    3    0    0  0.32843968273E+02 -0.23618439748E+02 -0.51606815678E+02  0.65573015582E+02  0.00000000000E+00 0. -1.
        -14    1    3    3    0    0 -0.11246591742E+02  0.26402000200E+02 -0.14390228465E+03  0.14673588167E+03  0.00000000000E+00 0.  1.
        -13    1    4    4    0    0 -0.90521042737E+02  0.42544327405E+02  0.12835495838E+02  0.10084061149E+03  0.00000000000E+00 0.  1.
         13    1    4    4    0    0 -0.17037719566E+02 -0.25195198199E+02  0.41233411129E+02  0.51237448157E+02  0.00000000000E+00 0. -1.
         -1    1    1    2    0  502  0.85961385773E+02 -0.20132689657E+02  0.27917289370E+03  0.29280059702E+03  0.00000000000E+00 0.  1.
<scales pt_clust_5="13000.00000" pt_clust_6="13000.00000" pt_clust_7="13000.00000" pt_clust_8="13000.00000" pt_clust_9="90.78178"></scales>
<clustering>
<clus scale="   79.857">  5  6 -1 -1</clus>
<clus scale="   82.772">  2  5  1 -1</clus>
<clus scale="   90.782">  1  9  2 -1</clus>
<clus scale="   91.293">  7  8 -1 -1</clus>
<clus scale="   90.782">  1  5  2 -1</clus>
</clustering>
</event>
<event>
 9    1  0.1487426E-004  0.9315456E+02  0.7546771E-02  0.1299538E+00
         21   -1    0    0  501  502  0.00000000000E+00  0.00000000000E+00  0.54341006480E+02  0.54341006480E+02  0.00000000000E+00 0. -1.
          1   -1    0    0  502    0 -0.00000000000E+00 -0.00000000000E+00 -0.52031960429E+03  0.52031960429E+03  0.00000000000E+00 0. -1.
         23    2    1    2    0    0  0.33674507371E+02  0.48659679831E+02 -0.34827207100E+03  0.36394611080E+03  0.87530561747E+02 0.  0.
        -24    2    1    2    0    0  0.10114969607E+02  0.14138392228E+02 -0.10479112226E+03  0.13307479477E+03  0.80159309845E+02 0.  0.
         13    1    4    4    0    0  0.29345943316E+02  0.37705885078E+02 -0.43342708338E+02  0.64509755268E+02  0.00000000000E+00 0. -1.
        -14    1    4    4    0    0 -0.19230973710E+02 -0.23567492850E+02 -0.61448413919E+02  0.68565039504E+02  0.00000000000E+00 0.  1.
        -13    1    3    3    0    0  0.61258178809E+02  0.23124631212E+02 -0.18034502193E+03  0.19186359732E+03  0.00000000000E+00 0.  1.
         13    1    3    3    0    0 -0.27583671438E+02  0.25535048619E+02 -0.16792704907E+03  0.17208251348E+03  0.00000000000E+00 0. -1.
          2    1    1    2  501    0 -0.43789476978E+02 -0.62798072059E+02 -0.12915404552E+02  0.77639705197E+02  0.00000000000E+00 0. -1.
<scales pt_clust_5="13000.00000" pt_clust_6="13000.00000" pt_clust_7="13000.00000" pt_clust_8="13000.00000" pt_clust_9="76.55793"></scales>
<clustering>
<clus scale="   76.558">  1  9  2 -1</clus>
<clus scale="   80.159">  5  6 -1 -1</clus>
<clus scale="   86.265">  1  5  2 -1</clus>
<clus scale="   87.531">  7  8 -1 -1</clus>
<clus scale="   76.558">  1  5  2 -1</clus>
</clustering>
</event>
<event>
 9    1  0.1487426E-004  0.1380587E+03  0.7546771E-02  0.1216193E+00
          1   -1    0    0  502    0 -0.00000000000E+00  0.00000000000E+00  0.26341827209E+03  0.26341827209E+03  0.00000000000E+00 0. -1.
         21   -1    0    0  501  502  0.00000000000E+00 -0.00000000000E+00 -0.91353713201E+02  0.91353713201E+02  0.00000000000E+00 0. -1.
         23    2    1    2    0    0 -0.59382590509E+02  0.74742920987E+02  0.11099405187E+03  0.17324071801E+03  0.92627590558E+02 0.  0.
        -24    2    1    2    0    0  0.58683137563E+02 -0.98587099614E+02  0.48985470450E+02  0.15479024640E+03  0.91636876974E+02 0.  0.
         11    1    4    4    0    0  0.58716382111E+02 -0.11032463695E+03  0.60054412347E+02  0.13865666767E+03  0.00000000000E+00 0. -1.
        -12    1    4    4    0    0 -0.33244548258E-01  0.11737537339E+02 -0.11068941896E+02  0.16133578732E+02  0.00000000000E+00 0.  1.
        -13    1    3    3    0    0  0.24695594848E+02  0.23835189191E+02  0.22982379707E+02  0.41305912721E+02  0.00000000000E+00 0.  1.
         13    1    3    3    0    0 -0.84078185357E+02  0.50907731795E+02  0.88011672167E+02  0.13193480529E+03  0.00000000000E+00 0. -1.
          2    1    1    2  501    0  0.69945294565E+00  0.23844178627E+02  0.12085036565E+02  0.26741020878E+02  0.00000000000E+00 0. -1.
<scales pt_clust_5="13000.00000" pt_clust_6="13000.00000" pt_clust_7="13000.00000" pt_clust_8="13000.00000" pt_clust_9="23.85444"></scales>
<clustering>
<clus scale="   23.854">  2  9  1 -1</clus>
<clus scale="   91.637">  5  6 -1 -1</clus>
<clus scale="   92.628">  7  8 -1 -1</clus>
<clus scale="  137.396">  2  5  1 -1</clus>
<clus scale="   23.854">  2  5  1 -1</clus>
</clustering>
</event>
<event>
 9    1  0.1487426E-004  0.2539650E+03  0.7546771E-02  0.1148084E+00
         21   -1    0    0  501  502  0.00000000000E+00  0.00000000000E+00  0.28462599117E+03  0.28462599117E+03  0.00000000000E+00 0. -1.
          1   -1    0    0  502    0 -0.00000000000E+00 -0.00000000000E+00 -0.34493064844E+03  0.34493064844E+03  0.00000000000E+00 0. -1.
        -24    2    1    2    0    0 -0.56702886812E+02 -0.14362823688E+02  0.61011305063E+02  0.11850527523E+03  0.83063908137E+02 0.  0.
         23    2    1    2    0    0 -0.57938796621E+01 -0.22491331204E+03 -0.98434805207E+02  0.26269182199E+03  0.93263151831E+02 0.  0.
         13    1    3    3    0    0 -0.70242535948E+02 -0.20600710582E+02  0.69845278597E+02  0.10117690485E+03  0.00000000000E+00 0. -1.
        -14    1    3    3    0    0  0.13539649136E+02  0.62378868945E+01 -0.88339735342E+01  0.17328370380E+02  0.00000000000E+00 0.  1.
        -11    1    4    4    0    0 -0.24546870320E+02 -0.12092866134E+03 -0.97105159918E+02  0.15702134269E+03  0.00000000000E+00 0. -1.
         11    1    4    4    0    0  0.18752990658E+02 -0.10398465070E+03 -0.13296452889E+01  0.10567047930E+03  0.00000000000E+00 0.  1.
          2    1    1    2  501    0  0.62496766474E+02  0.23927613572E+03 -0.22881157127E+02  0.24835954239E+03  0.00000000000E+00 0. -1.
<scales pt_clust_5="13000.00000" pt_clust_6="13000.00000" pt_clust_7="13000.00000" pt_clust_8="13000.00000" pt_clust_9="236.22063"></scales>
<clustering>
<clus scale="   83.064">  5  6 -1 -1</clus>
<clus scale="   93.263">  7  8 -1 -1</clus>
<clus scale="  101.593">  2  5  1 -1</clus>
<clus scale="  236.221">  1  9  2 -1</clus>
<clus scale="  236.221">  1  5  2 -1</clus>
</clustering>
</event>
<event>
 9    1  0.1487426E-004  0.1003921E+03  0.7546771E-02  0.1286368E+00
         21   -1    0    0  501  502  0.00000000000E+00  0.00000000000E+00  0.49547688894E+02  0.49547688894E+02  0.00000000000E+00 0. -1.
          1   -1    0    0  502    0 -0.00000000000E+00 -0.00000000000E+00 -0.34598841344E+03  0.34598841344E+03  0.00000000000E+00 0. -1.
         23    2    1    2    0    0 -0.24624385896E+01 -0.49995507676E+02 -0.21315461971E+03  0.23751837931E+03  0.92056907496E+02 0.  0.
        -24    2    1    2    0    0 -0.31266028777E+02  0.19373320414E+02 -0.67340825494E+02  0.10975200230E+03  0.78471811059E+02 0.  0.
         11    1    4    4    0    0 -0.40236843633E+02  0.55212020884E+01 -0.79486371428E+02  0.89261248595E+02  0.00000000000E+00 0. -1.
        -12    1    4    4    0    0  0.89708148560E+01  0.13852118326E+02  0.12145545933E+02  0.20490753703E+02  0.00000000000E+00 0.  1.
        -13    1    3    3    0    0 -0.41470366747E+02 -0.19758779214E+02 -0.54045870169E+02  0.70930647512E+02  0.00000000000E+00 0.  1.
         13    1    3    3    0    0  0.39007928158E+02 -0.30236728463E+02 -0.15910874954E+03  0.16658773180E+03  0.00000000000E+00 0. -1.
          2    1    1    2  501    0  0.33728467366E+02  0.30622187262E+02 -0.15945279347E+02  0.48265720724E+02  0.00000000000E+00 0. -1.
<scales pt_clust_5="13000.00000" pt_clust_6="13000.00000" pt_clust_7="13000.00000" pt_clust_8="13000.00000" pt_clust_9="45.55577"></scales>
<clustering>
<clus scale="   45.556">  1  9  2 -1</clus>
<clus scale="   78.472">  5  6 -1 -1</clus>
<clus scale="   88.102">  1  5  2 -1</clus>
<clus scale="   92.057">  7  8 -1 -1</clus>
<clus scale="   45.556">  1  5  2 -1</clus>
</clustering>
</event>
<event>
 9    1  0.1487426E-004  0.1696484E+03  0.7546771E-02  0.1203588E+00
          1   -1    0    0  502    0 -0.00000000000E+00  0.00000000000E+00  0.20825936142E+03  0.20825936142E+03  0.00000000000E+00 0. -1.
         21   -1    0    0  501  502  0.00000000000E+00 -0.00000000000E+00 -0.39745261169E+03  0.39745261169E+03  0.00000000000E+00 0. -1.
         23    2    1    2    0    0  0.45778000682E+01  0.29957061827E+02 -0.16988446712E+03  0.19558920263E+03  0.92065314928E+02 0.  0.
        -24    2    1    2    0    0  0.15460281643E+02  0.12314649585E+03  0.12879599832E+03  0.19616658246E+03  0.80553331062E+02 0.  0.
         11    1    4    4    0    0  0.46342493457E+02  0.90960049691E+02  0.10102387097E+03  0.14362165521E+03  0.00000000000E+00 0. -1.
        -12    1    4    4    0    0 -0.30882211815E+02  0.32186446155E+02  0.27772127350E+02  0.52544927255E+02  0.00000000000E+00 0.  1.
        -13    1    3    3    0    0 -0.29158401573E+02  0.11288880734E+02 -0.12705608611E+02  0.33750314083E+02  0.00000000000E+00 0. -1.
         13    1    3    3    0    0  0.33736201641E+02  0.18668181092E+02 -0.15717885851E+03  0.16183888855E+03  0.00000000000E+00 0.  1.
          2    1    1    2  501    0 -0.20038081711E+02 -0.15310355767E+03 -0.14810478147E+03  0.21395618801E+03  0.00000000000E+00 0. -1.
<scales pt_clust_5="13000.00000" pt_clust_6="13000.00000" pt_clust_7="13000.00000" pt_clust_8="13000.00000" pt_clust_9="149.30419"></scales>
<clustering>
<clus scale="   80.553">  5  6 -1 -1</clus>
<clus scale="   92.065">  7  8 -1 -1</clus>
<clus scale="   96.925">  1  7  2 -1</clus>
<clus scale="  149.304">  2  9  1 -1</clus>
<clus scale="  149.304">  2  5  1 -1</clus>
</clustering>
</event>
<event>
 9    1  0.1487426E-004  0.1489535E+03  0.7546771E-02  0.1203356E+00
          3   -1    0    0  502    0 -0.00000000000E+00  0.00000000000E+00  0.17745607143E+03  0.17745607143E+03  0.00000000000E+00 0. -1.
         21   -1    0    0  501  502  0.00000000000E+00 -0.00000000000E+00 -0.18678967683E+03  0.18678967683E+03  0.00000000000E+00 0. -1.
        -24    2    1    2    0    0  0.49803852343E+02  0.88052211794E+02 -0.13115881948E+02  0.13014198814E+03  0.80816427826E+02 0.  0.
         23    2    1    2    0    0 -0.95458211956E+02 -0.11029284280E+03 -0.29133091658E+02  0.17358609590E+03  0.89479686294E+02 0.  0.
         13    1    3    3    0    0  0.20358802360E+02  0.87306574896E+02 -0.31959888882E+02  0.95175382063E+02  0.00000000000E+00 0. -1.
        -14    1    3    3    0    0  0.29445049983E+02  0.74563689834E+00  0.18844006934E+02  0.34966606072E+02  0.00000000000E+00 0.  1.
        -11    1    4    4    0    0 -0.97980206516E+02 -0.89101176597E+02  0.58975552185E+01  0.13256666888E+03  0.00000000000E+00 0. -1.
         11    1    4    4    0    0  0.25219945595E+01 -0.21191666199E+02 -0.35030646877E+02  0.41019427025E+02  0.00000000000E+00 0.  1.
          4    1    1    2  501    0  0.45654359613E+02  0.22240631002E+02  0.32915368200E+02  0.60517664221E+02  0.00000000000E+00 0. -1.
<scales pt_clust_5="13000.00000" pt_clust_6="13000.00000" pt_clust_7="13000.00000" pt_clust_8="13000.00000" pt_clust_9="50.78355"></scales>
<clustering>
<clus scale="   50.784">  2  9  1 -1</clus>
<clus scale="   80.816">  5  6 -1 -1</clus>
<clus scale="   89.480">  7  8 -1 -1</clus>
<clus scale="  143.916">  1  5  2 -1</clus>
<clus scale="   50.784">  2  5  1 -1</clus>
</clustering>
</event>
<event>
 9    1  0.1487426E-004  0.1772133E+03  0.7546771E-02  0.1196349E+00
         21   -1    0    0  501  502  0.00000000000E+00  0.00000000000E+00  0.13880373196E+03  0.13880373196E+03  0.00000000000E+00 0.  1.
          1   -1    0    0  502    0 -0.00000000000E+00 -0.00000000000E+00 -0.55412444423E+03  0.55412444423E+03  0.00000000000E+00 0. -1.
        -24    2    1    2    0    0  0.26731053695E+02 -0.52626485725E+02 -0.11087740362E+02  0.10012925835E+03  0.80117627021E+02 0.  0.
         23    2    1    2    0    0  0.10806062685E+03  0.12404206234E+03 -0.39832666907E+03  0.44014287918E+03  0.89432021668E+02 0.  0.
         13    1    3    3    0    0  0.45842864690E+02 -0.61834683534E+02 -0.15351632729E+02  0.78490566046E+02  0.00000000000E+00 0. -1.
        -14    1    3    3    0    0 -0.19111810995E+02  0.92081978096E+01  0.42638923663E+01  0.21638692302E+02  0.00000000000E+00 0.  1.
        -11    1    4    4    0    0  0.12034951406E+03  0.10667852936E+03 -0.37769337343E+03  0.41050773256E+03  0.00000000000E+00 0.  1.
         11    1    4    4    0    0 -0.12288887205E+02  0.17363532988E+02 -0.20633295642E+02  0.29635146627E+02  0.00000000000E+00 0. -1.
          2    1    1    2  501    0 -0.13479168055E+03 -0.71415576618E+02 -0.59063028376E+01  0.15265603867E+03  0.00000000000E+00 0. -1.
<scales pt_clust_5="13000.00000" pt_clust_6="13000.00000" pt_clust_7="13000.00000" pt_clust_8="13000.00000" pt_clust_9="152.99175"></scales>
<clustering>
<clus scale="   80.118">  5  6 -1 -1</clus>
<clus scale="   89.432">  7  8 -1 -1</clus>
<clus scale="   99.514">  2  5  1 -1</clus>
<clus scale="  152.992">  1  9  2 -1</clus>
<clus scale="  152.992">  1  5  2 -1</clus>
</clustering>
</event>
<event>
 9    1  0.1487426E-004  0.9732568E+02  0.7546771E-02  0.1295762E+00
          1   -1    0    0  502    0 -0.00000000000E+00  0.00000000000E+00  0.44757356757E+03  0.44757356757E+03  0.00000000000E+00 0. -1.
         21   -1    0    0  501  502  0.00000000000E+00 -0.00000000000E+00 -0.37715340779E+02  0.37715340779E+02  0.00000000000E+00 0. -1.
         23    2    1    2    0    0  0.71655998261E+01  0.22958639694E+02  0.30298400816E+03  0.31791809758E+03  0.93242493589E+02 0.  0.
        -24    2    1    2    0    0  0.17714642304E+01 -0.44178960189E+02  0.40163443744E+02  0.96798148909E+02  0.76169946895E+02 0.  0.
         13    1    4    4    0    0  0.31949584598E+02 -0.32684176343E+01  0.17236082837E+00  0.32116790282E+02  0.00000000000E+00 0. -1.
        -14    1    4    4    0    0 -0.30178120367E+02 -0.40910542555E+02  0.39991082916E+02  0.64681358627E+02  0.00000000000E+00 0.  1.
        -11    1    3    3    0    0  0.19081912135E+02 -0.33296867804E+02  0.13595384198E+03  0.14126658460E+03  0.00000000000E+00 0.  1.
         11    1    3    3    0    0 -0.11916312309E+02  0.56255507498E+02  0.16703016618E+03  0.17665151298E+03  0.00000000000E+00 0. -1.
          2    1    1    2  501    0 -0.89370640564E+01  0.21220320495E+02  0.66710774884E+02  0.70572661856E+02  0.00000000000E+00 0. -1.
<scales pt_clust_5="13000.00000" pt_clust_6="13000.00000" pt_clust_7="13000.00000" pt_clust_8="13000.00000" pt_clust_9="23.02550"></scales>
<clustering>
<clus scale="   23.025">  2  9  1 -1</clus>
<clus scale="   76.170">  5  6 -1 -1</clus>
<clus scale="   81.117">  2  5  1 -1</clus>
<clus scale="   93.242">  7  8 -1 -1</clus>
<clus scale="   23.025">  2  5  1 -1</clus>
</clustering>
</event>
<event>
 9    1  0.1487426E-004  0.1363532E+03  0.7546771E-02  0.1220729E+00
         -4   -1    0    0    0  501 -0.00000000000E+00  0.00000000000E+00  0.43494119245E+03  0.43494119245E+03  0.00000000000E+00 0.  1.
         21   -1    0    0  501  502  0.00000000000E+00 -0.00000000000E+00 -0.80931406189E+02  0.80931406189E+02  0.00000000000E+00 0. -1.
        -24    2    1    2    0    0  0.33876868543E+01 -0.98630718154E+02  0.28932372518E+03  0.31645414695E+03  0.81826121667E+02 0.  0.
         23    2    1    2    0    0 -0.35080786551E+02  0.10393686683E+03  0.79733268417E+02  0.16393569206E+03  0.92108540138E+02 0.  0.
         13    1    3    3    0    0 -0.31135418998E+02 -0.84011194150E+02  0.18393862481E+03  0.20459890702E+03  0.00000000000E+00 0. -1.
        -14    1    3    3    0    0  0.34523105853E+02 -0.14619524004E+02  0.10538510037E+03  0.11185523993E+03  0.00000000000E+00 0.  1.
        -11    1    4    4    0    0 -0.33897625629E+02  0.75253065314E+02  0.99353463380E+02  0.12916339864E+03  0.00000000000E+00 0.  1.
         11    1    4    4    0    0 -0.11831609221E+01  0.28683801514E+02 -0.19620194963E+02  0.34772293417E+02  0.00000000000E+00 0. -1.
         -3    1    1    2    0  502  0.31693099697E+02 -0.53061486742E+01 -0.15047207337E+02  0.35482759628E+02  0.00000000000E+00 0.  1.
<scales pt_clust_5="13000.00000" pt_clust_6="13000.00000" pt_clust_7="13000.00000" pt_clust_8="13000.00000" pt_clust_9="32.13422"></scales>
<clustering>
<clus scale="   32.134">  2  9  1 -1</clus>
<clus scale="   81.826">  5  6 -1 -1</clus>
<clus scale="   92.109">  7  8 -1 -1</clus>
<clus scale="  129.629">  1  5  2 -1</clus>
<clus scale="   32.134">  2  5  1 -1</clus>
</clustering>
</event>
<event>
 9    1  0.1972154E-004  0.9369598E+02  0.7546771E-02  0.1299793E+00
         21   -1    0    0  501  502  0.00000000000E+00  0.00000000000E+00  0.11182573555E+03  0.11182573555E+03  0.00000000000E+00 0. -1.
          1   -1    0    0  502    0 -0.00000000000E+00 -0.00000000000E+00 -0.31054058763E+03  0.31054058763E+03  0.00000000000E+00 0. -1.
         23    2    1    2    0    0  0.18292791519E+02 -0.20352211206E+02 -0.24490135458E+03  0.26279530024E+03  0.91300918008E+02 0.  0.
        -24    2    1    2    0    0  0.27022502004E+01  0.12344890428E+01 -0.22869258370E+02  0.84905253088E+02  0.81713358175E+02 0.  0.
         11    1    4    4    0    0 -0.35322873831E+01 -0.39064818043E+02 -0.19991921692E+02  0.44025151855E+02  0.00000000000E+00 0. -1.
        -12    1    4    4    0    0  0.62345375835E+01  0.40299307086E+02 -0.28773366772E+01  0.40880101233E+02  0.00000000000E+00 0.  1.
        -13    1    3    3    0    0 -0.26225241218E+02  0.19775546096E+02 -0.59719286516E+02  0.68155914508E+02  0.00000000000E+00 0.  1.
         13    1    3    3    0    0  0.44518032736E+02 -0.40127757302E+02 -0.18518206807E+03  0.19463938573E+03  0.00000000000E+00 0. -1.
          2    1    1    2  501    0 -0.20995041719E+02  0.19117722163E+02  0.69055760871E+02  0.74665769848E+02  0.00000000000E+00 0. -1.
<scales pt_clust_5="13000.00000" pt_clust_6="13000.00000" pt_clust_7="13000.00000" pt_clust_8="13000.00000" pt_clust_9="28.39505"></scales>
<clustering>
<clus scale="   28.395">  1  9  2 -1</clus>
<clus scale="   81.713">  5  6 -1 -1</clus>
<clus scale="   84.381">  1  5  2 -1</clus>
<clus scale="   91.301">  7  8 -1 -1</clus>
<clus scale="   28.395">  1  5  2 -1</clus>
</clustering>
</event>
<event>
 9    1  0.1487426E-004  0.1199460E+03  0.7546771E-02  0.1244636E+00
         21   -1    0    0  501  502  0.00000000000E+00  0.00000000000E+00  0.31300880689E+02  0.31300880689E+02  0.00000000000E+00 0.  1.
          1   -1    0    0  502    0 -0.00000000000E+00 -0.00000000000E+00 -0.83119653501E+03  0.83119653501E+03  0.00000000000E+00 0. -1.
         23    2    1    2    0    0 -0.28186429808E+02  0.69058714837E+02 -0.48059747148E+03  0.49396348614E+03  0.86385271428E+02 0.  0.
        -24    2    1    2    0    0  0.64224458361E+02 -0.81571408263E+02 -0.29531718692E+03  0.32347402317E+03  0.81513968601E+02 0.  0.
         13    1    4    4    0    0 -0.89118179669E+01 -0.44418854554E+02 -0.14894222743E+03  0.15567993529E+03  0.00000000000E+00 0. -1.
        -14    1    4    4    0    0  0.73136276328E+02 -0.37152553708E+02 -0.14637495949E+03  0.16779408788E+03  0.00000000000E+00 0.  1.
        -13    1    3    3    0    0 -0.55678479648E+00  0.74466760587E+02 -0.42676303655E+03  0.43321160857E+03  0.00000000000E+00 0. -1.
         13    1    3    3    0    0 -0.27629645012E+02 -0.54080457499E+01 -0.53834434938E+02  0.60751877563E+02  0.00000000000E+00 0.  1.
          2    1    1    2  501    0 -0.36038028553E+02  0.12512693425E+02 -0.23980995909E+02  0.45059906386E+02  0.00000000000E+00 0. -1.
<scales pt_clust_5="13000.00000" pt_clust_6="13000.00000" pt_clust_7="13000.00000" pt_clust_8="13000.00000" pt_clust_9="38.14849"></scales>
<clustering>
<clus scale="   38.148">  1  9  2 -1</clus>
<clus scale="   81.514">  5  6 -1 -1</clus>
<clus scale="   86.385">  7  8 -1 -1</clus>
<clus scale="  116.487">  1  5  2 -1</clus>
<clus scale="   38.148">  1  5  2 -1</clus>
</clustering>
</event>
<event>
 9    1  0.1717282E-004  0.1569487E+03  0.7546771E-02  0.1221958E+00
         21   -1    0    0  501  502  0.00000000000E+00  0.00000000000E+00  0.20857777796E+03  0.20857777796E+03  0.00000000000E+00 0. -1.
          3   -1    0    0  502    0 -0.00000000000E+00 -0.00000000000E+00 -0.23848174246E+03  0.23848174246E+03  0.00000000000E+00 0. -1.
        -24    2    1    2    0    0 -0.28951239202E+02 -0.88555610602E+01 -0.24144502017E+01  0.82875226979E+02  0.77109522525E+02 0.  0.
         23    2    1    2    0    0 -0.92204812903E+02  0.82407670902E+02  0.91486399363E+02  0.17913303067E+03  0.91793952207E+02 0.  0.
         13    1    3    3    0    0 -0.21400107512E+02  0.24978116831E+02 -0.25161659419E+02  0.41412317330E+02  0.00000000000E+00 0. -1.
        -14    1    3    3    0    0 -0.75511316905E+01 -0.33833677891E+02  0.22747209217E+02  0.41462909649E+02  0.00000000000E+00 0.  1.
        -13    1    4    4    0    0 -0.18595958629E+01  0.37275132151E+02 -0.71105484158E+01  0.37992808167E+02  0.00000000000E+00 0.  1.
         13    1    4    4    0    0 -0.90345217040E+02  0.45132538751E+02  0.98596947778E+02  0.14114022250E+03  0.00000000000E+00 0. -1.
          4    1    1    2  501    0  0.12115605211E+03 -0.73552109842E+02 -0.11897591365E+03  0.18505126277E+03  0.00000000000E+00 0. -1.
<scales pt_clust_5="13000.00000" pt_clust_6="13000.00000" pt_clust_7="13000.00000" pt_clust_8="13000.00000" pt_clust_9="127.30580"></scales>
<clustering>
<clus scale="   77.110">  5  6 -1 -1</clus>
<clus scale="   82.840">  2  5  1 -1</clus>
<clus scale="   91.794">  7  8 -1 -1</clus>
<clus scale="  127.306">  1  9  2 -1</clus>
<clus scale="  127.306">  1  5  2 -1</clus>
</clustering>
</event>
<event>
 9    1  0.1487426E-004  0.1632750E+03  0.7546771E-02  0.1202155E+00
         21   -1    0    0  501  502  0.00000000000E+00  0.00000000000E+00  0.67008514533E+02  0.67008514533E+02  0.00000000000E+00 0. -1.
          1   -1    0    0  502    0 -0.00000000000E+00 -0.00000000000E+00 -0.10076462183E+04  0.10076462183E+04  0.00000000000E+00 0. -1.
         23    2    1    2    0    0  0.61096054308E+02  0.21289441429E+02 -0.39968823729E+02  0.11905243399E+03  0.91596981396E+02 0.  0.
        -24    2    1    2    0    0  0.88942397771E+02 -0.78697114620E+02 -0.57655547530E+03  0.59386112455E+03  0.78427247736E+02 0.  0.
         11    1    4    4    0    0  0.82680876623E+02 -0.93836052985E+02 -0.48589233673E+03  0.50172970322E+03  0.00000000000E+00 0. -1.
        -12    1    4    4    0    0  0.62615211474E+01  0.15138938365E+02 -0.90663138570E+02  0.92131421335E+02  0.00000000000E+00 0.  1.
        -11    1    3    3    0    0  0.46365693138E+01 -0.25512113528E+02 -0.37606080973E+02  0.45679131317E+02  0.00000000000E+00 0.  1.
         11    1    3    3    0    0  0.56459484994E+02  0.46801554957E+02 -0.23627427558E+01  0.73373302676E+02  0.00000000000E+00 0. -1.
          2    1    1    2  501    0 -0.15003845208E+03  0.57407673191E+02 -0.32411340474E+03  0.36174117429E+03  0.00000000000E+00 0. -1.
<scales pt_clust_5="13000.00000" pt_clust_6="13000.00000" pt_clust_7="13000.00000" pt_clust_8="13000.00000" pt_clust_9="143.20581"></scales>
<clustering>
<clus scale="   78.427">  5  6 -1 -1</clus>
<clus scale="   91.597">  7  8 -1 -1</clus>
<clus scale="  112.143">  2  7  1 -1</clus>
<clus scale="  143.206">  1  9  2 -1</clus>
<clus scale="  143.206">  1  5  2 -1</clus>
</clustering>
</event>
<event>
 9    1  0.1487426E-004  0.1393737E+03  0.7546771E-02  0.1217307E+00
         21   -1    0    0  501  502  0.00000000000E+00  0.00000000000E+00  0.89112516992E+02  0.89112516992E+02  0.00000000000E+00 0.  1.
         -2   -1    0    0    0  501 -0.00000000000E+00 -0.00000000000E+00 -0.37001624632E+03  0.37001624632E+03  0.00000000000E+00 0.  1.
         23    2    1    2    0    0 -0.71797924070E+02 -0.10070109706E+03 -0.21262413280E+03  0.26245501586E+03  0.91531200408E+02 0.  0.
        -24    2    1    2    0    0  0.74374827759E+02  0.31074950992E+02 -0.24231319886E+02  0.11424382980E+03  0.77247836225E+02 0.  0.
         11    1    4    4    0    0  0.28358629480E+02 -0.25790973293E+02 -0.11245887927E+02  0.39948168477E+02  0.00000000000E+00 0. -1.
        -12    1    4    4    0    0  0.46016198279E+02  0.56865924285E+02 -0.12985431959E+02  0.74295661327E+02  0.00000000000E+00 0.  1.
        -11    1    3    3    0    0  0.99417032421E+01 -0.22500431653E+02 -0.99419589381E+02  0.10241758463E+03  0.00000000000E+00 0.  1.
         11    1    3    3    0    0 -0.81739627312E+02 -0.78200665410E+02 -0.11320454342E+03  0.16003743123E+03  0.00000000000E+00 0. -1.
         -1    1    1    2    0  502 -0.25769036889E+01  0.69626146071E+02 -0.44048276645E+02  0.82429917656E+02  0.00000000000E+00 0.  1.
<scales pt_clust_5="13000.00000" pt_clust_6="13000.00000" pt_clust_7="13000.00000" pt_clust_8="13000.00000" pt_clust_9="69.67382"></scales>
<clustering>
<clus scale="   69.674">  1  9  2 -1</clus>
<clus scale="   77.248">  5  6 -1 -1</clus>
<clus scale="   91.531">  7  8 -1 -1</clus>
<clus scale="  130.439">  1  5  2 -1</clus>
<clus scale="   69.674">  1  5  2 -1</clus>
</clustering>
</event>
<event>
 9    1  0.1487426E-004  0.1464211E+03  0.7546771E-02  0.1206355E+00
         21   -1    0    0  501  502  0.00000000000E+00  0.00000000000E+00  0.95995501724E+02  0.95995501724E+02  0.00000000000E+00 0. -1.
          1   -1    0    0  502    0 -0.00000000000E+00 -0.00000000000E+00 -0.11038674363E+04  0.11038674363E+04  0.00000000000E+00 0. -1.
        -24    2    1    2    0    0  0.19792363536E+02 -0.11547397597E+03 -0.37776074932E+03  0.40380853579E+03  0.81438154883E+02 0.  0.
         23    2    1    2    0    0  0.74671593526E+02  0.12054084747E+03 -0.87901451043E+01  0.16757294085E+03  0.88867772930E+02 0.  0.
         11    1    3    3    0    0  0.11911178878E+02 -0.12741400249E+03 -0.32971839292E+03  0.35368124469E+03  0.00000000000E+00 0. -1.
        -12    1    3    3    0    0  0.78811846575E+01  0.11940026525E+02 -0.48042356397E+02  0.50127291101E+02  0.00000000000E+00 0.  1.
        -13    1    4    4    0    0  0.86119306676E+02  0.58198839764E+02 -0.66297844173E+01  0.10415178334E+03  0.00000000000E+00 0.  1.
         13    1    4    4    0    0 -0.11447713150E+02  0.62342007704E+02 -0.21603606870E+01  0.63421157505E+02  0.00000000000E+00 0. -1.
          2    1    1    2  501    0 -0.94463957062E+02 -0.50668715017E+01 -0.62132104015E+03  0.62848146139E+03  0.00000000000E+00 0. -1.
<scales pt_clust_5="13000.00000" pt_clust_6="13000.00000" pt_clust_7="13000.00000" pt_clust_8="13000.00000" pt_clust_9="94.59980"></scales>
<clustering>
<clus scale="   81.438">  5  6 -1 -1</clus>
<clus scale="   88.868">  7  8 -1 -1</clus>
<clus scale="   94.600">  1  9  2 -1</clus>
<clus scale="  142.035">  2  5  1 -1</clus>
<clus scale="   94.600">  1  5  2 -1</clus>
</clustering>
</event>
<event>
 9    1  0.1487426E-004  0.3050316E+03  0.7546771E-02  0.1126134E+00
         21   -1    0    0  501  502  0.00000000000E+00  0.00000000000E+00  0.24772816003E+03  0.24772816003E+03  0.00000000000E+00 0.  1.
         -4   -1    0    0    0  501 -0.00000000000E+00 -0.00000000000E+00 -0.66464028381E+03  0.66464028381E+03  0.00000000000E+00 0.  1.
         23    2    1    2    0    0  0.30813002123E+02  0.15210549183E+02  0.10473422920E+01  0.99845084398E+02  0.93739757021E+02 0.  0.
        -24    2    1    2    0    0  0.24105554816E+03 -0.14017531515E+03 -0.42324876385E+03  0.51326314151E+03  0.80886587635E+02 0.  0.
         13    1    4    4    0    0  0.33439249499E+02 -0.28669282866E+02 -0.25375272285E+02  0.50833213853E+02  0.00000000000E+00 0. -1.
        -14    1    4    4    0    0  0.20761629866E+03 -0.11150603228E+03 -0.39787349156E+03  0.46242992766E+03  0.00000000000E+00 0.  1.
        -11    1    3    3    0    0  0.62224566999E+02  0.12312210182E+02  0.15268377774E+02  0.65242705475E+02  0.00000000000E+00 0.  1.
         11    1    3    3    0    0 -0.31411564877E+02  0.28983390016E+01 -0.14221035482E+02  0.34602378923E+02  0.00000000000E+00 0. -1.
         -3    1    1    2    0  502 -0.27186855028E+03  0.12496476596E+03  0.52892977708E+01  0.29926021793E+03  0.00000000000E+00 0.  1.
<scales pt_clust_5="13000.00000" pt_clust_6="13000.00000" pt_clust_7="13000.00000" pt_clust_8="13000.00000" pt_clust_9="294.11159"></scales>
<clustering>
<clus scale="   80.887">  5  6 -1 -1</clus>
<clus scale="   93.740">  7  8 -1 -1</clus>
<clus scale="   99.840">  2  7  1 -1</clus>
<clus scale="  294.112">  1  9  2 -1</clus>
<clus scale="  294.112">  1  5  2 -1</clus>
</clustering>
</event>
<event>
 9    1  0.1487426E-004  0.1303995E+03  0.7546771E-02  0.1229838E+00
          1   -1    0    0  502    0 -0.00000000000E+00  0.00000000000E+00  0.16169106187E+04  0.16169106187E+04  0.00000000000E+00 0. -1.
         21   -1    0    0  501  502  0.00000000000E+00 -0.00000000000E+00 -0.50392269554E+02  0.50392269554E+02  0.00000000000E+00 0. -1.
        -24    2    1    2    0    0 -0.47010431794E+02  0.70952099905E+02  0.87626864422E+03  0.88395628792E+03  0.79295655153E+02 0.  0.
         23    2    1    2    0    0  0.83573644520E+02 -0.16482685125E+03  0.21570685879E+03  0.29822780016E+03  0.90873136331E+02 0.  0.
         13    1    3    3    0    0  0.11515932333E+02  0.43926881530E+02  0.22717248712E+03  0.23166684382E+03  0.00000000000E+00 0. -1.
        -14    1    3    3    0    0 -0.58526364126E+02  0.27025218375E+02  0.64909615710E+03  0.65228944410E+03  0.00000000000E+00 0.  1.
        -11    1    4    4    0    0  0.43173830685E+02 -0.81996363554E+01  0.40340883590E+02  0.59654007252E+02  0.00000000000E+00 0.  1.
         11    1    4    4    0    0  0.40399813835E+02 -0.15662721490E+03  0.17536597520E+03  0.23857379291E+03  0.00000000000E+00 0. -1.
          2    1    1    2  501    0 -0.36563212726E+02  0.93874751347E+02  0.47454284611E+03  0.48511880016E+03  0.00000000000E+00 0. -1.
<scales pt_clust_5="13000.00000" pt_clust_6="13000.00000" pt_clust_7="13000.00000" pt_clust_8="13000.00000" pt_clust_9="100.74397"></scales>
<clustering>
<clus scale="   79.296">  5  6 -1 -1</clus>
<clus scale="   90.873">  7  8 -1 -1</clus>
<clus scale="  100.744">  2  9  1 -1</clus>
<clus scale="  122.613">  1  5  2 -1</clus>
<clus scale="  100.744">  2  5  1 -1</clus>
</clustering>
</event>
<event>
 9    1  0.1487426E-004  0.1603678E+03  0.7546771E-02  0.1201016E+00
          1   -1    0    0  502    0 -0.00000000000E+00  0.00000000000E+00  0.13260627757E+04  0.13260627757E+04  0.00000000000E+00 0. -1.
         21   -1    0    0  501  502  0.00000000000E+00 -0.00000000000E+00 -0.11514391027E+03  0.11514391027E+03  0.00000000000E+00 0. -1.
         23    2    1    2    0    0 -0.67977109488E+02  0.35321648495E+02 -0.31653809672E+02  0.12537135048E+03  0.94061180023E+02 0.  0.
        -24    2    1    2    0    0  0.16005300457E+03 -0.12620415277E+03  0.11068051170E+04  0.11282975263E+04  0.80580943596E+02 0.  0.
         11    1    4    4    0    0  0.11352169282E+03 -0.12809012533E+03  0.91919363208E+03  0.93499261399E+03  0.00000000000E+00 0. -1.
        -12    1    4    4    0    0  0.46531311750E+02  0.18859725572E+01  0.18761148488E+03  0.19330491231E+03  0.00000000000E+00 0.  1.
        -13    1    3    3    0    0 -0.58395420703E+02  0.65170421472E+02 -0.11882929145E+02  0.88308623582E+02  0.00000000000E+00 0.  1.
         13    1    3    3    0    0 -0.95816887844E+01 -0.29848772977E+02 -0.19770880527E+02  0.37062726896E+02  0.00000000000E+00 0. -1.
          2    1    1    2  501    0 -0.92075895078E+02  0.90882504278E+02  0.13576755819E+03  0.18753780924E+03  0.00000000000E+00 0. -1.
<scales pt_clust_5="13000.00000" pt_clust_6="13000.00000" pt_clust_7="13000.00000" pt_clust_8="13000.00000" pt_clust_9="138.65262"></scales>
<clustering>
<clus scale="   80.581">  5  6 -1 -1</clus>
<clus scale="   94.061">  7  8 -1 -1</clus>
<clus scale="  121.310">  1  7  2 -1</clus>
<clus scale="  138.653">  2  9  1 -1</clus>
<clus scale="  138.653">  2  5  1 -1</clus>
</clustering>
</event>
<event>
 9    1  0.1487426E-004  0.1538955E+03  0.7546771E-02  0.1224795E+00
          3   -1    0    0  502    0 -0.00000000000E+00  0.00000000000E+00  0.17352031428E+03  0.17352031428E+03  0.00000000000E+00 0. -1.
         21   -1    0    0  501  502  0.00000000000E+00 -0.00000000000E+00 -0.19345153807E+03  0.19345153807E+03  0.00000000000E+00 0. -1.
        -24    2    1    2    0    0 -0.12661742766E+02  0.16502439597E+02  0.47867624791E+01  0.82954383646E+02  0.80161502160E+02 0.  0.
         23    2    1    2    0    0  0.11914702876E+03  0.42151322724E+02  0.11592219311E+02  0.15714031947E+03  0.92660412181E+02 0.  0.
         13    1    3    3    0    0 -0.29459530289E+02  0.37523401031E+02 -0.14485227988E+02  0.49856708472E+02  0.00000000000E+00 0. -1.
        -14    1    3    3    0    0  0.16797787523E+02 -0.21020961435E+02  0.19271990467E+02  0.33097675173E+02  0.00000000000E+00 0.  1.
        -11    1    4    4    0    0  0.43924819121E+02 -0.27794212951E+02  0.15827497078E+02  0.54336154374E+02  0.00000000000E+00 0.  1.
         11    1    4    4    0    0  0.75222209635E+02  0.69945535674E+02 -0.42352777674E+01  0.10280416510E+03  0.00000000000E+00 0. -1.
          4    1    1    2  501    0 -0.10648528599E+03 -0.58653762320E+02 -0.36310205581E+02  0.12687714923E+03  0.00000000000E+00 0. -1.
<scales pt_clust_5="13000.00000" pt_clust_6="13000.00000" pt_clust_7="13000.00000" pt_clust_8="13000.00000" pt_clust_9="122.87335"></scales>
<clustering>
<clus scale="   80.162">  5  6 -1 -1</clus>
<clus scale="   82.816">  1  5  2 -1</clus>
<clus scale="   92.660">  7  8 -1 -1</clus>
<clus scale="  122.873">  2  9  1 -1</clus>
<clus scale="  122.873">  2  5  1 -1</clus>
</clustering>
</event>
<event>
 9    1  0.1487426E-004  0.1487414E+03  0.7546771E-02  0.1227377E+00
         21   -1    0    0  501  502  0.00000000000E+00  0.00000000000E+00  0.82741790026E+02  0.82741790026E+02  0.00000000000E+00 0. -1.
          1   -1    0    0  502    0 -0.00000000000E+00 -0.00000000000E+00 -0.50294976668E+03  0.50294976668E+03  0.00000000000E+00 0. -1.
        -24    2    1    2    0    0 -0.33713259932E+02 -0.96841666389E+01  0.18062689511E+01  0.86951619401E+02  0.79542155680E+02 0.  0.
         23    2    1    2    0    0 -0.13518755837E+02  0.11436970559E+03 -0.21679915790E+03  0.26357370333E+03  0.95948089650E+02 0.  0.
         11    1    3    3    0    0 -0.40292118413E+02  0.22286403611E+02  0.19291351983E+02  0.49922889074E+02  0.00000000000E+00 0. -1.
        -12    1    3    3    0    0  0.65788584807E+01 -0.31970570250E+02 -0.17485083032E+02  0.37028730328E+02  0.00000000000E+00 0.  1.
        -13    1    4    4    0    0  0.26926583150E+02  0.50119395995E+01 -0.75879372514E+02  0.80671181917E+02  0.00000000000E+00 0.  1.
         13    1    4    4    0    0 -0.40445338987E+02  0.10935776599E+03 -0.14091978538E+03  0.18290252141E+03  0.00000000000E+00 0. -1.
          2    1    1    2  501    0  0.47232015769E+02 -0.10468553895E+03 -0.20521508771E+03  0.23516623397E+03  0.00000000000E+00 0. -1.
<scales pt_clust_5="13000.00000" pt_clust_6="13000.00000" pt_clust_7="13000.00000" pt_clust_8="13000.00000" pt_clust_9="113.65723"></scales>
<clustering>
<clus scale="   79.542">  5  6 -1 -1</clus>
<clus scale="   86.933">  2  5  1 -1</clus>
<clus scale="   95.948">  7  8 -1 -1</clus>
<clus scale="  113.657">  1  9  2 -1</clus>
<clus scale="  113.657">  1  5  2 -1</clus>
</clustering>
</event>
<event>
 9    1  0.1487426E-004  0.1043635E+03  0.7546771E-02  0.1280285E+00
          1   -1    0    0  502    0 -0.00000000000E+00  0.00000000000E+00  0.47964761447E+02  0.47964761447E+02  0.00000000000E+00 0. -1.
         21   -1    0    0  501  502  0.00000000000E+00 -0.00000000000E+00 -0.38363414046E+03  0.38363414046E+03  0.00000000000E+00 0.  1.
         23    2    1    2    0    0  0.11794556377E+02  0.41836341716E+02 -0.82944006099E+02  0.13478174332E+03  0.96938223304E+02 0.  0.
        -24    2    1    2    0    0 -0.46105585593E+02 -0.87437233359E+01 -0.22153621448E+03  0.23985110096E+03  0.79044788478E+02 0.  0.
         13    1    4    4    0    0 -0.26019663704E+02 -0.34412229993E+02 -0.53719339135E+02  0.68898417032E+02  0.00000000000E+00 0. -1.
        -14    1    4    4    0    0 -0.20085921889E+02  0.25668506658E+02 -0.16781687534E+03  0.17095268393E+03  0.00000000000E+00 0.  1.
        -13    1    3    3    0    0 -0.27557009826E+02 -0.25075557590E+01  0.55904907866E+01  0.28229952421E+02  0.00000000000E+00 0.  1.
         13    1    3    3    0    0  0.39351566203E+02  0.44343897475E+02 -0.88534496886E+02  0.10655179090E+03  0.00000000000E+00 0. -1.
          2    1    1    2  501    0  0.34311029216E+02 -0.33092618380E+02 -0.31189158433E+02  0.56966057621E+02  0.00000000000E+00 0. -1.
<scales pt_clust_5="13000.00000" pt_clust_6="13000.00000" pt_clust_7="13000.00000" pt_clust_8="13000.00000" pt_clust_9="47.66939"></scales>
<clustering>
<clus scale="   47.669">  2  9  1 -1</clus>
<clus scale="   79.045">  5  6 -1 -1</clus>
<clus scale="   87.993">  2  5  1 -1</clus>
<clus scale="   96.938">  7  8 -1 -1</clus>
<clus scale="   47.669">  2  5  1 -1</clus>
</clustering>
</event>
<event>
 9    1  0.1487426E-004  0.1007650E+03  0.7546771E-02  0.1283732E+00
         21   -1    0    0  501  502  0.00000000000E+00  0.00000000000E+00  0.31783493743E+02  0.31783493743E+02  0.00000000000E+00 0.  1.
          1   -1    0    0  502    0 -0.00000000000E+00 -0.00000000000E+00 -0.51863332306E+03  0.51863332306E+03  0.00000000000E+00 0. -1.
         23    2    1    2    0    0 -0.57483447032E+01 -0.37742904385E+02 -0.37029016003E+03  0.38325724783E+03  0.91179740618E+02 0.  0.
        -24    2    1    2    0    0  0.10512025913E+02  0.57293517442E+02 -0.96716158940E+02  0.13889857054E+03  0.80905795025E+02 0.  0.
         13    1    4    4    0    0  0.11044395755E+02  0.68672832024E+02 -0.10419019596E+03  0.12527383394E+03  0.00000000000E+00 0. -1.
        -14    1    4    4    0    0 -0.53236984261E+00 -0.11379314582E+02  0.74740370221E+01  0.13624736600E+02  0.00000000000E+00 0.  1.
        -13    1    3    3    0    0 -0.39049286426E+02  0.87146338586E+01 -0.11892170746E+03  0.12547176622E+03  0.00000000000E+00 0.  1.
         13    1    3    3    0    0  0.33300941723E+02 -0.46457538243E+02 -0.25136845257E+03  0.25778548160E+03  0.00000000000E+00 0. -1.
          2    1    1    2  501    0 -0.47636812094E+01 -0.19550613057E+02 -0.19843510348E+02  0.28260998434E+02  0.00000000000E+00 0. -1.
<scales pt_clust_5="13000.00000" pt_clust_6="13000.00000" pt_clust_7="13000.00000" pt_clust_8="13000.00000" pt_clust_9="20.12260"></scales>
<clustering>
<clus scale="   20.123">  1  9  2 -1</clus>
<clus scale="   80.906">  5  6 -1 -1</clus>
<clus scale="   91.180">  7  8 -1 -1</clus>
<clus scale="   91.573">  1  5  2 -1</clus>
<clus scale="   20.123">  1  5  2 -1</clus>
</clustering>
</event>
<event>
 9    1  0.1487426E-004  0.1422824E+03  0.7546771E-02  0.1217420E+00
         21   -1    0    0  501  502  0.00000000000E+00  0.00000000000E+00  0.54165890345E+02  0.54165890345E+02  0.00000000000E+00 0. -1.
          1   -1    0    0  502    0 -0.00000000000E+00 -0.00000000000E+00 -0.83903784075E+03  0.83903784075E+03  0.00000000000E+00 0. -1.
        -24    2    1    2    0    0  0.78792977247E+02 -0.20340128588E+02 -0.36202050063E+03  0.37757907810E+03  0.69893227482E+02 0.  0.
         23    2    1    2    0    0 -0.14094086402E+03  0.83708846404E+02 -0.35532426602E+03  0.40409943265E+03  0.10084403466E+03 0.  0.
         13    1    3    3    0    0  0.78378659750E+02  0.81261212075E+01 -0.26464935169E+03  0.27613135914E+03  0.00000000000E+00 0. -1.
        -14    1    3    3    0    0  0.41431749681E+00 -0.28466249795E+02 -0.97371148946E+02  0.10144771897E+03  0.00000000000E+00 0.  1.
        -13    1    4    4    0    0 -0.81482110238E+02 -0.76637083789E+01 -0.17855488482E+03  0.19641770187E+03  0.00000000000E+00 0.  1.
         13    1    4    4    0    0 -0.59458753778E+02  0.91372554783E+02 -0.17676938120E+03  0.20768173078E+03  0.00000000000E+00 0. -1.
          2    1    1    2  501    0  0.62147886769E+02 -0.63368717817E+02 -0.67527183752E+02  0.11152522035E+03  0.00000000000E+00 0. -1.
<scales pt_clust_5="13000.00000" pt_clust_6="13000.00000" pt_clust_7="13000.00000" pt_clust_8="13000.00000" pt_clust_9="88.75784"></scales>
<clustering>
<clus scale="   69.893">  5  6 -1 -1</clus>
<clus scale="   88.758">  1  9  2 -1</clus>
<clus scale="  100.844">  7  8 -1 -1</clus>
<clus scale="  122.310">  2  5  1 -1</clus>
<clus scale="   88.758">  1  5  2 -1</clus>
</clustering>
</event>
<event>
 9    1  0.1487426E-004  0.1146468E+03  0.7546771E-02  0.1257409E+00
         21   -1    0    0  501  502  0.00000000000E+00  0.00000000000E+00  0.23535457300E+03  0.23535457300E+03  0.00000000000E+00 0. -1.
         -2   -1    0    0    0  501 -0.00000000000E+00 -0.00000000000E+00 -0.14505587024E+03  0.14505587024E+03  0.00000000000E+00 0.  1.
        -24    2    1    2    0    0  0.17126530494E+02 -0.58936811317E+02 -0.50093598230E+02  0.11245744775E+03  0.79815056191E+02 0.  0.
         23    2    1    2    0    0 -0.52133292563E+02  0.80643029257E+02  0.17040759601E+03  0.21698681825E+03  0.93932700131E+02 0.  0.
         13    1    3    3    0    0  0.22084538543E+02  0.14880154878E+02 -0.15140052664E+02  0.30632777324E+02  0.00000000000E+00 0. -1.
        -14    1    3    3    0    0 -0.49580080494E+01 -0.73816966195E+02 -0.34953545565E+02  0.81824670421E+02  0.00000000000E+00 0.  1.
        -11    1    4    4    0    0 -0.14496388234E+02  0.79502782983E+02  0.15777940449E+03  0.17727148179E+03  0.00000000000E+00 0. -1.
         11    1    4    4    0    0 -0.37636904329E+02  0.11402462739E+01  0.12628191520E+02  0.39715336460E+02  0.00000000000E+00 0.  1.
         -1    1    1    2    0  502  0.35006762069E+02 -0.21706217940E+02 -0.30015295028E+02  0.50966177250E+02  0.00000000000E+00 0.  1.
<scales pt_clust_5="13000.00000" pt_clust_6="13000.00000" pt_clust_7="13000.00000" pt_clust_8="13000.00000" pt_clust_9="41.19023"></scales>
<clustering>
<clus scale="   41.190">  1  9  2 -1</clus>
<clus scale="   79.815">  5  6 -1 -1</clus>
<clus scale="   93.933">  7  8 -1 -1</clus>
<clus scale="  103.397">  2  5  1 -1</clus>
<clus scale="   41.190">  1  5  2 -1</clus>
</clustering>
</event>
<event>
 9    1  0.1487426E-004  0.1945125E+03  0.7546771E-02  0.1164510E+00
         -2   -1    0    0    0  501 -0.00000000000E+00  0.00000000000E+00  0.15034007454E+04  0.15034007454E+04  0.00000000000E+00 0.  1.
         21   -1    0    0  501  502  0.00000000000E+00 -0.00000000000E+00 -0.16950600310E+03  0.16950600310E+03  0.00000000000E+00 0.  1.
         23    2    1    2    0    0  0.48539251508E+02  0.10201339448E+03  0.50606151551E+02  0.16198723582E+03  0.10448009573E+03 0.  0.
        -24    2    1    2    0    0  0.11695016052E+03 -0.57287452201E+02  0.13245871088E+04  0.13345882250E+04  0.98160731557E+02 0.  0.
         13    1    4    4    0    0  0.77708722192E+01  0.20682867508E+02  0.87459039870E+02  0.90206713267E+02  0.00000000000E+00 0. -1.
        -14    1    4    4    0    0  0.10917928830E+03 -0.77970319708E+02  0.12371280690E+04  0.12443815118E+04  0.00000000000E+00 0.  1.
        -13    1    3    3    0    0  0.50317468848E+02 -0.11139415385E+01  0.11112644198E+02  0.51542015852E+02  0.00000000000E+00 0.  1.
         13    1    3    3    0    0 -0.17782173399E+01  0.10312733601E+03  0.39493507352E+02  0.11044521997E+03  0.00000000000E+00 0. -1.
         -1    1    1    2    0  502 -0.16548941203E+03 -0.44725942275E+02 -0.41298518107E+02  0.17633128765E+03  0.00000000000E+00 0.  1.
<scales pt_clust_5="13000.00000" pt_clust_6="13000.00000" pt_clust_7="13000.00000" pt_clust_8="13000.00000" pt_clust_9="167.92735"></scales>
<clustering>
<clus scale="   98.161">  5  6 -1 -1</clus>
<clus scale="  104.480">  7  8 -1 -1</clus>
<clus scale="  153.880">  1  7  2 -1</clus>
<clus scale="  167.927">  2  9  1 -1</clus>
<clus scale="  167.927">  2  5  1 -1</clus>
</clustering>
</event>
<event>
 9    1  0.1487426E-004  0.1065979E+03  0.7546771E-02  0.1272821E+00
         21   -1    0    0  501  502  0.00000000000E+00  0.00000000000E+00  0.48336569809E+02  0.48336569809E+02  0.00000000000E+00 0. -1.
          1   -1    0    0  502    0 -0.00000000000E+00 -0.00000000000E+00 -0.58188726907E+03  0.58188726907E+03  0.00000000000E+00 0. -1.
         23    2    1    2    0    0  0.59030355134E+02  0.19752715187E+02 -0.35104185945E+03  0.36851918070E+03  0.93280474228E+02 0.  0.
        -24    2    1    2    0    0 -0.42296033829E+02  0.25116398320E+02 -0.19118913035E+03  0.21303616426E+03  0.80070817264E+02 0.  0.
         13    1    4    4    0    0 -0.30673362155E+02  0.15577114321E+02 -0.19460048091E+03  0.19761793645E+03  0.00000000000E+00 0. -1.
        -14    1    4    4    0    0 -0.11622671674E+02  0.95392839985E+01  0.34113505644E+01  0.15418227808E+02  0.00000000000E+00 0.  1.
        -11    1    3    3    0    0  0.84456136348E+01 -0.34930022244E+02 -0.14623880375E+03  0.15058958320E+03  0.00000000000E+00 0. -1.
         11    1    3    3    0    0  0.50584741499E+02  0.54682737430E+02 -0.20480305570E+03  0.21792959750E+03  0.00000000000E+00 0.  1.
          2    1    1    2  501    0 -0.16734321304E+02 -0.44869113507E+02  0.86802905399E+01  0.48668493918E+02  0.00000000000E+00 0. -1.
<scales pt_clust_5="13000.00000" pt_clust_6="13000.00000" pt_clust_7="13000.00000" pt_clust_8="13000.00000" pt_clust_9="47.88815"></scales>
<clustering>
<clus scale="   47.888">  1  9  2 -1</clus>
<clus scale="   80.071">  5  6 -1 -1</clus>
<clus scale="   93.280">  7  8 -1 -1</clus>
<clus scale="   95.253">  1  5  2 -1</clus>
<clus scale="   47.888">  1  5  2 -1</clus>
</clustering>
</event>
<event>
 9    1  0.1487426E-004  0.9262838E+02  0.7546771E-02  0.1306549E+00
         -2   -1    0    0    0  501 -0.00000000000E+00  0.00000000000E+00  0.67453117326E+03  0.67453117326E+03  0.00000000000E+00 0.  1.
         21   -1    0    0  501  502  0.00000000000E+00 -0.00000000000E+00 -0.38827771173E+02  0.38827771173E+02  0.00000000000E+00 0.  1.
        -24    2    1    2    0    0  0.30571659528E+02  0.39303511937E+01  0.36042047200E+03  0.36931596395E+03  0.74439845262E+02 0.  0.
         23    2    1    2    0    0  0.45675708441E+02  0.54415576758E+00  0.65038497277E+02  0.12035479604E+03  0.90380884893E+02 0.  0.
         13    1    3    3    0    0  0.24676934605E+02 -0.10931497406E+02  0.38607814368E+02  0.47106390940E+02  0.00000000000E+00 0. -1.
        -14    1    3    3    0    0  0.58947249223E+01  0.14861848600E+02  0.32181265763E+03  0.32220957301E+03  0.00000000000E+00 0.  1.
        -11    1    4    4    0    0  0.14606866943E+02  0.19832012951E+02  0.77813410425E+02  0.81618601688E+02  0.00000000000E+00 0. -1.
         11    1    4    4    0    0  0.31068841498E+02 -0.19287857183E+02 -0.12774913148E+02  0.38736194349E+02  0.00000000000E+00 0.  1.
         -1    1    1    2    0  502 -0.76247367968E+02 -0.44745069613E+01  0.21024443280E+03  0.22368818444E+03  0.00000000000E+00 0.  1.
<scales pt_clust_5="13000.00000" pt_clust_6="13000.00000" pt_clust_7="13000.00000" pt_clust_8="13000.00000" pt_clust_9="76.37858"></scales>
<clustering>
<clus scale="   74.440">  5  6 -1 -1</clus>
<clus scale="   76.379">  2  9  1 -1</clus>
<clus scale="   77.153">  1  5  2 -1</clus>
<clus scale="   90.381">  7  8 -1 -1</clus>
<clus scale="   76.379">  2  5  1 -1</clus>
</clustering>
</event>
<event>
 9    1  0.1487426E-004  0.9223818E+02  0.7546771E-02  0.1303884E+00
         21   -1    0    0  501  502  0.00000000000E+00  0.00000000000E+00  0.30633988163E+03  0.30633988163E+03  0.00000000000E+00 0. -1.
          3   -1    0    0  502    0 -0.00000000000E+00 -0.00000000000E+00 -0.90211665614E+02  0.90211665614E+02  0.00000000000E+00 0. -1.
         23    2    1    2    0    0  0.52059136132E+00  0.18217962376E+02 -0.32209472386E+02  0.97650409942E+02  0.90365852411E+02 0.  0.
        -24    2    1    2    0    0 -0.62462158561E+02 -0.34042694298E+00  0.16221731873E+03  0.19132287699E+03  0.79927139441E+02 0.  0.
         11    1    4    4    0    0  0.14883207265E+00 -0.30264947590E+02  0.66830196027E+02  0.73363916912E+02  0.00000000000E+00 0. -1.
        -12    1    4    4    0    0 -0.62610990633E+02  0.29924520647E+02  0.95387122707E+02  0.11795896008E+03  0.00000000000E+00 0.  1.
        -13    1    3    3    0    0  0.44580446058E+02  0.29737718508E+01 -0.90268158623E+01  0.45582265130E+02  0.00000000000E+00 0.  1.
         13    1    3    3    0    0 -0.44059854697E+02  0.15244190525E+02 -0.23182656524E+02  0.52068144812E+02  0.00000000000E+00 0. -1.
          4    1    1    2  501    0  0.61941567199E+02 -0.17877535433E+02  0.86120369671E+02  0.10757826032E+03  0.00000000000E+00 0. -1.
<scales pt_clust_5="13000.00000" pt_clust_6="13000.00000" pt_clust_7="13000.00000" pt_clust_8="13000.00000" pt_clust_9="64.46987"></scales>
<clustering>
<clus scale="   64.470">  1  9  2 -1</clus>
<clus scale="   79.927">  5  6 -1 -1</clus>
<clus scale="   82.038">  1  5  2 -1</clus>
<clus scale="   90.366">  7  8 -1 -1</clus>
<clus scale="   64.470">  1  5  2 -1</clus>
</clustering>
</event>
<event>
 9    1  0.1487426E-004  0.9235470E+02  0.7546771E-02  0.1302899E+00
          1   -1    0    0  502    0 -0.00000000000E+00  0.00000000000E+00  0.28689858326E+03  0.28689858326E+03  0.00000000000E+00 0. -1.
         21   -1    0    0  501  502  0.00000000000E+00 -0.00000000000E+00 -0.46177064331E+02  0.46177064331E+02  0.00000000000E+00 0. -1.
         23    2    1    2    0    0  0.11109604985E+02  0.11865572375E+02  0.18845257870E+03  0.20990981207E+03  0.91013953069E+02 0.  0.
        -24    2    1    2    0    0  0.79137709665E+01 -0.21203668812E+02  0.56032951405E+02  0.10164243762E+03  0.81726801841E+02 0.  0.
         13    1    4    4    0    0  0.31888246963E+01  0.27809655342E+02  0.13035685040E+01  0.28022220184E+02  0.00000000000E+00 0. -1.
        -14    1    4    4    0    0  0.47249462702E+01 -0.49013324155E+02  0.54729382901E+02  0.73620217431E+02  0.00000000000E+00 0.  1.
        -13    1    3    3    0    0  0.47094596361E+02  0.25079657803E+02  0.96129381728E+02  0.10994429623E+03  0.00000000000E+00 0. -1.
         13    1    3    3    0    0 -0.35984991376E+02 -0.13214085428E+02  0.92323196969E+02  0.99965515837E+02  0.00000000000E+00 0.  1.
          2    1    1    2  501    0 -0.19023375952E+02  0.93380964376E+01 -0.37640111695E+01  0.21523397914E+02  0.00000000000E+00 0. -1.
<scales pt_clust_5="13000.00000" pt_clust_6="13000.00000" pt_clust_7="13000.00000" pt_clust_8="13000.00000" pt_clust_9="21.19172"></scales>
<clustering>
<clus scale="   21.192">  2  9  1 -1</clus>
<clus scale="   81.727">  5  6 -1 -1</clus>
<clus scale="   83.217">  2  5  1 -1</clus>
<clus scale="   91.014">  7  8 -1 -1</clus>
<clus scale="   21.192">  2  5  1 -1</clus>
</clustering>
</event>
<event>
 9    1  0.1487426E-004  0.1481128E+03  0.7546771E-02  0.1204625E+00
         21   -1    0    0  501  502  0.00000000000E+00  0.00000000000E+00  0.21544115051E+03  0.21544115051E+03  0.00000000000E+00 0.  1.
          1   -1    0    0  502    0 -0.00000000000E+00 -0.00000000000E+00 -0.18568019184E+03  0.18568019184E+03  0.00000000000E+00 0. -1.
        -24    2    1    2    0    0  0.76057814690E+02 -0.77273804230E+02 -0.65015865782E+02  0.15090363367E+03  0.82394246494E+02 0.  0.
         23    2    1    2    0    0 -0.61754046123E+02  0.13305425196E+03  0.80512985969E+02  0.19089222316E+03  0.91872214383E+02 0.  0.
         13    1    3    3    0    0  0.78329354037E+02 -0.91632614945E+02 -0.63600164221E+02  0.13629748609E+03  0.00000000000E+00 0. -1.
        -14    1    3    3    0    0 -0.22715393466E+01  0.14358810716E+02 -0.14157015613E+01  0.14606147578E+02  0.00000000000E+00 0.  1.
        -13    1    4    4    0    0 -0.62809875703E+02  0.29808480516E+02  0.37998437338E+02  0.79230721546E+02  0.00000000000E+00 0. -1.
         13    1    4    4    0    0  0.10558295804E+01  0.10324577144E+03  0.42514548631E+02  0.11166150161E+03  0.00000000000E+00 0.  1.
          2    1    1    2  501    0 -0.14303768567E+02 -0.55780447730E+02  0.14263838479E+02  0.59325485521E+02  0.00000000000E+00 0. -1.
<scales pt_clust_5="13000.00000" pt_clust_6="13000.00000" pt_clust_7="13000.00000" pt_clust_8="13000.00000" pt_clust_9="57.58521"></scales>
<clustering>
<clus scale="   57.585">  1  9  2 -1</clus>
<clus scale="   82.394">  5  6 -1 -1</clus>
<clus scale="   91.872">  7  8 -1 -1</clus>
<clus scale="  142.428">  2  5  1 -1</clus>
<clus scale="   57.585">  1  5  2 -1</clus>
</clustering>
</event>
<event>
 9    1  0.1487426E-004  0.1918331E+03  0.7546771E-02  0.1157843E+00
         21   -1    0    0  501  502  0.00000000000E+00  0.00000000000E+00  0.38442377313E+02  0.38442377313E+02  0.00000000000E+00 0.  1.
         -2   -1    0    0    0  501 -0.00000000000E+00 -0.00000000000E+00 -0.11711764857E+04  0.11711764857E+04  0.00000000000E+00 0.  1.
        -24    2    1    2    0    0 -0.52369931923E+02 -0.18014914908E+03 -0.58025960041E+03  0.61526276621E+03  0.81552081062E+02 0.  0.
         23    2    1    2    0    0  0.50666454693E+02  0.13993107457E+03 -0.39669497596E+03  0.43345967687E+03  0.91501870272E+02 0.  0.
         13    1    3    3    0    0 -0.20168496559E+02  0.88884743474E+00 -0.71400968167E+02  0.74200111580E+02  0.00000000000E+00 0. -1.
        -14    1    3    3    0    0 -0.32201435364E+02 -0.18103799652E+03 -0.50885863224E+03  0.54106265463E+03  0.00000000000E+00 0.  1.
        -13    1    4    4    0    0  0.71704628567E+02  0.13498079054E+03 -0.35469031296E+03  0.38622090270E+03  0.00000000000E+00 0.  1.
         13    1    4    4    0    0 -0.21038173874E+02  0.49502840239E+01 -0.42004663003E+02  0.47238774178E+02  0.00000000000E+00 0. -1.
         -1    1    1    2    0  502  0.17034772300E+01  0.40218074514E+02 -0.15577953200E+03  0.16089641992E+03  0.00000000000E+00 0.  1.
<scales pt_clust_5="13000.00000" pt_clust_6="13000.00000" pt_clust_7="13000.00000" pt_clust_8="13000.00000" pt_clust_9="40.25415"></scales>
<clustering>
<clus scale="   40.254">  1  9  2 -1</clus>
<clus scale="   81.552">  5  6 -1 -1</clus>
<clus scale="   91.502">  7  8 -1 -1</clus>
<clus scale="  187.291">  2  5  1 -1</clus>
<clus scale="   40.254">  1  5  2 -1</clus>
</clustering>
</event>
<event>
 9    1  0.1487426E-004  0.1620593E+03  0.7546771E-02  0.1213807E+00
         21   -1    0    0  501  502  0.00000000000E+00  0.00000000000E+00  0.59077019684E+03  0.59077019684E+03  0.00000000000E+00 0.  1.
         -2   -1    0    0    0  501 -0.00000000000E+00 -0.00000000000E+00 -0.20992274497E+03  0.20992274497E+03  0.00000000000E+00 0.  1.
         23    2    1    2    0    0 -0.12638742413E+02 -0.14993754180E+00  0.95512782530E+02  0.13078915462E+03  0.88449709150E+02 0.  0.
        -24    2    1    2    0    0  0.31081707294E+02 -0.14139500367E+03 -0.14361915614E+03  0.21782359769E+03  0.76563947832E+02 0.  0.
         13    1    4    4    0    0 -0.23747170823E+02 -0.34392499617E+02 -0.51697055207E+02  0.66478249594E+02  0.00000000000E+00 0. -1.
        -14    1    4    4    0    0  0.54828878117E+02 -0.10700250406E+03 -0.91922100935E+02  0.15134534810E+03  0.00000000000E+00 0.  1.
        -13    1    3    3    0    0  0.37028963611E+02  0.10794659789E+01  0.56763418631E+02  0.67781967275E+02  0.00000000000E+00 0. -1.
         13    1    3    3    0    0 -0.49667706024E+02 -0.12294035207E+01  0.38749363898E+02  0.63007187346E+02  0.00000000000E+00 0.  1.
         -1    1    1    2    0  502 -0.18442964881E+02  0.14154494122E+03  0.42895382549E+03  0.45208018950E+03  0.00000000000E+00 0.  1.
<scales pt_clust_5="13000.00000" pt_clust_6="13000.00000" pt_clust_7="13000.00000" pt_clust_8="13000.00000" pt_clust_9="142.83268"></scales>
<clustering>
<clus scale="   76.564">  5  6 -1 -1</clus>
<clus scale="   88.450">  7  8 -1 -1</clus>
<clus scale="   89.348">  2  7  1 -1</clus>
<clus scale="  142.833">  1  9  2 -1</clus>
<clus scale="  142.833">  1  5  2 -1</clus>
</clustering>
</event>
<event>
 9    1  0.1487426E-004  0.1108803E+03  0.7546771E-02  0.1265135E+00
          1   -1    0    0  502    0 -0.00000000000E+00  0.00000000000E+00  0.18899768908E+03  0.18899768908E+03  0.00000000000E+00 0. -1.
         21   -1    0    0  501  502  0.00000000000E+00 -0.00000000000E+00 -0.22962346117E+03  0.22962346117E+03  0.00000000000E+00 0. -1.
         23    2    1    2    0    0  0.75088461519E+01  0.60732321445E+02  0.10583539637E+03  0.15294795104E+03  0.91908361770E+02 0.  0.
        -24    2    1    2    0    0  0.66468697207E+02 -0.71108794514E+02 -0.14557708510E+03  0.19096624025E+03  0.76163435080E+02 0.  0.
         11    1    4    4    0    0  0.83000858122E+02 -0.66005013344E+02 -0.12913563294E+03  0.16709822240E+03  0.00000000000E+00 0. -1.
        -12    1    4    4    0    0 -0.16532160916E+02 -0.51037811695E+01 -0.16441452166E+02  0.23868017850E+02  0.00000000000E+00 0.  1.
        -11    1    3    3    0    0 -0.34595349158E+02  0.49149341437E+01  0.14276987645E+02  0.37746882484E+02  0.00000000000E+00 0.  1.
         11    1    3    3    0    0  0.42104195310E+02  0.55817387301E+02  0.91558408724E+02  0.11520106855E+03  0.00000000000E+00 0. -1.
          2    1    1    2  501    0 -0.73977543359E+02  0.10376473069E+02 -0.88408335376E+00  0.74706958967E+02  0.00000000000E+00 0. -1.
<scales pt_clust_5="13000.00000" pt_clust_6="13000.00000" pt_clust_7="13000.00000" pt_clust_8="13000.00000" pt_clust_9="74.70177"></scales>
<clustering>
<clus scale="   74.702">  2  9  1 -1</clus>
<clus scale="   76.163">  5  6 -1 -1</clus>
<clus scale="   91.908">  7  8 -1 -1</clus>
<clus scale="   98.225">  2  5  1 -1</clus>
<clus scale="   74.702">  2  5  1 -1</clus>
</clustering>
</event>
<event>
 9    1  0.1487426E-004  0.1364408E+03  0.7546771E-02  0.1235041E+00
         21   -1    0    0  501  502  0.00000000000E+00  0.00000000000E+00  0.32395908461E+03  0.32395908461E+03  0.00000000000E+00 0. -1.
          1   -1    0    0  502    0 -0.00000000000E+00 -0.00000000000E+00 -0.14016244455E+03  0.14016244455E+03  0.00000000000E+00 0. -1.
        -24    2    1    2    0    0  0.45733488320E+02  0.21479852016E+02 -0.62873824480E+02  0.11490275528E+03  0.81832691331E+02 0.  0.
         23    2    1    2    0    0 -0.51016124908E+02  0.84809451528E+02  0.99195072213E+02  0.16735532609E+03  0.91503304579E+02 0.  0.
         11    1    3    3    0    0  0.69179190701E+02  0.11203341440E+02 -0.40740651447E+02  0.81062173458E+02  0.00000000000E+00 0. -1.
        -12    1    3    3    0    0 -0.23445702381E+02  0.10276510576E+02 -0.22133173033E+02  0.33840581825E+02  0.00000000000E+00 0.  1.
        -13    1    4    4    0    0 -0.18539201364E+02 -0.18429850396E+02  0.14245746640E+02  0.29770835899E+02  0.00000000000E+00 0.  1.
         13    1    4    4    0    0 -0.32476923544E+02  0.10323930192E+03  0.84949325573E+02  0.13758449019E+03  0.00000000000E+00 0. -1.
          2    1    1    2  501    0  0.52826365879E+01 -0.10628930354E+03  0.14747539233E+03  0.18186344778E+03  0.00000000000E+00 0. -1.
<scales pt_clust_5="13000.00000" pt_clust_6="13000.00000" pt_clust_7="13000.00000" pt_clust_8="13000.00000" pt_clust_9="101.20887"></scales>
<clustering>
<clus scale="   81.833">  5  6 -1 -1</clus>
<clus scale="   91.503">  7  8 -1 -1</clus>
<clus scale="   96.174">  2  5  1 -1</clus>
<clus scale="  101.209">  1  9  2 -1</clus>
<clus scale="  101.209">  1  5  2 -1</clus>
</clustering>
</event>
<event>
 9    1  0.1487426E-004  0.1927696E+03  0.7546771E-02  0.1193224E+00
         21   -1    0    0  501  502  0.00000000000E+00  0.00000000000E+00  0.84010780414E+03  0.84010780414E+03  0.00000000000E+00 0.  1.
         -4   -1    0    0    0  501 -0.00000000000E+00 -0.00000000000E+00 -0.11881490408E+03  0.11881490408E+03  0.00000000000E+00 0.  1.
        -24    2    1    2    0    0  0.33498578221E+01  0.32419107135E+02 -0.56287814331E+02  0.10011558255E+03  0.76109078115E+02 0.  0.
         23    2    1    2    0    0  0.53666571150E+02 -0.17847674996E+03  0.46850058663E+03  0.51223212141E+03  0.90304459476E+02 0.  0.
         11    1    3    3    0    0  0.52738303559E+01  0.57442164367E+02 -0.40038615024E+02  0.70217563521E+02  0.00000000000E+00 0. -1.
        -12    1    3    3    0    0 -0.19239725338E+01 -0.25023057231E+02 -0.16249199307E+02  0.29898019025E+02  0.00000000000E+00 0.  1.
        -11    1    4    4    0    0  0.26302230405E+02 -0.10728336071E+01  0.42988509305E+02  0.50408037340E+02  0.00000000000E+00 0. -1.
         11    1    4    4    0    0  0.27364340745E+02 -0.17740391636E+03  0.42551207732E+03  0.46182408407E+03  0.00000000000E+00 0.  1.
         -3    1    1    2    0  502 -0.57016428972E+02  0.14605764283E+03  0.30908012776E+03  0.34657500426E+03  0.00000000000E+00 0.  1.
<scales pt_clust_5="13000.00000" pt_clust_6="13000.00000" pt_clust_7="13000.00000" pt_clust_8="13000.00000" pt_clust_9="170.30917"></scales>
<clustering>
<clus scale="   76.109">  5  6 -1 -1</clus>
<clus scale="   82.794">  2  5  1 -1</clus>
<clus scale="   90.304">  7  8 -1 -1</clus>
<clus scale="  170.309">  1  9  2 -1</clus>
<clus scale="  170.309">  1  5  2 -1</clus>
</clustering>
</event>
<event>
 9    1  0.1487426E-004  0.1752478E+03  0.7546771E-02  0.1199542E+00
          1   -1    0    0  502    0 -0.00000000000E+00  0.00000000000E+00  0.11828926495E+04  0.11828926495E+04  0.00000000000E+00 0. -1.
         21   -1    0    0  501  502  0.00000000000E+00 -0.00000000000E+00 -0.41418104238E+02  0.41418104238E+02  0.00000000000E+00 0. -1.
         23    2    1    2    0    0  0.24926798728E+02  0.20580360573E+01  0.40570023189E+03  0.41689960863E+03  0.92666200508E+02 0.  0.
        -24    2    1    2    0    0 -0.10144358102E+02 -0.15586490681E+03  0.42951136866E+03  0.46437752379E+03  0.82278135739E+02 0.  0.
         13    1    4    4    0    0 -0.23667275073E+02 -0.11942217385E+03  0.39156818074E+03  0.41005784431E+03  0.00000000000E+00 0. -1.
        -14    1    4    4    0    0  0.13522916970E+02 -0.36442732967E+02  0.37943187924E+02  0.54319679485E+02  0.00000000000E+00 0.  1.
        -11    1    3    3    0    0  0.30317756747E+01  0.46390216936E+02  0.20325680670E+03  0.20850557154E+03  0.00000000000E+00 0.  1.
         11    1    3    3    0    0  0.21895023053E+02 -0.44332180879E+02  0.20244342519E+03  0.20839403710E+03  0.00000000000E+00 0. -1.
          2    1    1    2  501    0 -0.14782440626E+02  0.15380687076E+03  0.30626294470E+03  0.34303362130E+03  0.00000000000E+00 0. -1.
<scales pt_clust_5="13000.00000" pt_clust_6="13000.00000" pt_clust_7="13000.00000" pt_clust_8="13000.00000" pt_clust_9="154.73240"></scales>
<clustering>
<clus scale="   82.278">  5  6 -1 -1</clus>
<clus scale="   92.666">  7  8 -1 -1</clus>
<clus scale="   95.982">  1  7  2 -1</clus>
<clus scale="  154.732">  2  9  1 -1</clus>
<clus scale="  154.732">  2  5  1 -1</clus>
</clustering>
</event>
<event>
 9    1  0.1487426E-004  0.9982892E+02  0.7546771E-02  0.1286335E+00
          3   -1    0    0  502    0 -0.00000000000E+00  0.00000000000E+00  0.12059676857E+03  0.12059676857E+03  0.00000000000E+00 0. -1.
         21   -1    0    0  501  502  0.00000000000E+00 -0.00000000000E+00 -0.11570189792E+03  0.11570189792E+03  0.00000000000E+00 0.  1.
         23    2    1    2    0    0 -0.36394220016E+02 -0.28066086289E+02  0.55909811911E+02  0.11662054930E+03  0.91445070946E+02 0.  0.
        -24    2    1    2    0    0  0.24115662591E+02  0.10407198837E+02 -0.50087140932E+02  0.98149993905E+02  0.80217358763E+02 0.  0.
         11    1    4    4    0    0  0.34785737265E+02 -0.54729496430E+01  0.87466343133E+01  0.36283664461E+02  0.00000000000E+00 0. -1.
        -12    1    4    4    0    0 -0.10670074674E+02  0.15880148480E+02 -0.58833775245E+02  0.61866329444E+02  0.00000000000E+00 0.  1.
        -13    1    3    3    0    0 -0.47632171007E+02 -0.54417664722E+02  0.31100115139E+02  0.78723078638E+02  0.00000000000E+00 0. -1.
         13    1    3    3    0    0  0.11237950991E+02  0.26351578433E+02  0.24809696772E+02  0.37897470659E+02  0.00000000000E+00 0.  1.
          4    1    1    2  501    0  0.12278557425E+02  0.17658887452E+02 -0.92780033043E+00  0.21528123279E+02  0.00000000000E+00 0. -1.
<scales pt_clust_5="13000.00000" pt_clust_6="13000.00000" pt_clust_7="13000.00000" pt_clust_8="13000.00000" pt_clust_9="21.50812"></scales>
<clustering>
<clus scale="   21.508">  2  9  1 -1</clus>
<clus scale="   80.217">  5  6 -1 -1</clus>
<clus scale="   89.657">  2  5  1 -1</clus>
<clus scale="   91.445">  7  8 -1 -1</clus>
<clus scale="   21.508">  2  5  1 -1</clus>
</clustering>
</event>
<event>
 9    1  0.1487426E-004  0.9261627E+02  0.7546771E-02  0.1303559E+00
         21   -1    0    0  501  502  0.00000000000E+00  0.00000000000E+00  0.33728735290E+02  0.33728735290E+02  0.00000000000E+00 0.  1.
          1   -1    0    0  502    0 -0.00000000000E+00 -0.00000000000E+00 -0.72193960017E+03  0.72193960017E+03  0.00000000000E+00 0. -1.
        -24    2    1    2    0    0  0.11547121581E+02  0.14309080418E+02 -0.54307981972E+03  0.54916280629E+03  0.79410398745E+02 0.  0.
         23    2    1    2    0    0  0.79799125918E+01 -0.28760152847E+02 -0.49047356803E+02  0.10739844705E+03  0.90763196408E+02 0.  0.
         11    1    3    3    0    0 -0.19165099476E+02  0.91980780816E+01 -0.41594920853E+02  0.46712344397E+02  0.00000000000E+00 0. -1.
        -12    1    3    3    0    0  0.30712221057E+02  0.51110023363E+01 -0.50148489887E+03  0.50245046190E+03  0.00000000000E+00 0.  1.
        -11    1    4    4    0    0  0.34432507124E+01 -0.55998676123E+02 -0.62303538447E+01  0.56449313654E+02  0.00000000000E+00 0.  1.
         11    1    4    4    0    0  0.45366618794E+01  0.27238523276E+02 -0.42817002958E+02  0.50949133394E+02  0.00000000000E+00 0. -1.
          2    1    1    2  501    0 -0.19527034173E+02  0.14451072429E+02 -0.96083688355E+02  0.99107082117E+02  0.00000000000E+00 0. -1.
<scales pt_clust_5="13000.00000" pt_clust_6="13000.00000" pt_clust_7="13000.00000" pt_clust_8="13000.00000" pt_clust_9="24.29278"></scales>
<clustering>
<clus scale="   24.293">  1  9  2 -1</clus>
<clus scale="   79.410">  5  6 -1 -1</clus>
<clus scale="   81.522">  2  5  1 -1</clus>
<clus scale="   90.763">  7  8 -1 -1</clus>
<clus scale="   24.293">  1  5  2 -1</clus>
</clustering>
</event>
<event>
 9    1  0.1487426E-004  0.2773925E+03  0.7546771E-02  0.1144284E+00
         21   -1    0    0  501  502  0.00000000000E+00  0.00000000000E+00  0.14369643237E+03  0.14369643237E+03  0.00000000000E+00 0. -1.
          1   -1    0    0  502    0 -0.00000000000E+00 -0.00000000000E+00 -0.10427209663E+04  0.10427209663E+04  0.00000000000E+00 0. -1.
        -24    2    1    2    0    0  0.14611272625E+02 -0.26450043159E+02  0.12048715258E+02  0.86209207785E+02  0.79835843433E+02 0.  0.
         23    2    1    2    0    0 -0.23991950718E+03  0.12007853702E+03 -0.19640904609E+03  0.34504263380E+03  0.92182865937E+02 0.  0.
         13    1    3    3    0    0 -0.18778904074E+01 -0.51701105708E+02  0.19254824683E+02  0.55202165514E+02  0.00000000000E+00 0. -1.
        -14    1    3    3    0    0  0.16489163032E+02  0.25251062549E+02 -0.72061094251E+01  0.31007042271E+02  0.00000000000E+00 0.  1.
        -13    1    4    4    0    0 -0.11085304756E+03  0.96064506795E+02 -0.13784481317E+03  0.20129078503E+03  0.00000000000E+00 0.  1.
         13    1    4    4    0    0 -0.12906645962E+03  0.24014030229E+02 -0.58564232915E+02  0.14375184877E+03  0.00000000000E+00 0. -1.
          2    1    1    2  501    0  0.22530823455E+03 -0.93628493865E+02 -0.71466420309E+03  0.75516555708E+03  0.00000000000E+00 0. -1.
<scales pt_clust_5="13000.00000" pt_clust_6="13000.00000" pt_clust_7="13000.00000" pt_clust_8="13000.00000" pt_clust_9="261.62758"></scales>
<clustering>
<clus scale="   79.836">  5  6 -1 -1</clus>
<clus scale="   85.363">  2  5  1 -1</clus>
<clus scale="   92.183">  7  8 -1 -1</clus>
<clus scale="  261.628">  1  9  2 -1</clus>
<clus scale="  261.628">  1  5  2 -1</clus>
</clustering>
</event>
<event>
 9    1  0.1487426E-004  0.9272646E+02  0.7546771E-02  0.1302800E+00
          3   -1    0    0  502    0 -0.00000000000E+00  0.00000000000E+00  0.27193025617E+03  0.27193025617E+03  0.00000000000E+00 0. -1.
         21   -1    0    0  501  502  0.00000000000E+00 -0.00000000000E+00 -0.53651461609E+02  0.53651461609E+02  0.00000000000E+00 0.  1.
         23    2    1    2    0    0  0.94085982689E+01 -0.11871058016E+02  0.18698136182E+03  0.20833862884E+03  0.90628421911E+02 0.  0.
        -24    2    1    2    0    0 -0.48367198440E+01  0.34123507372E+02  0.35633297829E+02  0.94115760925E+02  0.80001480775E+02 0.  0.
         13    1    4    4    0    0 -0.24638711309E+02 -0.18182499789E+02  0.17767317012E+02  0.35402640401E+02  0.00000000000E+00 0. -1.
        -14    1    4    4    0    0  0.19801991465E+02  0.52306007161E+02  0.17865980816E+02  0.58713120524E+02  0.00000000000E+00 0.  1.
        -13    1    3    3    0    0  0.34610517102E+02  0.21331157227E+02  0.46322910954E+02  0.61633742722E+02  0.00000000000E+00 0.  1.
         13    1    3    3    0    0 -0.25201918833E+02 -0.33202215243E+02  0.14065845087E+03  0.14670488612E+03  0.00000000000E+00 0. -1.
          4    1    1    2  501    0 -0.45718784249E+01 -0.22252449356E+02 -0.43358650952E+01  0.23127328008E+02  0.00000000000E+00 0. -1.
<scales pt_clust_5="13000.00000" pt_clust_6="13000.00000" pt_clust_7="13000.00000" pt_clust_8="13000.00000" pt_clust_9="22.71725"></scales>
<clustering>
<clus scale="   22.717">  2  9  1 -1</clus>
<clus scale="   80.001">  5  6 -1 -1</clus>
<clus scale="   82.371">  2  5  1 -1</clus>
<clus scale="   90.628">  7  8 -1 -1</clus>
<clus scale="   22.717">  2  5  1 -1</clus>
</clustering>
</event>
<event>
 9    1  0.1487426E-004  0.1513258E+03  0.7546771E-02  0.1202217E+00
         21   -1    0    0  501  502  0.00000000000E+00  0.00000000000E+00  0.99983279773E+02  0.99983279773E+02  0.00000000000E+00 0. -1.
         -4   -1    0    0    0  501 -0.00000000000E+00 -0.00000000000E+00 -0.31512937144E+03  0.31512937144E+03  0.00000000000E+00 0.  1.
        -24    2    1    2    0    0 -0.80427166235E+02  0.91775868421E+02 -0.19998505763E+03  0.24677355399E+03  0.77535956691E+02 0.  0.
         23    2    1    2    0    0  0.81015578396E+02 -0.68374700353E+02 -0.20958606486E+02  0.14422327790E+03  0.95511607199E+02 0.  0.
         13    1    3    3    0    0 -0.44045541716E+01  0.62504154623E+02 -0.77311144640E+02  0.99514735231E+02  0.00000000000E+00 0. -1.
        -14    1    3    3    0    0 -0.76022612063E+02  0.29271713798E+02 -0.12267391299E+03  0.14725881875E+03  0.00000000000E+00 0.  1.
        -11    1    4    4    0    0  0.58935655872E+02 -0.29786166951E+02 -0.56810709430E+02  0.87109609003E+02  0.00000000000E+00 0.  1.
         11    1    4    4    0    0  0.22079922524E+02 -0.38588533403E+02  0.35852102944E+02  0.57113668892E+02  0.00000000000E+00 0. -1.
         -3    1    1    2    0  502 -0.58841216088E+00 -0.23401168068E+02  0.57975724457E+01  0.24115819332E+02  0.00000000000E+00 0.  1.
<scales pt_clust_5="13000.00000" pt_clust_6="13000.00000" pt_clust_7="13000.00000" pt_clust_8="13000.00000" pt_clust_9="23.40856"></scales>
<clustering>
<clus scale="   23.409">  1  9  2 -1</clus>
<clus scale="   77.536">  5  6 -1 -1</clus>
<clus scale="   95.512">  7  8 -1 -1</clus>
<clus scale="  140.673">  2  5  1 -1</clus>
<clus scale="   23.409">  1  5  2 -1</clus>
</clustering>
</event>
<event>
 9    1  0.1487426E-004  0.1645150E+03  0.7546771E-02  0.1184831E+00
         21   -1    0    0  501  502  0.00000000000E+00  0.00000000000E+00  0.15676868202E+03  0.15676868202E+03  0.00000000000E+00 0. -1.
          3   -1    0    0  502    0 -0.00000000000E+00 -0.00000000000E+00 -0.42142514477E+03  0.42142514477E+03  0.00000000000E+00 0. -1.
        -24    2    1    2    0    0  0.46681679069E+01 -0.14471159158E+03 -0.24390114261E+03  0.29492425710E+03  0.80804167774E+02 0.  0.
         23    2    1    2    0    0  0.80331454691E+02  0.11929072625E+03 -0.68712487815E+02  0.18241796501E+03  0.88721406621E+02 0.  0.
         11    1    3    3    0    0  0.35930266256E+02 -0.12037714882E+03 -0.19541010005E+03  0.23230744541E+03  0.00000000000E+00 0. -1.
        -12    1    3    3    0    0 -0.31262098349E+02 -0.24334442761E+02 -0.48491042564E+02  0.62616811694E+02  0.00000000000E+00 0.  1.
        -13    1    4    4    0    0 -0.17473917345E+02  0.32305956786E+02 -0.24965972874E+02  0.44410724299E+02  0.00000000000E+00 0.  1.
         13    1    4    4    0    0  0.97805372036E+02  0.86984769468E+02 -0.43746514941E+02  0.13800724071E+03  0.00000000000E+00 0. -1.
          4    1    1    2  501    0 -0.84999622598E+02  0.25420865325E+02  0.47957167674E+02  0.10085160468E+03  0.00000000000E+00 0. -1.
<scales pt_clust_5="13000.00000" pt_clust_6="13000.00000" pt_clust_7="13000.00000" pt_clust_8="13000.00000" pt_clust_9="88.71954"></scales>
<clustering>
<clus scale="   80.804">  5  6 -1 -1</clus>
<clus scale="   88.720">  1  9  2 -1</clus>
<clus scale="   88.721">  7  8 -1 -1</clus>
<clus scale="  160.384">  2  5  1 -1</clus>
<clus scale="   88.720">  1  5  2 -1</clus>
</clustering>
</event>
<event>
 9    1  0.1487426E-004  0.1671988E+03  0.7546771E-02  0.1182417E+00
         -2   -1    0    0    0  501 -0.00000000000E+00  0.00000000000E+00  0.84973862923E+02  0.84973862923E+02  0.00000000000E+00 0.  1.
         21   -1    0    0  501  502  0.00000000000E+00 -0.00000000000E+00 -0.57924209375E+03  0.57924209375E+03  0.00000000000E+00 0.  1.
        -24    2    1    2    0    0  0.65752621945E+02  0.12304403612E+03 -0.17576779850E+03  0.23802059011E+03  0.79348851321E+02 0.  0.
         23    2    1    2    0    0 -0.88389213039E+02 -0.11277425675E+03 -0.34828197839E+03  0.38740330410E+03  0.90831148786E+02 0.  0.
         13    1    3    3    0    0  0.21107308811E+02  0.92018279905E+02 -0.15144304307E+03  0.17845973668E+03  0.00000000000E+00 0. -1.
        -14    1    3    3    0    0  0.44645313135E+02  0.31025756218E+02 -0.24324755430E+02  0.59560853423E+02  0.00000000000E+00 0.  1.
        -11    1    4    4    0    0 -0.67737543207E+02 -0.11800672112E+03 -0.23012852629E+03  0.26734453352E+03  0.00000000000E+00 0. -1.
         11    1    4    4    0    0 -0.20651669832E+02  0.52324643769E+01 -0.11815345210E+03  0.12005877058E+03  0.00000000000E+00 0.  1.
         -1    1    1    2    0  502  0.22636591094E+02 -0.10269779375E+02  0.29781546062E+02  0.38792062469E+02  0.00000000000E+00 0.  1.
<scales pt_clust_5="13000.00000" pt_clust_6="13000.00000" pt_clust_7="13000.00000" pt_clust_8="13000.00000" pt_clust_9="24.85728"></scales>
<clustering>
<clus scale="   24.857">  2  9  1 -1</clus>
<clus scale="   79.349">  5  6 -1 -1</clus>
<clus scale="   90.831">  7  8 -1 -1</clus>
<clus scale="  161.249">  1  5  2 -1</clus>
<clus scale="   24.857">  2  5  1 -1</clus>
</clustering>
</event>
<event>
 9    1  0.1487426E-004  0.1023900E+03  0.7546771E-02  0.1279499E+00
          3   -1    0    0  502    0 -0.00000000000E+00  0.00000000000E+00  0.96124306673E+03  0.96124306673E+03  0.00000000000E+00 0. -1.
         21   -1    0    0  501  502  0.00000000000E+00 -0.00000000000E+00 -0.29539601225E+02  0.29539601225E+02  0.00000000000E+00 0.  1.
         23    2    1    2    0    0 -0.25186578246E+02 -0.53582572432E+02  0.50873677853E+03  0.51986302599E+03  0.89101067176E+02 0.  0.
        -24    2    1    2    0    0 -0.24637199718E+02  0.26922335010E+02  0.67150316771E+02  0.11064409961E+03  0.80007174706E+02 0.  0.
         13    1    4    4    0    0  0.22176341215E+02  0.31233349296E+02  0.43687967134E+02  0.58102931856E+02  0.00000000000E+00 0. -1.
        -14    1    4    4    0    0 -0.46813540933E+02 -0.43110142864E+01  0.23462349638E+02  0.52541167758E+02  0.00000000000E+00 0.  1.
        -13    1    3    3    0    0 -0.49642408019E+02 -0.56823183727E+02  0.44796183147E+03  0.45427199489E+03  0.00000000000E+00 0.  1.
         13    1    3    3    0    0  0.24455829774E+02  0.32406112947E+01  0.60774947059E+02  0.65591031106E+02  0.00000000000E+00 0. -1.
          4    1    1    2  501    0  0.49823777964E+02  0.26660237422E+02  0.35581637021E+03  0.36027554235E+03  0.00000000000E+00 0. -1.
<scales pt_clust_5="13000.00000" pt_clust_6="13000.00000" pt_clust_7="13000.00000" pt_clust_8="13000.00000" pt_clust_9="56.50823"></scales>
<clustering>
<clus scale="   56.508">  2  9  1 -1</clus>
<clus scale="   80.007">  5  6 -1 -1</clus>
<clus scale="   89.101">  7  8 -1 -1</clus>
<clus scale="   94.583">  2  5  1 -1</clus>
<clus scale="   56.508">  2  5  1 -1</clus>
</clustering>
</event>
<event>
 9    1  0.1487426E-004  0.1419079E+03  0.7546771E-02  0.1229168E+00
         -4   -1    0    0    0  501 -0.00000000000E+00  0.00000000000E+00  0.55613813037E+03  0.55613813037E+03  0.00000000000E+00 0.  1.
         21   -1    0    0  501  502  0.00000000000E+00 -0.00000000000E+00 -0.11701073183E+03  0.11701073183E+03  0.00000000000E+00 0.  1.
        -24    2    1    2    0    0  0.43552084080E+02 -0.32137959681E+02  0.61072857457E+02  0.11416952553E+03  0.79844562512E+02 0.  0.
         23    2    1    2    0    0  0.44204810232E+02  0.10237002958E+03  0.41659572208E+03  0.44015493355E+03  0.88037955847E+02 0.  0.
         11    1    3    3    0    0  0.21327376601E+02 -0.58326739493E+02  0.40092770918E+02  0.73920875349E+02  0.00000000000E+00 0. -1.
        -12    1    3    3    0    0  0.22224707479E+02  0.26188779812E+02  0.20980086538E+02  0.40248650185E+02  0.00000000000E+00 0.  1.
        -11    1    4    4    0    0  0.45403014911E+02  0.68158121736E+02  0.38485206633E+03  0.39346928251E+03  0.00000000000E+00 0.  1.
         11    1    4    4    0    0 -0.11982046786E+01  0.34211907843E+02  0.31743655756E+02  0.46685651044E+02  0.00000000000E+00 0. -1.
         -3    1    1    2    0  502 -0.87756894312E+02 -0.70232069898E+02 -0.38541180995E+02  0.11882440311E+03  0.00000000000E+00 0.  1.
<scales pt_clust_5="13000.00000" pt_clust_6="13000.00000" pt_clust_7="13000.00000" pt_clust_8="13000.00000" pt_clust_9="111.29766"></scales>
<clustering>
<clus scale="   79.845">  5  6 -1 -1</clus>
<clus scale="   88.038">  7  8 -1 -1</clus>
<clus scale="   96.461">  1  5  2 -1</clus>
<clus scale="  111.298">  2  9  1 -1</clus>
<clus scale="  111.298">  2  5  1 -1</clus>
</clustering>
</event>
<event>
 9    1  0.1487426E-004  0.1082457E+03  0.7546771E-02  0.1271591E+00
         21   -1    0    0  501  502  0.00000000000E+00  0.00000000000E+00  0.74499421932E+02  0.74499421932E+02  0.00000000000E+00 0. -1.
          1   -1    0    0  502    0 -0.00000000000E+00 -0.00000000000E+00 -0.33414731435E+03  0.33414731435E+03  0.00000000000E+00 0. -1.
        -24    2    1    2    0    0 -0.98085658993E+00  0.38684610053E+02 -0.19327461225E+03  0.22426104466E+03  0.10696017614E+03 0.  0.
         23    2    1    2    0    0 -0.21508098105E+02  0.26935856275E+02 -0.59732047377E+02  0.11470137016E+03  0.91653413444E+02 0.  0.
         13    1    3    3    0    0  0.28797279629E+02  0.46140699233E+02 -0.18447697182E+03  0.19232784658E+03  0.00000000000E+00 0. -1.
        -14    1    3    3    0    0 -0.29778136219E+02 -0.74560891800E+01 -0.87976404294E+01  0.31933198081E+02  0.00000000000E+00 0.  1.
        -11    1    4    4    0    0 -0.56847606100E+02  0.82036299440E+01 -0.40780614187E+02  0.70441524381E+02  0.00000000000E+00 0.  1.
         11    1    4    4    0    0  0.35339507995E+02  0.18732226331E+02 -0.18951433189E+02  0.44259845781E+02  0.00000000000E+00 0. -1.
          2    1    1    2  501    0  0.22488954695E+02 -0.65620466328E+02 -0.66412327981E+01  0.69684321460E+02  0.00000000000E+00 0. -1.
<scales pt_clust_5="13000.00000" pt_clust_6="13000.00000" pt_clust_7="13000.00000" pt_clust_8="13000.00000" pt_clust_9="69.36713"></scales>
<clustering>
<clus scale="   69.367">  1  9  2 -1</clus>
<clus scale="   91.653">  7  8 -1 -1</clus>
<clus scale="   93.150">  1  7  2 -1</clus>
<clus scale="  106.960">  5  6 -1 -1</clus>
<clus scale="   69.367">  1  5  2 -1</clus>
</clustering>
</event>
<event>
 9    1  0.1487426E-004  0.1275014E+03  0.7546771E-02  0.1234627E+00
          1   -1    0    0  502    0 -0.00000000000E+00  0.00000000000E+00  0.74032117983E+03  0.74032117983E+03  0.00000000000E+00 0. -1.
         21   -1    0    0  501  502  0.00000000000E+00 -0.00000000000E+00 -0.41592838051E+02  0.41592838051E+02  0.00000000000E+00 0.  1.
         23    2    1    2    0    0 -0.61159435670E+02 -0.70997548472E+02  0.39861729740E+03  0.41994836302E+03  0.93165172426E+02 0.  0.
        -24    2    1    2    0    0  0.60516773864E+02  0.37334134290E+02  0.67942906360E+02  0.12736880327E+03  0.80934887524E+02 0.  0.
         13    1    4    4    0    0  0.54968378859E+02  0.23649097689E+02  0.85542277004E+02  0.10439484494E+03  0.00000000000E+00 0. -1.
        -14    1    4    4    0    0  0.55483950049E+01  0.13685036601E+02 -0.17599370644E+02  0.22973958322E+02  0.00000000000E+00 0.  1.
        -11    1    3    3    0    0 -0.40561593822E+02 -0.79031756122E+02  0.38225960598E+03  0.39244575132E+03  0.00000000000E+00 0. -1.
         11    1    3    3    0    0 -0.20597841849E+02  0.80342076496E+01  0.16357691426E+02  0.27502611697E+02  0.00000000000E+00 0.  1.
          2    1    1    2  501    0  0.64266180641E+00  0.33663414182E+02  0.23216813802E+03  0.23459685160E+03  0.00000000000E+00 0. -1.
<scales pt_clust_5="13000.00000" pt_clust_6="13000.00000" pt_clust_7="13000.00000" pt_clust_8="13000.00000" pt_clust_9="33.66956"></scales>
<clustering>
<clus scale="   33.670">  2  9  1 -1</clus>
<clus scale="   80.935">  5  6 -1 -1</clus>
<clus scale="   93.165">  7  8 -1 -1</clus>
<clus scale="  118.858">  2  5  1 -1</clus>
<clus scale="   33.670">  2  5  1 -1</clus>
</clustering>
</event>
<event>
 9    1  0.1487426E-004  0.1422809E+03  0.7546771E-02  0.1220719E+00
         21   -1    0    0  501  502  0.00000000000E+00  0.00000000000E+00  0.17119438686E+03  0.17119438686E+03  0.00000000000E+00 0.  1.
         -4   -1    0    0    0  501 -0.00000000000E+00 -0.00000000000E+00 -0.23186239230E+03  0.23186239230E+03  0.00000000000E+00 0.  1.
         23    2    1    2    0    0 -0.61112825130E+02 -0.97006946766E+01 -0.72812652426E+02  0.13536719727E+03  0.95883861365E+02 0.  0.
        -24    2    1    2    0    0  0.74168629480E+02 -0.10518608780E+03  0.42427134362E+01  0.15179364854E+03  0.80363004261E+02 0.  0.
         11    1    4    4    0    0  0.25140427321E+02 -0.53131058363E+02 -0.36795494893E+02  0.69345936385E+02  0.00000000000E+00 0. -1.
        -12    1    4    4    0    0  0.49028202159E+02 -0.52055029435E+02  0.41038208329E+02  0.82447712153E+02  0.00000000000E+00 0.  1.
        -13    1    3    3    0    0 -0.70455492375E+02 -0.37517845154E+02 -0.34126807826E+02  0.86811313336E+02  0.00000000000E+00 0.  1.
         13    1    3    3    0    0  0.93426672452E+01  0.27817150477E+02 -0.38685844600E+02  0.48555883931E+02  0.00000000000E+00 0. -1.
         -3    1    1    2    0  502 -0.13055804350E+02  0.11488678247E+03  0.79019335420E+01  0.11589593336E+03  0.00000000000E+00 0.  1.
<scales pt_clust_5="13000.00000" pt_clust_6="13000.00000" pt_clust_7="13000.00000" pt_clust_8="13000.00000" pt_clust_9="117.41228"></scales>
<clustering>
<clus scale="   80.363">  5  6 -1 -1</clus>
<clus scale="   95.884">  7  8 -1 -1</clus>
<clus scale="  114.117">  2  7  1 -1</clus>
<clus scale="  117.412">  1  9  2 -1</clus>
<clus scale="  117.412">  1  5  2 -1</clus>
</clustering>
</event>
<event>
 9    1  0.1487426E-004  0.1120979E+03  0.7546771E-02  0.1260149E+00
         21   -1    0    0  501  502  0.00000000000E+00  0.00000000000E+00  0.39028355017E+03  0.39028355017E+03  0.00000000000E+00 0. -1.
          1   -1    0    0  502    0 -0.00000000000E+00 -0.00000000000E+00 -0.70964355201E+02  0.70964355201E+02  0.00000000000E+00 0. -1.
        -24    2    1    2    0    0  0.90320704426E+02  0.43890769112E+02  0.12473627289E+03  0.17923348959E+03  0.80506377108E+02 0.  0.
         23    2    1    2    0    0 -0.25417297006E+02 -0.37484551598E+01  0.18214126793E+03  0.20469266967E+03  0.89797314153E+02 0.  0.
         11    1    3    3    0    0  0.63539013673E+02  0.56253657058E+02  0.49087138878E+02  0.98036867525E+02  0.00000000000E+00 0. -1.
        -12    1    3    3    0    0  0.26781690752E+02 -0.12362887946E+02  0.75649134015E+02  0.81196622067E+02  0.00000000000E+00 0.  1.
        -13    1    4    4    0    0 -0.72608787817E+01  0.40290180623E+02  0.52488044409E+02  0.66565860779E+02  0.00000000000E+00 0.  1.
         13    1    4    4    0    0 -0.18156418224E+02 -0.44038635783E+02  0.12965322352E+03  0.13812680889E+03  0.00000000000E+00 0. -1.
          2    1    1    2  501    0 -0.64903407420E+02 -0.40142313952E+02  0.12441654149E+02  0.77321746114E+02  0.00000000000E+00 0. -1.
<scales pt_clust_5="13000.00000" pt_clust_6="13000.00000" pt_clust_7="13000.00000" pt_clust_8="13000.00000" pt_clust_9="76.31424"></scales>
<clustering>
<clus scale="   76.314">  1  9  2 -1</clus>
<clus scale="   80.506">  5  6 -1 -1</clus>
<clus scale="   89.797">  7  8 -1 -1</clus>
<clus scale="  104.803">  2  5  1 -1</clus>
<clus scale="   76.314">  1  5  2 -1</clus>
</clustering>
</event>
<event>
 9    1  0.1487426E-004  0.1266826E+03  0.7546771E-02  0.1233789E+00
         -2   -1    0    0    0  501 -0.00000000000E+00  0.00000000000E+00  0.55261393500E+03  0.55261393500E+03  0.00000000000E+00 0.  1.
         21   -1    0    0  501  502  0.00000000000E+00 -0.00000000000E+00 -0.63053683776E+02  0.63053683776E+02  0.00000000000E+00 0.  1.
         23    2    1    2    0    0 -0.21470371932E+01 -0.10073756405E+03  0.12604841604E+03  0.18516210692E+03  0.90797225037E+02 0.  0.
        -24    2    1    2    0    0  0.48451990734E+02  0.68210375664E+02  0.86831225952E+02  0.14809742728E+03  0.85982180790E+02 0.  0.
         13    1    4    4    0    0 -0.19958604322E+02  0.32846590460E+02  0.49060320117E+02  0.62323024648E+02  0.00000000000E+00 0. -1.
        -14    1    4    4    0    0  0.68410595056E+02  0.35363785204E+02  0.37770905835E+02  0.85774402635E+02  0.00000000000E+00 0.  1.
        -13    1    3    3    0    0 -0.29774225399E+02 -0.27847336153E+02  0.48423356418E+01  0.41053950400E+02  0.00000000000E+00 0.  1.
         13    1    3    3    0    0  0.27627188206E+02 -0.72890227893E+02  0.12120608040E+03  0.14410815652E+03  0.00000000000E+00 0. -1.
         -1    1    1    2    0  502 -0.46304953541E+02  0.32527188382E+02  0.27668060923E+03  0.28240808457E+03  0.00000000000E+00 0.  1.
<scales pt_clust_5="13000.00000" pt_clust_6="13000.00000" pt_clust_7="13000.00000" pt_clust_8="13000.00000" pt_clust_9="56.58772"></scales>
<clustering>
<clus scale="   56.588">  2  9  1 -1</clus>
<clus scale="   85.982">  5  6 -1 -1</clus>
<clus scale="   90.797">  7  8 -1 -1</clus>
<clus scale="  123.277">  2  5  1 -1</clus>
<clus scale="   56.588">  2  5  1 -1</clus>
</clustering>
</event>
<event>
 9    1  0.1487426E-004  0.2519414E+03  0.7546771E-02  0.1142203E+00
          1   -1    0    0  502    0 -0.00000000000E+00  0.00000000000E+00  0.33756212487E+03  0.33756212487E+03  0.00000000000E+00 0. -1.
         21   -1    0    0  501  502  0.00000000000E+00 -0.00000000000E+00 -0.29669105543E+03  0.29669105543E+03  0.00000000000E+00 0. -1.
         23    2    1    2    0    0 -0.75144958134E+02 -0.62795253626E+01 -0.13876769608E+02  0.12056477198E+03  0.93043550755E+02 0.  0.
        -24    2    1    2    0    0  0.18604792600E+03 -0.17792176521E+03 -0.50390467764E+02  0.27434838390E+03  0.80360756625E+02 0.  0.
         11    1    4    4    0    0  0.11082631461E+03 -0.15499325630E+03 -0.28012337814E+02  0.19258783081E+03  0.00000000000E+00 0. -1.
        -12    1    4    4    0    0  0.75221611398E+02 -0.22928508909E+02 -0.22378129950E+02  0.81760553094E+02  0.00000000000E+00 0.  1.
        -13    1    3    3    0    0 -0.31373186338E+02  0.15191159363E+02 -0.49244699079E+02  0.60333146206E+02  0.00000000000E+00 0. -1.
         13    1    3    3    0    0 -0.43771771796E+02 -0.21470684725E+02  0.35367929471E+02  0.60231625778E+02  0.00000000000E+00 0.  1.
          2    1    1    2  501    0 -0.11090296787E+03  0.18420129057E+03  0.10513830681E+03  0.23934002442E+03  0.00000000000E+00 0. -1.
<scales pt_clust_5="13000.00000" pt_clust_6="13000.00000" pt_clust_7="13000.00000" pt_clust_8="13000.00000" pt_clust_9="238.78167"></scales>
<clustering>
<clus scale="   80.361">  5  6 -1 -1</clus>
<clus scale="   93.044">  7  8 -1 -1</clus>
<clus scale="  119.764">  1  7  2 -1</clus>
<clus scale="  238.782">  2  9  1 -1</clus>
<clus scale="  238.782">  2  5  1 -1</clus>
</clustering>
</event>
<event>
 9    1  0.1722097E-004  0.9826884E+02  0.7546771E-02  0.1298816E+00
         21   -1    0    0  501  502  0.00000000000E+00  0.00000000000E+00  0.41869466985E+03  0.41869466985E+03  0.00000000000E+00 0.  1.
          3   -1    0    0  502    0 -0.00000000000E+00 -0.00000000000E+00 -0.35332279834E+02  0.35332279834E+02  0.00000000000E+00 0. -1.
         23    2    1    2    0    0  0.20831851178E+02  0.42997447106E+02  0.19615431517E+03  0.22038055119E+03  0.88364729968E+02 0.  0.
        -24    2    1    2    0    0 -0.40166004647E+02 -0.17794874897E+02  0.18742582361E+03  0.20188122022E+03  0.60808076935E+02 0.  0.
         13    1    4    4    0    0 -0.48494747712E+02 -0.63995480284E+01  0.81748587457E+02  0.95265556849E+02  0.00000000000E+00 0. -1.
        -14    1    4    4    0    0  0.83287430650E+01 -0.11395326869E+02  0.10567723615E+03  0.10661566337E+03  0.00000000000E+00 0.  1.
        -13    1    3    3    0    0 -0.33563007307E+02  0.98346390343E+01  0.90270701538E+02  0.96809065384E+02  0.00000000000E+00 0. -1.
         13    1    3    3    0    0  0.54394858485E+02  0.33162808071E+02  0.10588361364E+03  0.12357148581E+03  0.00000000000E+00 0.  1.
          4    1    1    2  501    0  0.19334153468E+02 -0.25202572209E+02 -0.21774876097E+00  0.31765178274E+02  0.00000000000E+00 0. -1.
<scales pt_clust_5="13000.00000" pt_clust_6="13000.00000" pt_clust_7="13000.00000" pt_clust_8="13000.00000" pt_clust_9="31.76445"></scales>
<clustering>
<clus scale="   31.764">  1  9  2 -1</clus>
<clus scale="   60.808">  5  6 -1 -1</clus>
<clus scale="   74.472">  1  5  2 -1</clus>
<clus scale="   88.365">  7  8 -1 -1</clus>
<clus scale="   31.764">  1  5  2 -1</clus>
</clustering>
</event>
<event>
 9    1  0.1487426E-004  0.9269759E+02  0.7546771E-02  0.1302642E+00
         -2   -1    0    0    0  501 -0.00000000000E+00  0.00000000000E+00  0.27743830562E+03  0.27743830562E+03  0.00000000000E+00 0.  1.
         21   -1    0    0  501  502  0.00000000000E+00 -0.00000000000E+00 -0.28406476512E+03  0.28406476512E+03  0.00000000000E+00 0.  1.
         23    2    1    2    0    0 -0.10023075572E+02 -0.72111007638E+01  0.25204033724E+03  0.26851167192E+03  0.91769953374E+02 0.  0.
        -24    2    1    2    0    0  0.63274288673E+01  0.29467655671E+02 -0.99325455588E+02  0.13206074592E+03  0.81646282208E+02 0.  0.
         13    1    4    4    0    0  0.22032429417E+02 -0.10931124983E+02 -0.81610871873E+02  0.85236446708E+02  0.00000000000E+00 0. -1.
        -14    1    4    4    0    0 -0.15705000550E+02  0.40398780653E+02 -0.17714583714E+02  0.46824299212E+02  0.00000000000E+00 0.  1.
        -11    1    3    3    0    0 -0.38493750019E+02  0.27722236270E+02  0.12319956144E+03  0.13201675315E+03  0.00000000000E+00 0.  1.
         11    1    3    3    0    0  0.28470674447E+02 -0.34933337034E+02  0.12884077580E+03  0.13649491877E+03  0.00000000000E+00 0. -1.
         -1    1    1    2    0  502  0.36956467047E+01 -0.22256554907E+02 -0.15934134115E+03  0.16093065290E+03  0.00000000000E+00 0.  1.
<scales pt_clust_5="13000.00000" pt_clust_6="13000.00000" pt_clust_7="13000.00000" pt_clust_8="13000.00000" pt_clust_9="22.56130"></scales>
<clustering>
<clus scale="   22.561">  2  9  1 -1</clus>
<clus scale="   81.646">  5  6 -1 -1</clus>
<clus scale="   82.688">  2  5  1 -1</clus>
<clus scale="   91.770">  7  8 -1 -1</clus>
<clus scale="   22.561">  2  5  1 -1</clus>
</clustering>
</event>
<event>
 9    1  0.1487426E-004  0.1033445E+03  0.7546771E-02  0.1276960E+00
          1   -1    0    0  502    0 -0.00000000000E+00  0.00000000000E+00  0.58608185376E+03  0.58608185376E+03  0.00000000000E+00 0. -1.
         21   -1    0    0  501  502  0.00000000000E+00 -0.00000000000E+00 -0.67779101633E+02  0.67779101633E+02  0.00000000000E+00 0. -1.
        -24    2    1    2    0    0 -0.44881008265E+02 -0.55130352908E+01  0.31172030816E+03  0.32620755256E+03  0.84835831854E+02 0.  0.
         23    2    1    2    0    0  0.35768695535E+02  0.79850889384E+02  0.22997610473E+02  0.12937949662E+03  0.92491080346E+02 0.  0.
         13    1    3    3    0    0 -0.57012715376E+02  0.23054078313E+02  0.24533739762E+03  0.25292761596E+03  0.00000000000E+00 0. -1.
        -14    1    3    3    0    0  0.12131707110E+02 -0.28567113603E+02  0.66382910534E+02  0.73279936599E+02  0.00000000000E+00 0.  1.
        -13    1    4    4    0    0  0.14883489528E+02  0.91536222399E+02  0.38984292289E+02  0.10059907215E+03  0.00000000000E+00 0. -1.
         13    1    4    4    0    0  0.20885206008E+02 -0.11685333014E+02 -0.15986681816E+02  0.28780424478E+02  0.00000000000E+00 0.  1.
          2    1    1    2  501    0  0.91123127297E+01 -0.74337854093E+02  0.18358483350E+03  0.19827390621E+03  0.00000000000E+00 0. -1.
<scales pt_clust_5="13000.00000" pt_clust_6="13000.00000" pt_clust_7="13000.00000" pt_clust_8="13000.00000" pt_clust_9="74.89430"></scales>
<clustering>
<clus scale="   74.894">  2  9  1 -1</clus>
<clus scale="   84.836">  5  6 -1 -1</clus>
<clus scale="   92.491">  7  8 -1 -1</clus>
<clus scale="   96.554">  1  5  2 -1</clus>
<clus scale="   74.894">  2  5  1 -1</clus>
</clustering>
</event>
<event>
 9    1  0.1487426E-004  0.1782014E+03  0.7546771E-02  0.1171254E+00
         -2   -1    0    0    0  501 -0.00000000000E+00  0.00000000000E+00  0.24829914606E+03  0.24829914606E+03  0.00000000000E+00 0.  1.
         21   -1    0    0  501  502  0.00000000000E+00 -0.00000000000E+00 -0.18168545756E+03  0.18168545756E+03  0.00000000000E+00 0. -1.
         23    2    1    2    0    0  0.11920764132E+03  0.12559864293E+03  0.54652397604E+02  0.20335079082E+03  0.91537853969E+02 0.  0.
        -24    2    1    2    0    0 -0.10868027891E+03 -0.70510617277E+02 -0.33268991750E+02  0.15458317506E+03  0.77498271132E+02 0.  0.
         11    1    4    4    0    0 -0.11068134873E+03 -0.76857273725E+02 -0.44176367872E+02  0.14180603992E+03  0.00000000000E+00 0. -1.
        -12    1    4    4    0    0  0.20010698205E+01  0.63466564478E+01  0.10907376122E+02  0.12777135139E+02  0.00000000000E+00 0.  1.
        -13    1    3    3    0    0  0.74697599889E+02  0.12075136746E+03  0.66861299539E+02  0.15694284803E+03  0.00000000000E+00 0. -1.
         13    1    3    3    0    0  0.44510041430E+02  0.48472754727E+01 -0.12208901935E+02  0.46407942791E+02  0.00000000000E+00 0.  1.
         -1    1    1    2    0  502 -0.10527362413E+02 -0.55088025653E+02  0.45230282652E+02  0.72050637738E+02  0.00000000000E+00 0.  1.
<scales pt_clust_5="13000.00000" pt_clust_6="13000.00000" pt_clust_7="13000.00000" pt_clust_8="13000.00000" pt_clust_9="56.08493"></scales>
<clustering>
<clus scale="   56.085">  2  9  1 -1</clus>
<clus scale="   77.498">  5  6 -1 -1</clus>
<clus scale="   91.538">  7  8 -1 -1</clus>
<clus scale="  171.413">  2  5  1 -1</clus>
<clus scale="   56.085">  2  5  1 -1</clus>
</clustering>
</event>
<event>
 9    1  0.1487426E-004  0.1126458E+03  0.7546771E-02  0.1258994E+00
         21   -1    0    0  501  502  0.00000000000E+00  0.00000000000E+00  0.22642320095E+02  0.22642320095E+02  0.00000000000E+00 0.  1.
          1   -1    0    0  502    0 -0.00000000000E+00 -0.00000000000E+00 -0.95513630375E+03  0.95513630375E+03  0.00000000000E+00 0. -1.
         23    2    1    2    0    0 -0.51201166994E+02 -0.18273234009E+02 -0.29830349556E+03  0.31634263559E+03  0.90178805985E+02 0.  0.
        -24    2    1    2    0    0  0.84098509432E+02 -0.36478724505E+02 -0.37567877570E+03  0.39514983100E+03  0.81274779564E+02 0.  0.
         13    1    4    4    0    0  0.51385455516E+02 -0.57726749874E+02 -0.18451174226E+03  0.20004355956E+03  0.00000000000E+00 0. -1.
        -14    1    4    4    0    0  0.32713053916E+02  0.21248025369E+02 -0.19116703345E+03  0.19510627144E+03  0.00000000000E+00 0.  1.
        -11    1    3    3    0    0 -0.74388060255E+02 -0.90944459961E+01 -0.17225859974E+03  0.18785451190E+03  0.00000000000E+00 0.  1.
         11    1    3    3    0    0  0.23186893261E+02 -0.91787880127E+01 -0.12604489582E+03  0.12848812370E+03  0.00000000000E+00 0. -1.
          2    1    1    2  501    0 -0.32897342438E+02  0.54751958514E+02 -0.25851171239E+03  0.26628615725E+03  0.00000000000E+00 0. -1.
<scales pt_clust_5="13000.00000" pt_clust_6="13000.00000" pt_clust_7="13000.00000" pt_clust_8="13000.00000" pt_clust_9="63.87500"></scales>
<clustering>
<clus scale="   63.875">  1  9  2 -1</clus>
<clus scale="   81.275">  5  6 -1 -1</clus>
<clus scale="   90.179">  7  8 -1 -1</clus>
<clus scale="  105.653">  1  5  2 -1</clus>
<clus scale="   63.875">  1  5  2 -1</clus>
</clustering>
</event>
<event>
 9    1  0.1487426E-004  0.2489035E+03  0.7546771E-02  0.1149879E+00
         -2   -1    0    0    0  501 -0.00000000000E+00  0.00000000000E+00  0.37436601944E+03  0.37436601944E+03  0.00000000000E+00 0.  1.
         21   -1    0    0  501  502  0.00000000000E+00 -0.00000000000E+00 -0.27529167910E+03  0.27529167910E+03  0.00000000000E+00 0.  1.
        -24    2    1    2    0    0  0.27017425944E+02  0.60420934495E+02  0.11148130830E+03  0.15206246801E+03  0.79462453062E+02 0.  0.
         23    2    1    2    0    0  0.11615946049E+03  0.16858836850E+03 -0.31185669289E+02  0.22686008082E+03  0.92616910137E+02 0.  0.
         13    1    3    3    0    0  0.36985429022E+02 -0.58350063474E+00  0.64755344248E+02  0.74575579392E+02  0.00000000000E+00 0. -1.
        -14    1    3    3    0    0 -0.99680030786E+01  0.61004435130E+02  0.46725964050E+02  0.77486888615E+02  0.00000000000E+00 0.  1.
        -13    1    4    4    0    0  0.57326675333E+02  0.10903341209E+03 -0.61680216151E+02  0.13776458805E+03  0.00000000000E+00 0. -1.
         13    1    4    4    0    0  0.58832785157E+02  0.59554956412E+02  0.30494546862E+02  0.89095492764E+02  0.00000000000E+00 0.  1.
         -1    1    1    2    0  502 -0.14317688643E+03 -0.22900930300E+03  0.18778701339E+02  0.27073514972E+03  0.00000000000E+00 0.  1.
<scales pt_clust_5="13000.00000" pt_clust_6="13000.00000" pt_clust_7="13000.00000" pt_clust_8="13000.00000" pt_clust_9="231.03056"></scales>
<clustering>
<clus scale="   79.462">  5  6 -1 -1</clus>
<clus scale="   92.617">  7  8 -1 -1</clus>
<clus scale="  103.416">  1  5  2 -1</clus>
<clus scale="  231.031">  2  9  1 -1</clus>
<clus scale="  231.031">  2  5  1 -1</clus>
</clustering>
</event>
<event>
 9    1  0.1487426E-004  0.1705802E+03  0.7546771E-02  0.1205668E+00
         -2   -1    0    0    0  501 -0.00000000000E+00  0.00000000000E+00  0.26356191418E+03  0.26356191418E+03  0.00000000000E+00 0.  1.
         21   -1    0    0  501  502  0.00000000000E+00 -0.00000000000E+00 -0.20179402033E+03  0.20179402033E+03  0.00000000000E+00 0.  1.
        -24    2    1    2    0    0  0.75797231087E+00  0.39030212312E+02  0.11182161646E+03  0.14427558811E+03  0.82385917622E+02 0.  0.
         23    2    1    2    0    0  0.74393020597E+02  0.10069620034E+03 -0.17245913485E+01  0.15522846352E+03  0.91754320848E+02 0.  0.
         11    1    3    3    0    0 -0.34646545476E+02  0.42891279300E+02  0.74550129242E+02  0.92724143152E+02  0.00000000000E+00 0. -1.
        -12    1    3    3    0    0  0.35404517787E+02 -0.38610669884E+01  0.37271487221E+02  0.51551444962E+02  0.00000000000E+00 0.  1.
        -11    1    4    4    0    0  0.73560696010E+02  0.50135351153E+02  0.31830406864E+02  0.94540489917E+02  0.00000000000E+00 0.  1.
         11    1    4    4    0    0  0.83232458707E+00  0.50560849187E+02 -0.33554998212E+02  0.60687973601E+02  0.00000000000E+00 0. -1.
         -1    1    1    2    0  502 -0.75150992908E+02 -0.13972641265E+03 -0.48329131264E+02  0.16585188288E+03  0.00000000000E+00 0.  1.
<scales pt_clust_5="13000.00000" pt_clust_6="13000.00000" pt_clust_7="13000.00000" pt_clust_8="13000.00000" pt_clust_9="143.80103"></scales>
<clustering>
<clus scale="   82.386">  5  6 -1 -1</clus>
<clus scale="   91.167">  1  5  2 -1</clus>
<clus scale="   91.754">  7  8 -1 -1</clus>
<clus scale="  143.801">  2  9  1 -1</clus>
<clus scale="  143.801">  2  5  1 -1</clus>
</clustering>
</event>
<event>
 9    1  0.1487426E-004  0.1078166E+03  0.7546771E-02  0.1268616E+00
          1   -1    0    0  502    0 -0.00000000000E+00  0.00000000000E+00  0.18996751642E+03  0.18996751642E+03  0.00000000000E+00 0. -1.
         21   -1    0    0  501  502  0.00000000000E+00 -0.00000000000E+00 -0.12797784265E+03  0.12797784265E+03  0.00000000000E+00 0.  1.
         23    2    1    2    0    0  0.56537188431E+02  0.23430338047E+02  0.10266053235E+03  0.14986883815E+03  0.90421509207E+02 0.  0.
        -24    2    1    2    0    0 -0.57022479040E+02 -0.14494179340E+01  0.22322460704E+02  0.10135654916E+03  0.80753909368E+02 0.  0.
         13    1    4    4    0    0 -0.61749421831E+02 -0.45722452605E+00  0.46120484911E+02  0.77073337019E+02  0.00000000000E+00 0. -1.
        -14    1    4    4    0    0  0.47269427912E+01 -0.99219340798E+00 -0.23798024207E+02  0.24283212145E+02  0.00000000000E+00 0.  1.
        -11    1    3    3    0    0  0.91495068966E+01  0.45067253956E+02  0.15876385754E+02  0.48650082016E+02  0.00000000000E+00 0.  1.
         11    1    3    3    0    0  0.47387681534E+02 -0.21636915909E+02  0.86784146601E+02  0.10121875613E+03  0.00000000000E+00 0. -1.
          2    1    1    2  501    0  0.48529060900E+00 -0.21980920113E+02 -0.62993319290E+02  0.66719971756E+02  0.00000000000E+00 0. -1.
<scales pt_clust_5="13000.00000" pt_clust_6="13000.00000" pt_clust_7="13000.00000" pt_clust_8="13000.00000" pt_clust_9="21.98628"></scales>
<clustering>
<clus scale="   21.986">  2  9  1 -1</clus>
<clus scale="   80.754">  5  6 -1 -1</clus>
<clus scale="   90.422">  7  8 -1 -1</clus>
<clus scale="   99.848">  2  5  1 -1</clus>
<clus scale="   21.986">  2  5  1 -1</clus>
</clustering>
</event>
<event>
 9    1  0.1487426E-004  0.1032192E+03  0.7546771E-02  0.1286243E+00
         21   -1    0    0  501  502  0.00000000000E+00  0.00000000000E+00  0.23496419143E+03  0.23496419143E+03  0.00000000000E+00 0.  1.
         -2   -1    0    0    0  501 -0.00000000000E+00 -0.00000000000E+00 -0.20189183764E+03  0.20189183764E+03  0.00000000000E+00 0.  1.
         23    2    1    2    0    0 -0.59112888483E+00  0.13163360622E+02 -0.15191541098E+03  0.18307786017E+03  0.10131923458E+03 0.  0.
        -24    2    1    2    0    0 -0.87134066793E+01 -0.47161561508E+02  0.33367270849E+02  0.98114344506E+02  0.78822036856E+02 0.  0.
         11    1    4    4    0    0 -0.66334744595E+01  0.19932828318E+02  0.21290578114E+02  0.29910020805E+02  0.00000000000E+00 0. -1.
        -12    1    4    4    0    0 -0.20799322198E+01 -0.67094389825E+02  0.12076692736E+02  0.68204323701E+02  0.00000000000E+00 0.  1.
        -13    1    3    3    0    0  0.23800221190E+02 -0.37317508884E+02 -0.50132412086E+02  0.66875299921E+02  0.00000000000E+00 0. -1.
         13    1    3    3    0    0 -0.24391350075E+02  0.50480869506E+02 -0.10178299890E+03  0.11620256025E+03  0.00000000000E+00 0.  1.
         -1    1    1    2    0  502  0.93045355641E+01  0.33998200886E+02  0.15162049393E+03  0.15566382439E+03  0.00000000000E+00 0.  1.
<scales pt_clust_5="13000.00000" pt_clust_6="13000.00000" pt_clust_7="13000.00000" pt_clust_8="13000.00000" pt_clust_9="35.24843"></scales>
<clustering>
<clus scale="   35.248">  1  9  2 -1</clus>
<clus scale="   78.822">  5  6 -1 -1</clus>
<clus scale="   81.250">  1  5  2 -1</clus>
<clus scale="  101.319">  7  8 -1 -1</clus>
<clus scale="   35.248">  1  5  2 -1</clus>
</clustering>
</event>
<event>
 9    1  0.1487426E-004  0.1034363E+03  0.7546771E-02  0.1281110E+00
         -2   -1    0    0    0  501 -0.00000000000E+00  0.00000000000E+00  0.28821322370E+03  0.28821322370E+03  0.00000000000E+00 0.  1.
         21   -1    0    0  501  502  0.00000000000E+00 -0.00000000000E+00 -0.84568863109E+02  0.84568863109E+02  0.00000000000E+00 0.  1.
         23    2    1    2    0    0 -0.18684873645E+02  0.60686363606E+02  0.65124011432E+02  0.13232201019E+03  0.96104205338E+02 0.  0.
        -24    2    1    2    0    0  0.30445660532E+02  0.89952928490E+01  0.16150361929E+01  0.86392188754E+02  0.80331490695E+02 0.  0.
         11    1    4    4    0    0  0.25708293841E+02 -0.19175915790E+02  0.31567292753E+02  0.45001400982E+02  0.00000000000E+00 0. -1.
        -12    1    4    4    0    0  0.47373666904E+01  0.28171208639E+02 -0.29952256560E+02  0.41390787772E+02  0.00000000000E+00 0.  1.
        -11    1    3    3    0    0 -0.20141303388E+02 -0.81063698662E+01 -0.15239302856E+02  0.26525868244E+02  0.00000000000E+00 0. -1.
         11    1    3    3    0    0  0.14564297425E+01  0.68792733472E+02  0.80363314289E+02  0.10579614194E+03  0.00000000000E+00 0.  1.
         -1    1    1    2    0  502 -0.11760786886E+02 -0.69681656455E+02  0.13690531297E+03  0.15406788787E+03  0.00000000000E+00 0.  1.
<scales pt_clust_5="13000.00000" pt_clust_6="13000.00000" pt_clust_7="13000.00000" pt_clust_8="13000.00000" pt_clust_9="70.66721"></scales>
<clustering>
<clus scale="   70.667">  2  9  1 -1</clus>
<clus scale="   80.331">  5  6 -1 -1</clus>
<clus scale="   88.973">  2  5  1 -1</clus>
<clus scale="   96.104">  7  8 -1 -1</clus>
<clus scale="   70.667">  2  5  1 -1</clus>
</clustering>
</event>
<event>
 9    1  0.1487426E-004  0.1213867E+03  0.7546771E-02  0.1246106E+00
         21   -1    0    0  501  502  0.00000000000E+00  0.00000000000E+00  0.10106594829E+03  0.10106594829E+03  0.00000000000E+00 0. -1.
         -2   -1    0    0    0  501 -0.00000000000E+00 -0.00000000000E+00 -0.45376557050E+03  0.45376557050E+03  0.00000000000E+00 0.  1.
         23    2    1    2    0    0 -0.10742638476E+02 -0.74113074612E+02 -0.34040776619E+03  0.36117964288E+03  0.94684397030E+02 0.  0.
        -24    2    1    2    0    0 -0.87670023372E+01  0.86930307072E+02  0.49681294885E+02  0.12742817195E+03  0.78332428330E+02 0.  0.
         11    1    4    4    0    0 -0.15488639873E+02  0.56920418343E+02  0.69255799590E+02  0.90973610274E+02  0.00000000000E+00 0. -1.
        -12    1    4    4    0    0  0.67216375357E+01  0.30009888729E+02 -0.19574504705E+02  0.36454561678E+02  0.00000000000E+00 0.  1.
        -13    1    3    3    0    0  0.23078447456E+02  0.86874620806E+01 -0.13363977920E+03  0.13589583261E+03  0.00000000000E+00 0. -1.
         13    1    3    3    0    0 -0.33821085932E+02 -0.82800536692E+02 -0.20676798699E+03  0.22528381028E+03  0.00000000000E+00 0.  1.
         -1    1    1    2    0  502  0.19509640813E+02 -0.12817232460E+02 -0.61973150903E+02  0.66223703954E+02  0.00000000000E+00 0.  1.
<scales pt_clust_5="13000.00000" pt_clust_6="13000.00000" pt_clust_7="13000.00000" pt_clust_8="13000.00000" pt_clust_9="23.34327"></scales>
<clustering>
<clus scale="   23.343">  1  9  2 -1</clus>
<clus scale="   78.332">  5  6 -1 -1</clus>
<clus scale="   94.684">  7  8 -1 -1</clus>
<clus scale="  109.113">  1  5  2 -1</clus>
<clus scale="   23.343">  1  5  2 -1</clus>
</clustering>
</event>
<event>
 9    1  0.1487426E-004  0.3882336E+03  0.7546771E-02  0.1100276E+00
         21   -1    0    0  501  502  0.00000000000E+00  0.00000000000E+00  0.23579227867E+03  0.23579227867E+03  0.00000000000E+00 0. -1.
          1   -1    0    0  502    0 -0.00000000000E+00 -0.00000000000E+00 -0.81669756194E+03  0.81669756194E+03  0.00000000000E+00 0. -1.
         23    2    1    2    0    0 -0.11535313766E+02 -0.14489380580E+02 -0.81624214294E+02  0.12389795602E+03  0.91351987021E+02 0.  0.
        -24    2    1    2    0    0  0.50697519254E+02 -0.37091955065E+03 -0.16577601159E+03  0.41741740761E+03  0.81265334837E+02 0.  0.
         13    1    4    4    0    0  0.59352523892E+02 -0.18757725364E+03 -0.60562580515E+02  0.20585376930E+03  0.00000000000E+00 0. -1.
        -14    1    4    4    0    0 -0.86550046382E+01 -0.18334229701E+03 -0.10521343108E+03  0.21156363831E+03  0.00000000000E+00 0.  1.
        -13    1    3    3    0    0 -0.26010395638E+02  0.33072535411E+02 -0.26784404872E+02  0.49877225505E+02  0.00000000000E+00 0.  1.
         13    1    3    3    0    0  0.14475081872E+02 -0.47561915991E+02 -0.54839809423E+02  0.74020730511E+02  0.00000000000E+00 0. -1.
          2    1    1    2  501    0 -0.39162205488E+02  0.38540893123E+03 -0.33350505738E+03  0.51117447698E+03  0.00000000000E+00 0. -1.
<scales pt_clust_5="13000.00000" pt_clust_6="13000.00000" pt_clust_7="13000.00000" pt_clust_8="13000.00000" pt_clust_9="379.63322"></scales>
<clustering>
<clus scale="   81.265">  5  6 -1 -1</clus>
<clus scale="   91.352">  7  8 -1 -1</clus>
<clus scale="   93.210">  2  7  1 -1</clus>
<clus scale="  379.633">  1  9  2 -1</clus>
<clus scale="  379.633">  1  5  2 -1</clus>
</clustering>
</event>
<event>
 9    1  0.1487426E-004  0.9829650E+02  0.7546771E-02  0.1293522E+00
         21   -1    0    0  501  502  0.00000000000E+00  0.00000000000E+00  0.10331930239E+03  0.10331930239E+03  0.00000000000E+00 0.  1.
         -2   -1    0    0    0  501 -0.00000000000E+00 -0.00000000000E+00 -0.28498004619E+03  0.28498004619E+03  0.00000000000E+00 0.  1.
        -24    2    1    2    0    0  0.25445164971E+02  0.15100289062E+02 -0.18908328580E+03  0.20677165299E+03  0.78272296249E+02 0.  0.
         23    2    1    2    0    0  0.10416613168E+02 -0.26344868641E+02 -0.51355180304E+02  0.11176145489E+03  0.95135221250E+02 0.  0.
         13    1    3    3    0    0  0.37927639695E+02 -0.11145707583E+02 -0.16298421601E+03  0.16770983072E+03  0.00000000000E+00 0. -1.
        -14    1    3    3    0    0 -0.12482474724E+02  0.26245996645E+02 -0.26099069784E+02  0.39061822266E+02  0.00000000000E+00 0.  1.
        -13    1    4    4    0    0  0.42247113369E+01 -0.46853593826E+02 -0.69338475531E+02  0.83790999691E+02  0.00000000000E+00 0.  1.
         13    1    4    4    0    0  0.61919018312E+01  0.20508725185E+02  0.17983295227E+02  0.27970455202E+02  0.00000000000E+00 0. -1.
         -1    1    1    2    0  502 -0.35861778139E+02  0.11244579579E+02  0.58777722310E+02  0.69766240698E+02  0.00000000000E+00 0.  1.
<scales pt_clust_5="13000.00000" pt_clust_6="13000.00000" pt_clust_7="13000.00000" pt_clust_8="13000.00000" pt_clust_9="37.58334"></scales>
<clustering>
<clus scale="   37.583">  1  9  2 -1</clus>
<clus scale="   78.272">  5  6 -1 -1</clus>
<clus scale="   82.086">  2  5  1 -1</clus>
<clus scale="   95.135">  7  8 -1 -1</clus>
<clus scale="   37.583">  1  5  2 -1</clus>
</clustering>
</event>
<event>
 9    1  0.1487426E-004  0.1804434E+03  0.7546771E-02  0.1199645E+00
          1   -1    0    0  502    0 -0.00000000000E+00  0.00000000000E+00  0.98755118727E+03  0.98755118727E+03  0.00000000000E+00 0. -1.
         21   -1    0    0  501  502  0.00000000000E+00 -0.00000000000E+00 -0.55291815516E+02  0.55291815516E+02  0.00000000000E+00 0. -1.
        -24    2    1    2    0    0 -0.25342686276E+02  0.29919100241E+02  0.99699706044E+02  0.13280314875E+03  0.78480829675E+02 0.  0.
         23    2    1    2    0    0 -0.12427725744E+03 -0.83969154516E+02  0.62101617402E+03  0.64535478683E+03  0.91247229340E+02 0.  0.
         11    1    3    3    0    0 -0.47264883011E+02  0.41010283693E+02  0.64397762488E+02  0.89793565182E+02  0.00000000000E+00 0. -1.
        -12    1    3    3    0    0  0.21922196736E+02 -0.11091183452E+02  0.35301943556E+02  0.43009583571E+02  0.00000000000E+00 0.  1.
        -13    1    4    4    0    0 -0.73218416585E+01 -0.54124117261E+02  0.20943236252E+03  0.21643692824E+03  0.00000000000E+00 0.  1.
         13    1    4    4    0    0 -0.11695541578E+03 -0.29845037255E+02  0.41158381150E+03  0.42891785859E+03  0.00000000000E+00 0. -1.
          2    1    1    2  501    0  0.14961994372E+03  0.54050054275E+02  0.21154349169E+03  0.26468506721E+03  0.00000000000E+00 0. -1.
<scales pt_clust_5="13000.00000" pt_clust_6="13000.00000" pt_clust_7="13000.00000" pt_clust_8="13000.00000" pt_clust_9="155.67196"></scales>
<clustering>
<clus scale="   78.481">  5  6 -1 -1</clus>
<clus scale="   87.731">  1  5  2 -1</clus>
<clus scale="   91.247">  7  8 -1 -1</clus>
<clus scale="  155.672">  2  9  1 -1</clus>
<clus scale="  155.672">  2  5  1 -1</clus>
</clustering>
</event>
<event>
 9    1  0.1487426E-004  0.1403045E+03  0.7546771E-02  0.1235780E+00
         21   -1    0    0  501  502  0.00000000000E+00  0.00000000000E+00  0.46587938340E+02  0.46587938340E+02  0.00000000000E+00 0. -1.
          3   -1    0    0  502    0 -0.00000000000E+00 -0.00000000000E+00 -0.77654891691E+03  0.77654891691E+03  0.00000000000E+00 0. -1.
        -24    2    1    2    0    0 -0.10489002498E+02 -0.35021918458E+02 -0.13259101484E+03  0.15865063503E+03  0.79076499882E+02 0.  0.
         23    2    1    2    0    0 -0.69440001442E+02  0.10223633601E+03 -0.49555632635E+03  0.51863547337E+03  0.90180371797E+02 0.  0.
         13    1    3    3    0    0 -0.27750638698E+02 -0.13662292986E+02 -0.12688590514E+03  0.13060164287E+03  0.00000000000E+00 0. -1.
        -14    1    3    3    0    0  0.17261636200E+02 -0.21359625473E+02 -0.57051097040E+01  0.28048992163E+02  0.00000000000E+00 0.  1.
        -11    1    4    4    0    0 -0.49690735151E+02  0.52634624903E+01 -0.11431487510E+03  0.12475882280E+03  0.00000000000E+00 0.  1.
         11    1    4    4    0    0 -0.19749266291E+02  0.96972873522E+02 -0.38124145125E+03  0.39387665058E+03  0.00000000000E+00 0. -1.
          4    1    1    2  501    0  0.79929003940E+02 -0.67214417554E+02 -0.10181363738E+03  0.14585074684E+03  0.00000000000E+00 0. -1.
<scales pt_clust_5="13000.00000" pt_clust_6="13000.00000" pt_clust_7="13000.00000" pt_clust_8="13000.00000" pt_clust_9="107.48416"></scales>
<clustering>
<clus scale="   79.076">  5  6 -1 -1</clus>
<clus scale="   87.119">  2  5  1 -1</clus>
<clus scale="   90.180">  7  8 -1 -1</clus>
<clus scale="  107.484">  1  9  2 -1</clus>
<clus scale="  107.484">  1  5  2 -1</clus>
</clustering>
</event>
<event>
 9    1  0.1487426E-004  0.1281178E+03  0.7546771E-02  0.1232242E+00
         -2   -1    0    0    0  501 -0.00000000000E+00  0.00000000000E+00  0.36421607324E+03  0.36421607324E+03  0.00000000000E+00 0.  1.
         21   -1    0    0  501  502  0.00000000000E+00 -0.00000000000E+00 -0.11252879302E+03  0.11252879302E+03  0.00000000000E+00 0.  1.
         23    2    1    2    0    0 -0.80566921641E+02 -0.71025439626E+02  0.28080065955E+03  0.31369983267E+03  0.89570824950E+02 0.  0.
        -24    2    1    2    0    0  0.22654287440E+02  0.35622264565E+02 -0.12714816366E+02  0.93215449087E+02  0.82129720083E+02 0.  0.
         11    1    4    4    0    0  0.10557740336E+02  0.24290884836E+02  0.34316454732E+02  0.43348956533E+02  0.00000000000E+00 0. -1.
        -12    1    4    4    0    0  0.12096547104E+02  0.11331379730E+02 -0.47031271099E+02  0.49866492553E+02  0.00000000000E+00 0.  1.
        -11    1    3    3    0    0 -0.12048007489E+02 -0.20102476905E+02  0.36748330127E+01  0.23722741407E+02  0.00000000000E+00 0. -1.
         11    1    3    3    0    0 -0.68518914152E+02 -0.50922962721E+02  0.27712582653E+03  0.28997709127E+03  0.00000000000E+00 0.  1.
         -1    1    1    2    0  502  0.57912634201E+02  0.35403175061E+02 -0.16398562959E+02  0.69829584501E+02  0.00000000000E+00 0.  1.
<scales pt_clust_5="13000.00000" pt_clust_6="13000.00000" pt_clust_7="13000.00000" pt_clust_8="13000.00000" pt_clust_9="67.87679"></scales>
<clustering>
<clus scale="   67.877">  2  9  1 -1</clus>
<clus scale="   82.130">  5  6 -1 -1</clus>
<clus scale="   89.571">  7  8 -1 -1</clus>
<clus scale="  123.031">  2  5  1 -1</clus>
<clus scale="   67.877">  2  5  1 -1</clus>
</clustering>
</event>
<event>
 9    1  0.1487426E-004  0.9873236E+02  0.7546771E-02  0.1284208E+00
         21   -1    0    0  501  502  0.00000000000E+00  0.00000000000E+00  0.71246876455E+02  0.71246876455E+02  0.00000000000E+00 0. -1.
          1   -1    0    0  502    0 -0.00000000000E+00 -0.00000000000E+00 -0.29299950242E+03  0.29299950242E+03  0.00000000000E+00 0. -1.
        -24    2    1    2    0    0  0.10691923747E+02 -0.37433700461E+01 -0.66488119019E+02  0.11102958247E+03  0.88196191306E+02 0.  0.
         23    2    1    2    0    0  0.29617132721E+01  0.78976900602E+02 -0.11668063812E+03  0.16757089249E+03  0.90661514013E+02 0.  0.
         13    1    3    3    0    0 -0.40677640641E+01  0.31254502676E+02 -0.65891926679E+02  0.73042019711E+02  0.00000000000E+00 0. -1.
        -14    1    3    3    0    0  0.14759687811E+02 -0.34997872722E+02 -0.59619234035E+00  0.37987562763E+02  0.00000000000E+00 0.  1.
        -11    1    4    4    0    0 -0.31448047072E+02  0.14178345917E+02 -0.76505738746E+02  0.83923377069E+02  0.00000000000E+00 0.  1.
         11    1    4    4    0    0  0.34409760344E+02  0.64798554686E+02 -0.40174899376E+02  0.83647515421E+02  0.00000000000E+00 0. -1.
          2    1    1    2  501    0 -0.13653637020E+02 -0.75233530556E+02 -0.38583868828E+02  0.85645903916E+02  0.00000000000E+00 0. -1.
<scales pt_clust_5="13000.00000" pt_clust_6="13000.00000" pt_clust_7="13000.00000" pt_clust_8="13000.00000" pt_clust_9="76.46245"></scales>
<clustering>
<clus scale="   76.462">  1  9  2 -1</clus>
<clus scale="   88.196">  5  6 -1 -1</clus>
<clus scale="   90.662">  7  8 -1 -1</clus>
<clus scale="   96.474">  2  5  1 -1</clus>
<clus scale="   76.462">  1  5  2 -1</clus>
</clustering>
</event>
<event>
 9    1  0.1487426E-004  0.1177934E+03  0.7546771E-02  0.1250133E+00
          1   -1    0    0  502    0 -0.00000000000E+00  0.00000000000E+00  0.50253223422E+03  0.50253223422E+03  0.00000000000E+00 0. -1.
         21   -1    0    0  501  502  0.00000000000E+00 -0.00000000000E+00 -0.65410130698E+02  0.65410130698E+02  0.00000000000E+00 0.  1.
        -24    2    1    2    0    0  0.38374610401E+02  0.43582137806E+02  0.13230993312E+03  0.16570067044E+03  0.81109680822E+02 0.  0.
         23    2    1    2    0    0 -0.42752178657E+02 -0.11362487936E+03  0.90603574113E+02  0.17682991246E+03  0.91221972737E+02 0.  0.
         11    1    3    3    0    0 -0.24627039295E+02  0.15433447969E+02  0.26214716635E+02  0.39139414264E+02  0.00000000000E+00 0. -1.
        -12    1    3    3    0    0  0.63001649696E+02  0.28148689837E+02  0.10609521649E+03  0.12656125618E+03  0.00000000000E+00 0.  1.
        -13    1    4    4    0    0 -0.23604445444E+02 -0.29625032912E+02  0.81901804835E+02  0.90237010450E+02  0.00000000000E+00 0. -1.
         13    1    4    4    0    0 -0.19147733213E+02 -0.83999846446E+02  0.87017692780E+01  0.86592902011E+02  0.00000000000E+00 0.  1.
          2    1    1    2  501    0  0.43775682557E+01  0.70042741551E+02  0.21420859628E+03  0.22541178201E+03  0.00000000000E+00 0. -1.
<scales pt_clust_5="13000.00000" pt_clust_6="13000.00000" pt_clust_7="13000.00000" pt_clust_8="13000.00000" pt_clust_9="70.17944"></scales>
<clustering>
<clus scale="   70.179">  2  9  1 -1</clus>
<clus scale="   81.110">  5  6 -1 -1</clus>
<clus scale="   91.222">  7  8 -1 -1</clus>
<clus scale="  110.148">  1  5  2 -1</clus>
<clus scale="   70.179">  2  5  1 -1</clus>
</clustering>
</event>
<event>
 9    1  0.1487426E-004  0.2069853E+03  0.7546771E-02  0.1181815E+00
         21   -1    0    0  501  502  0.00000000000E+00  0.00000000000E+00  0.12491337582E+03  0.12491337582E+03  0.00000000000E+00 0. -1.
          1   -1    0    0  502    0 -0.00000000000E+00 -0.00000000000E+00 -0.55452111506E+03  0.55452111506E+03  0.00000000000E+00 0. -1.
         23    2    1    2    0    0 -0.13908811119E+02  0.83097927246E+00 -0.27568733934E+02  0.90450746797E+02  0.85012687007E+02 0.  0.
        -24    2    1    2    0    0 -0.14971732339E+03 -0.11413437298E+03 -0.99245845167E+02  0.22663740596E+03  0.77928454233E+02 0.  0.
         13    1    4    4    0    0 -0.11497832981E+03 -0.42861549964E+02 -0.45601639089E+02  0.13090698331E+03  0.00000000000E+00 0. -1.
        -14    1    4    4    0    0 -0.34738993580E+02 -0.71272823012E+02 -0.53644206077E+02  0.95730422650E+02  0.00000000000E+00 0.  1.
        -11    1    3    3    0    0  0.30999345479E+01 -0.31256590068E+02 -0.41071103304E+02  0.51705121057E+02  0.00000000000E+00 0. -1.
         11    1    3    3    0    0 -0.17008745667E+02  0.32087569341E+02  0.13502369370E+02  0.38745625740E+02  0.00000000000E+00 0.  1.
          2    1    1    2  501    0  0.16362613451E+03  0.11330339370E+03 -0.30279316014E+03  0.36234633812E+03  0.00000000000E+00 0. -1.
<scales pt_clust_5="13000.00000" pt_clust_6="13000.00000" pt_clust_7="13000.00000" pt_clust_8="13000.00000" pt_clust_9="191.75535"></scales>
<clustering>
<clus scale="   77.928">  5  6 -1 -1</clus>
<clus scale="   85.013">  7  8 -1 -1</clus>
<clus scale="   86.147">  2  7  1 -1</clus>
<clus scale="  191.755">  1  9  2 -1</clus>
<clus scale="  191.755">  1  5  2 -1</clus>
</clustering>
</event>
<event>
 9    1  0.1487426E-004  0.1210843E+03  0.7546771E-02  0.1252295E+00
         21   -1    0    0  501  502  0.00000000000E+00  0.00000000000E+00  0.53797532303E+02  0.53797532303E+02  0.00000000000E+00 0.  1.
          1   -1    0    0  502    0 -0.00000000000E+00 -0.00000000000E+00 -0.78719307736E+03  0.78719307736E+03  0.00000000000E+00 0. -1.
        -24    2    1    2    0    0 -0.36203525020E+02  0.35552551572E+02 -0.34715758424E+02  0.10314700377E+03  0.82821744470E+02 0.  0.
         23    2    1    2    0    0  0.68366386911E+01  0.63340467545E+02 -0.21795424875E+03  0.24617371052E+03  0.95072008210E+02 0.  0.
         11    1    3    3    0    0 -0.17869915497E+01 -0.26103961857E+02 -0.55400514269E+01  0.26745136628E+02  0.00000000000E+00 0. -1.
        -12    1    3    3    0    0 -0.34416533470E+02  0.61656513429E+02 -0.29175706997E+02  0.76401867144E+02  0.00000000000E+00 0.  1.
        -11    1    4    4    0    0  0.15102017736E+02  0.85116470839E+02 -0.19577541400E+03  0.21401144193E+03  0.00000000000E+00 0. -1.
         11    1    4    4    0    0 -0.82653790452E+01 -0.21776003294E+02 -0.22178834749E+02  0.32162268593E+02  0.00000000000E+00 0.  1.
          2    1    1    2  501    0  0.29366886329E+02 -0.98893019117E+02 -0.48072553789E+03  0.49166989538E+03  0.00000000000E+00 0. -1.
<scales pt_clust_5="13000.00000" pt_clust_6="13000.00000" pt_clust_7="13000.00000" pt_clust_8="13000.00000" pt_clust_9="74.98491"></scales>
<clustering>
<clus scale="   82.822">  5  6 -1 -1</clus>
<clus scale="   95.072">  7  8 -1 -1</clus>
<clus scale="   97.129">  2  5  1 -1</clus>
<clus scale="   74.985">  1  9  2 -1</clus>
<clus scale="   74.985">  1  5  2 -1</clus>
</clustering>
</event>
<event>
 9    1  0.1487426E-004  0.1108724E+03  0.7546771E-02  0.1265592E+00
         21   -1    0    0  501  502  0.00000000000E+00  0.00000000000E+00  0.93183678104E+02  0.93183678104E+02  0.00000000000E+00 0.  1.
          1   -1    0    0  502    0 -0.00000000000E+00 -0.00000000000E+00 -0.37482551894E+03  0.37482551894E+03  0.00000000000E+00 0. -1.
         23    2    1    2    0    0 -0.45441805040E+02 -0.49846191970E+02 -0.13654956661E+03  0.18001692680E+03  0.95972440297E+02 0.  0.
        -24    2    1    2    0    0  0.60540563955E+02 -0.41626696094E+02  0.81124146824E+01  0.10891983105E+03  0.79998603818E+02 0.  0.
         11    1    4    4    0    0 -0.52040771483E-01 -0.44030498332E+02 -0.10917244883E+02  0.45363793134E+02  0.00000000000E+00 0. -1.
        -12    1    4    4    0    0  0.60592604727E+02  0.24038022383E+01  0.19029659566E+02  0.63556037919E+02  0.00000000000E+00 0.  1.
        -13    1    3    3    0    0 -0.60788586080E+02 -0.13668717866E+01 -0.46291011973E+02  0.76419750886E+02  0.00000000000E+00 0. -1.
         13    1    3    3    0    0  0.15346781040E+02 -0.48479320183E+02 -0.90258554632E+02  0.10359717592E+03  0.00000000000E+00 0.  1.
          2    1    1    2  501    0 -0.15098758915E+02  0.91472888064E+02 -0.15320468891E+03  0.17907243919E+03  0.00000000000E+00 0. -1.
<scales pt_clust_5="13000.00000" pt_clust_6="13000.00000" pt_clust_7="13000.00000" pt_clust_8="13000.00000" pt_clust_9="92.71068"></scales>
<clustering>
<clus scale="   79.999">  5  6 -1 -1</clus>
<clus scale="   92.711">  1  9  2 -1</clus>
<clus scale="   95.972">  7  8 -1 -1</clus>
<clus scale="   97.374">  1  5  2 -1</clus>
<clus scale="   92.711">  1  5  2 -1</clus>
</clustering>
</event>
<event>
 9    1  0.1487426E-004  0.1171599E+03  0.7546771E-02  0.1261236E+00
          1   -1    0    0  502    0 -0.00000000000E+00  0.00000000000E+00  0.12311033730E+03  0.12311033730E+03  0.00000000000E+00 0. -1.
         21   -1    0    0  501  502  0.00000000000E+00 -0.00000000000E+00 -0.35255935508E+03  0.35255935508E+03  0.00000000000E+00 0.  1.
        -24    2    1    2    0    0 -0.35194126453E+02  0.20022239717E+02 -0.26065012678E+03  0.27570464324E+03  0.80218732821E+02 0.  0.
         23    2    1    2    0    0 -0.51460958259E+02  0.12964822212E+02  0.25615148442E+02  0.10707558302E+03  0.89402057079E+02 0.  0.
         13    1    3    3    0    0  0.25645113677E+02  0.87376920977E+01 -0.62541937519E+02  0.68158000758E+02  0.00000000000E+00 0. -1.
        -14    1    3    3    0    0 -0.60839240130E+02  0.11284547620E+02 -0.19810818926E+03  0.20754664248E+03  0.00000000000E+00 0.  1.
        -11    1    4    4    0    0  0.28251261230E+01  0.34324268838E+02  0.33694837014E+02  0.48181726933E+02  0.00000000000E+00 0.  1.
         11    1    4    4    0    0 -0.54286084381E+02 -0.21359446626E+02 -0.80796885718E+01  0.58893856089E+02  0.00000000000E+00 0. -1.
          2    1    1    2  501    0  0.86655084712E+02 -0.32987061930E+02  0.55859605516E+01  0.92889466122E+02  0.00000000000E+00 0. -1.
<scales pt_clust_5="13000.00000" pt_clust_6="13000.00000" pt_clust_7="13000.00000" pt_clust_8="13000.00000" pt_clust_9="75.72128"></scales>
<clustering>
<clus scale="   80.219">  5  6 -1 -1</clus>
<clus scale="   89.402">  7  8 -1 -1</clus>
<clus scale="   89.859">  1  5  2 -1</clus>
<clus scale="   75.721">  2  9  1 -1</clus>
<clus scale="   75.721">  2  5  1 -1</clus>
</clustering>
</event>
<event>
 9    1  0.1487426E-004  0.4142786E+03  0.7546771E-02  0.1064923E+00
          1   -1    0    0  502    0 -0.00000000000E+00  0.00000000000E+00  0.66525960728E+03  0.66525960728E+03  0.00000000000E+00 0. -1.
         21   -1    0    0  501  502  0.00000000000E+00 -0.00000000000E+00 -0.42515233336E+03  0.42515233336E+03  0.00000000000E+00 0.  1.
        -24    2    1    2    0    0 -0.13975648544E+03 -0.11416922565E+03  0.14957566027E+03  0.24810344875E+03  0.81338526117E+02 0.  0.
         23    2    1    2    0    0 -0.18328648549E+02 -0.33854951580E+03  0.73442001729E+02  0.36247808093E+03  0.10509480260E+03 0.  0.
         11    1    3    3    0    0 -0.74763425157E+02 -0.73114038275E+02  0.13347627376E+03  0.16956163479E+03  0.00000000000E+00 0. -1.
        -12    1    3    3    0    0 -0.64993060282E+02 -0.41055187373E+02  0.16099386505E+02  0.78541813965E+02  0.00000000000E+00 0.  1.
        -11    1    4    4    0    0 -0.31175817582E+02 -0.11327381207E+03  0.70103784735E+02  0.13681165424E+03  0.00000000000E+00 0.  1.
         11    1    4    4    0    0  0.12847169032E+02 -0.22527570373E+03  0.33382169944E+01  0.22566642669E+03  0.00000000000E+00 0. -1.
          2    1    1    2  501    0  0.15808513399E+03  0.45271874145E+03  0.17089611920E+02  0.47983041096E+03  0.00000000000E+00 0. -1.
<scales pt_clust_5="13000.00000" pt_clust_6="13000.00000" pt_clust_7="13000.00000" pt_clust_8="13000.00000" pt_clust_9="400.72683"></scales>
<clustering>
<clus scale="   81.339">  5  6 -1 -1</clus>
<clus scale="  105.095">  7  8 -1 -1</clus>
<clus scale="  197.946">  1  5  2 -1</clus>
<clus scale="  400.727">  2  9  1 -1</clus>
<clus scale="  400.727">  2  5  1 -1</clus>
</clustering>
</event>
<event>
 9    1  0.1487426E-004  0.9890203E+02  0.7546771E-02  0.1288925E+00
         21   -1    0    0  501  502  0.00000000000E+00  0.00000000000E+00  0.25691839378E+03  0.25691839378E+03  0.00000000000E+00 0.  1.
         -4   -1    0    0    0  501 -0.00000000000E+00 -0.00000000000E+00 -0.29675222881E+03  0.29675222881E+03  0.00000000000E+00 0.  1.
        -24    2    1    2    0    0 -0.62331534080E+01 -0.42848434848E+02 -0.21963210053E+03  0.23782349431E+03  0.80292678972E+02 0.  0.
         23    2    1    2    0    0  0.48277017367E+02 -0.15807526135E+02 -0.16570540338E+02  0.10663690825E+03  0.92283796548E+02 0.  0.
         13    1    3    3    0    0 -0.18703175861E+02 -0.44269028943E+02 -0.56350903761E+02  0.74060651263E+02  0.00000000000E+00 0. -1.
        -14    1    3    3    0    0  0.12470022453E+02  0.14205940945E+01 -0.16328119676E+03  0.16376284305E+03  0.00000000000E+00 0.  1.
        -11    1    4    4    0    0  0.62490458718E+00  0.30431044674E+02  0.14043370652E+02  0.33520967244E+02  0.00000000000E+00 0. -1.
         11    1    4    4    0    0  0.47652112780E+02 -0.46238570809E+02 -0.30613910990E+02  0.73115941005E+02  0.00000000000E+00 0.  1.
         -3    1    1    2    0  502 -0.42043863959E+02  0.58655960983E+02  0.19636880584E+03  0.20921022002E+03  0.00000000000E+00 0.  1.
<scales pt_clust_5="13000.00000" pt_clust_6="13000.00000" pt_clust_7="13000.00000" pt_clust_8="13000.00000" pt_clust_9="72.16792"></scales>
<clustering>
<clus scale="   72.168">  1  9  2 -1</clus>
<clus scale="   80.293">  5  6 -1 -1</clus>
<clus scale="   87.819">  2  5  1 -1</clus>
<clus scale="   92.284">  7  8 -1 -1</clus>
<clus scale="   72.168">  1  5  2 -1</clus>
</clustering>
</event>
<event>
 9    1  0.1487426E-004  0.9037166E+02  0.7546771E-02  0.1306340E+00
          3   -1    0    0  502    0 -0.00000000000E+00  0.00000000000E+00  0.86078259298E+02  0.86078259298E+02  0.00000000000E+00 0. -1.
         21   -1    0    0  501  502  0.00000000000E+00 -0.00000000000E+00 -0.43851432284E+03  0.43851432284E+03  0.00000000000E+00 0. -1.
         23    2    1    2    0    0 -0.17942758463E+02  0.14343233034E+02  0.40442670914E+02  0.10000311465E+03  0.88528765913E+02 0.  0.
        -24    2    1    2    0    0 -0.21180841557E+02 -0.16795298640E+02 -0.11239945269E+03  0.14138407169E+03  0.81394770465E+02 0.  0.
         13    1    4    4    0    0 -0.30924018850E+02 -0.84625269349E+00 -0.37768126976E+01  0.31165291586E+02  0.00000000000E+00 0. -1.
        -14    1    4    4    0    0  0.97431772931E+01 -0.15949045946E+02 -0.10862263999E+03  0.11021878011E+03  0.00000000000E+00 0.  1.
        -13    1    3    3    0    0 -0.99183710049E+01 -0.36404534796E+02  0.28419035120E+02  0.47236699654E+02  0.00000000000E+00 0.  1.
         13    1    3    3    0    0 -0.80243874584E+01  0.50747767830E+02  0.12023635794E+02  0.52766414996E+02  0.00000000000E+00 0. -1.
          4    1    1    2  501    0  0.39123600020E+02  0.24520656055E+01 -0.28047928177E+03  0.28320539579E+03  0.00000000000E+00 0. -1.
<scales pt_clust_5="13000.00000" pt_clust_6="13000.00000" pt_clust_7="13000.00000" pt_clust_8="13000.00000" pt_clust_9="39.20037"></scales>
<clustering>
<clus scale="   39.200">  2  9  1 -1</clus>
<clus scale="   81.395">  5  6 -1 -1</clus>
<clus scale="   83.395">  2  5  1 -1</clus>
<clus scale="   88.529">  7  8 -1 -1</clus>
<clus scale="   39.200">  2  5  1 -1</clus>
</clustering>
</event>
<event>
 9    1  0.1487426E-004  0.1360035E+03  0.7546771E-02  0.1220104E+00
          1   -1    0    0  502    0 -0.00000000000E+00  0.00000000000E+00  0.96122657797E+03  0.96122657797E+03  0.00000000000E+00 0. -1.
         21   -1    0    0  501  502  0.00000000000E+00 -0.00000000000E+00 -0.24736365487E+02  0.24736365487E+02  0.00000000000E+00 0. -1.
         23    2    1    2    0    0  0.11214001620E+03  0.19122213306E+01  0.54319729434E+03  0.56114217771E+03  0.85077630435E+02 0.  0.
        -24    2    1    2    0    0 -0.95900851935E+02  0.15549850470E+02  0.25088874347E+03  0.28043384331E+03  0.79115154184E+02 0.  0.
         13    1    4    4    0    0 -0.90013528774E+02  0.30717527741E+02  0.14570950407E+03  0.17400362482E+03  0.00000000000E+00 0. -1.
        -14    1    4    4    0    0 -0.58873231611E+01 -0.15167677271E+02  0.10517923939E+03  0.10643021849E+03  0.00000000000E+00 0.  1.
        -13    1    3    3    0    0  0.29748218558E+02 -0.38165831358E+02  0.21637396286E+03  0.22171891889E+03  0.00000000000E+00 0.  1.
         13    1    3    3    0    0  0.82391797640E+02  0.40078052688E+02  0.32682333149E+03  0.33942325882E+03  0.00000000000E+00 0. -1.
          2    1    1    2  501    0 -0.16239164263E+02 -0.17462071801E+02  0.14240417467E+03  0.14438692244E+03  0.00000000000E+00 0. -1.
<scales pt_clust_5="13000.00000" pt_clust_6="13000.00000" pt_clust_7="13000.00000" pt_clust_8="13000.00000" pt_clust_9="23.84607"></scales>
<clustering>
<clus scale="   23.846">  2  9  1 -1</clus>
<clus scale="   79.115">  5  6 -1 -1</clus>
<clus scale="   85.078">  7  8 -1 -1</clus>
<clus scale="  132.355">  2  5  1 -1</clus>
<clus scale="   23.846">  2  5  1 -1</clus>
</clustering>
</event>
<event>
 9    1  0.1487426E-004  0.1969516E+03  0.7546771E-02  0.1176678E+00
         21   -1    0    0  501  502  0.00000000000E+00  0.00000000000E+00  0.31510747342E+03  0.31510747342E+03  0.00000000000E+00 0. -1.
          1   -1    0    0  502    0 -0.00000000000E+00 -0.00000000000E+00 -0.42543860980E+03  0.42543860980E+03  0.00000000000E+00 0. -1.
        -24    2    1    2    0    0 -0.41529164393E+02 -0.65917597629E+02  0.57073307810E+02  0.12592753431E+03  0.80812005664E+02 0.  0.
         23    2    1    2    0    0  0.17735722337E+03  0.15931254672E+03 -0.30572781517E+03  0.39943204124E+03  0.96126928462E+02 0.  0.
         13    1    3    3    0    0  0.23407343661E+02 -0.29652943074E+02  0.21708632596E+02  0.43571383951E+02  0.00000000000E+00 0. -1.
        -14    1    3    3    0    0 -0.64936508054E+02 -0.36264654555E+02  0.35364675214E+02  0.82356150354E+02  0.00000000000E+00 0.  1.
        -11    1    4    4    0    0  0.16955859442E+03  0.10587511070E+03 -0.26422760442E+03  0.33132443759E+03  0.00000000000E+00 0. -1.
         11    1    4    4    0    0  0.77986289434E+01  0.53437436026E+02 -0.41500210759E+02  0.68107603654E+02  0.00000000000E+00 0.  1.
          2    1    1    2  501    0 -0.13582805898E+03 -0.93394949095E+02  0.13832337098E+03  0.21518650767E+03  0.00000000000E+00 0. -1.
<scales pt_clust_5="13000.00000" pt_clust_6="13000.00000" pt_clust_7="13000.00000" pt_clust_8="13000.00000" pt_clust_9="171.89983"></scales>
<clustering>
<clus scale="   80.812">  5  6 -1 -1</clus>
<clus scale="   96.127">  7  8 -1 -1</clus>
<clus scale="  112.251">  2  5  1 -1</clus>
<clus scale="  171.900">  1  9  2 -1</clus>
<clus scale="  171.900">  1  5  2 -1</clus>
</clustering>
</event>
<event>
 9    1  0.1487426E-004  0.1147508E+03  0.7546771E-02  0.1254789E+00
         21   -1    0    0  501  502  0.00000000000E+00  0.00000000000E+00  0.10034317185E+03  0.10034317185E+03  0.00000000000E+00 0.  1.
          1   -1    0    0  502    0 -0.00000000000E+00 -0.00000000000E+00 -0.21066441694E+03  0.21066441694E+03  0.00000000000E+00 0. -1.
        -24    2    1    2    0    0 -0.80802684523E+02 -0.14811785920E+02 -0.10827152328E+03  0.15822812291E+03  0.81024399399E+02 0.  0.
         23    2    1    2    0    0  0.54645817231E+02  0.17695830730E+02 -0.34055213995E+02  0.11134456572E+03  0.89098523836E+02 0.  0.
         11    1    3    3    0    0 -0.10419625320E+02 -0.18613239163E+02  0.75641447501E+01  0.22632665546E+02  0.00000000000E+00 0. -1.
        -12    1    3    3    0    0 -0.70383059203E+02  0.38014532423E+01 -0.11583566803E+03  0.13559545736E+03  0.00000000000E+00 0.  1.
        -11    1    4    4    0    0  0.41725349263E+02  0.52216908913E+02 -0.32822287689E+02  0.74464172034E+02  0.00000000000E+00 0.  1.
         11    1    4    4    0    0  0.12920467968E+02 -0.34521078183E+02 -0.12329263062E+01  0.36880393690E+02  0.00000000000E+00 0. -1.
          2    1    1    2  501    0  0.26156867292E+02 -0.28840448096E+01  0.32005492182E+02  0.41434900154E+02  0.00000000000E+00 0. -1.
<scales pt_clust_5="13000.00000" pt_clust_6="13000.00000" pt_clust_7="13000.00000" pt_clust_8="13000.00000" pt_clust_9="26.31538"></scales>
<clustering>
<clus scale="   26.315">  1  9  2 -1</clus>
<clus scale="   81.024">  5  6 -1 -1</clus>
<clus scale="   89.099">  7  8 -1 -1</clus>
<clus scale="  108.601">  2  5  1 -1</clus>
<clus scale="   26.315">  1  5  2 -1</clus>
</clustering>
</event>
<event>
 9    1  0.1487426E-004  0.9865567E+02  0.7546771E-02  0.1289816E+00
          1   -1    0    0  502    0 -0.00000000000E+00  0.00000000000E+00  0.29337176187E+03  0.29337176187E+03  0.00000000000E+00 0. -1.
         21   -1    0    0  501  502  0.00000000000E+00 -0.00000000000E+00 -0.84296622671E+02  0.84296622671E+02  0.00000000000E+00 0.  1.
         23    2    1    2    0    0 -0.18352732571E+01  0.39437686060E+02  0.17859937553E+03  0.20418913002E+03  0.90756622732E+02 0.  0.
        -24    2    1    2    0    0  0.54690986541E+02 -0.25806811510E+02 -0.18232585608E+02  0.10032168172E+03  0.77941754642E+02 0.  0.
         13    1    4    4    0    0  0.13396724694E+02  0.26237221966E+02  0.51187476356E+01  0.29900930192E+02  0.00000000000E+00 0. -1.
        -14    1    4    4    0    0  0.41294261847E+02 -0.52044033476E+02 -0.23351333244E+02  0.70420751531E+02  0.00000000000E+00 0.  1.
        -11    1    3    3    0    0  0.25299049451E+02 -0.14091635320E+02  0.21650139080E+02  0.36157220735E+02  0.00000000000E+00 0.  1.
         11    1    3    3    0    0 -0.27134322708E+02  0.53529321380E+02  0.15694923645E+03  0.16803190929E+03  0.00000000000E+00 0. -1.
          2    1    1    2  501    0 -0.52855713284E+02 -0.13630874549E+02  0.48708349271E+02  0.73157572789E+02  0.00000000000E+00 0. -1.
<scales pt_clust_5="13000.00000" pt_clust_6="13000.00000" pt_clust_7="13000.00000" pt_clust_8="13000.00000" pt_clust_9="54.58507"></scales>
<clustering>
<clus scale="   54.585">  2  9  1 -1</clus>
<clus scale="   77.942">  5  6 -1 -1</clus>
<clus scale="   87.012">  2  5  1 -1</clus>
<clus scale="   90.757">  7  8 -1 -1</clus>
<clus scale="   54.585">  2  5  1 -1</clus>
</clustering>
</event>
<event>
 9    1  0.1487426E-004  0.9008709E+02  0.7546771E-02  0.1307526E+00
         21   -1    0    0  501  502  0.00000000000E+00  0.00000000000E+00  0.13508129913E+03  0.13508129913E+03  0.00000000000E+00 0.  1.
          1   -1    0    0  502    0 -0.00000000000E+00 -0.00000000000E+00 -0.12146291428E+03  0.12146291428E+03  0.00000000000E+00 0. -1.
        -24    2    1    2    0    0  0.19749142205E+02  0.23490673319E+02 -0.35265997122E+02  0.92634499058E+02  0.79972617263E+02 0.  0.
         23    2    1    2    0    0  0.11572058532E+02  0.99391029670E+01  0.70079218124E+02  0.11343409017E+03  0.87883432414E+02 0.  0.
         13    1    3    3    0    0 -0.17281096347E+02 -0.21331791537E+02 -0.96309598109E+01  0.29093590497E+02  0.00000000000E+00 0. -1.
        -14    1    3    3    0    0  0.37030238551E+02  0.44822464855E+02 -0.25635037312E+02  0.63540908562E+02  0.00000000000E+00 0.  1.
        -13    1    4    4    0    0  0.31446743650E+01  0.47079665681E+02  0.55016352555E+02  0.72478844817E+02  0.00000000000E+00 0.  1.
         13    1    4    4    0    0  0.84273841674E+01 -0.37140562714E+02  0.15062865569E+02  0.40955245351E+02  0.00000000000E+00 0. -1.
          2    1    1    2  501    0 -0.31321200737E+02 -0.33429776286E+02 -0.21194836152E+02  0.50475624193E+02  0.00000000000E+00 0. -1.
<scales pt_clust_5="13000.00000" pt_clust_6="13000.00000" pt_clust_7="13000.00000" pt_clust_8="13000.00000" pt_clust_9="45.81015"></scales>
<clustering>
<clus scale="   45.810">  1  9  2 -1</clus>
<clus scale="   79.973">  5  6 -1 -1</clus>
<clus scale="   82.388">  2  5  1 -1</clus>
<clus scale="   87.883">  7  8 -1 -1</clus>
<clus scale="   45.810">  1  5  2 -1</clus>
</clustering>
</event>
<event>
 9    1  0.1487426E-004  0.9887787E+02  0.7546771E-02  0.1288058E+00
         -4   -1    0    0    0  501 -0.00000000000E+00  0.00000000000E+00  0.25884589775E+02  0.25884589775E+02  0.00000000000E+00 0.  1.
         21   -1    0    0  501  502  0.00000000000E+00 -0.00000000000E+00 -0.68167987087E+03  0.68167987087E+03  0.00000000000E+00 0. -1.
        -24    2    1    2    0    0  0.43393387621E+02  0.75140235685E+01 -0.19534860358E+03  0.21600397141E+03  0.80976491056E+02 0.  0.
         23    2    1    2    0    0 -0.22044057712E+02  0.46933766018E+02 -0.36305073439E+03  0.37795447964E+03  0.91405875466E+02 0.  0.
         13    1    3    3    0    0  0.64301884030E+02  0.47323907903E+00 -0.17315837297E+03  0.18471269143E+03  0.00000000000E+00 0. -1.
        -14    1    3    3    0    0 -0.20908496409E+02  0.70407844895E+01 -0.22190230616E+02  0.31291279985E+02  0.00000000000E+00 0.  1.
        -11    1    4    4    0    0  0.16312952578E+02 -0.19848012035E+02 -0.12981486831E+03  0.13233274742E+03  0.00000000000E+00 0. -1.
         11    1    4    4    0    0 -0.38357010291E+02  0.66781778054E+02 -0.23323586607E+03  0.24562173222E+03  0.00000000000E+00 0.  1.
         -3    1    1    2    0  502 -0.21349329909E+02 -0.54447789587E+02 -0.97395943122E+02  0.11360600959E+03  0.00000000000E+00 0.  1.
<scales pt_clust_5="13000.00000" pt_clust_6="13000.00000" pt_clust_7="13000.00000" pt_clust_8="13000.00000" pt_clust_9="58.48384"></scales>
<clustering>
<clus scale="   58.484">  2  9  1 -1</clus>
<clus scale="   80.976">  5  6 -1 -1</clus>
<clus scale="   89.325">  1  5  2 -1</clus>
<clus scale="   91.406">  7  8 -1 -1</clus>
<clus scale="   58.484">  2  5  1 -1</clus>
</clustering>
</event>
<event>
 9    1  0.1487426E-004  0.1072821E+03  0.7546771E-02  0.1270537E+00
          1   -1    0    0  502    0 -0.00000000000E+00  0.00000000000E+00  0.39690514074E+03  0.39690514074E+03  0.00000000000E+00 0. -1.
         21   -1    0    0  501  502  0.00000000000E+00 -0.00000000000E+00 -0.41744711011E+02  0.41744711011E+02  0.00000000000E+00 0. -1.
        -24    2    1    2    0    0 -0.40744749334E+02  0.49224034661E+02  0.24893997469E+03  0.26949311422E+03  0.81069645531E+02 0.  0.
         23    2    1    2    0    0  0.18723735458E+02 -0.24900727500E+02  0.68723254085E+02  0.11933115773E+03  0.92446822837E+02 0.  0.
         13    1    3    3    0    0 -0.35694819091E+02  0.33563006303E+02  0.24823373234E+03  0.25302288706E+03  0.00000000000E+00 0. -1.
        -14    1    3    3    0    0 -0.50499302435E+01  0.15661028358E+02  0.70624235285E+00  0.16470227167E+02  0.00000000000E+00 0.  1.
        -11    1    4    4    0    0 -0.15141805125E+02 -0.32782299053E+02 -0.62873435300E+01  0.36653568479E+02  0.00000000000E+00 0. -1.
         11    1    4    4    0    0  0.33865540583E+02  0.78815715522E+01  0.75010597615E+02  0.82677589247E+02  0.00000000000E+00 0.  1.
          2    1    1    2  501    0  0.22021013876E+02 -0.24323307160E+02  0.37497200946E+02  0.49825579797E+02  0.00000000000E+00 0. -1.
<scales pt_clust_5="13000.00000" pt_clust_6="13000.00000" pt_clust_7="13000.00000" pt_clust_8="13000.00000" pt_clust_9="32.81080"></scales>
<clustering>
<clus scale="   32.811">  2  9  1 -1</clus>
<clus scale="   81.070">  5  6 -1 -1</clus>
<clus scale="   92.447">  7  8 -1 -1</clus>
<clus scale="   97.649">  1  5  2 -1</clus>
<clus scale="   32.811">  2  5  1 -1</clus>
</clustering>
</event>
<event>
 9    1  0.2127795E-004  0.3186804E+03  0.7546771E-02  0.1076258E+00
          1   -1    0    0  502    0 -0.00000000000E+00  0.00000000000E+00  0.35370659608E+03  0.35370659608E+03  0.00000000000E+00 0. -1.
         21   -1    0    0  501  502  0.00000000000E+00 -0.00000000000E+00 -0.34480402936E+03  0.34480402936E+03  0.00000000000E+00 0. -1.
        -24    2    1    2    0    0  0.18967798605E+03  0.30314084343E+02  0.16338958555E+03  0.26533811551E+03  0.82531671373E+02 0.  0.
         23    2    1    2    0    0  0.42424688181E+02 -0.13560834372E+02  0.54246873817E+02  0.12056707058E+03  0.98030325891E+02 0.  0.
         11    1    3    3    0    0  0.19372900392E+03  0.39261623679E+02  0.16168119072E+03  0.25536877156E+03  0.00000000000E+00 0. -1.
        -12    1    3    3    0    0 -0.40510178777E+01 -0.89475393354E+01  0.17083948262E+01  0.99693439546E+01  0.00000000000E+00 0.  1.
        -13    1    4    4    0    0  0.30681510567E+02  0.66052574301E+01 -0.23619310995E+02  0.39279210383E+02  0.00000000000E+00 0.  1.
         13    1    4    4    0    0  0.11743177614E+02 -0.20166091802E+02  0.77866184812E+02  0.81287860202E+02  0.00000000000E+00 0. -1.
          2    1    1    2  501    0 -0.23210267423E+03 -0.16753249971E+02 -0.20873389265E+03  0.31260543934E+03  0.00000000000E+00 0. -1.
<scales pt_clust_5="13000.00000" pt_clust_6="13000.00000" pt_clust_7="13000.00000" pt_clust_8="13000.00000" pt_clust_9="232.70652"></scales>
<clustering>
<clus scale="   82.532">  5  6 -1 -1</clus>
<clus scale="   98.030">  7  8 -1 -1</clus>
<clus scale="  100.787">  5  7 -1 -1</clus>
<clus scale="  232.707">  2  9  1 -1</clus>
<clus scale="  232.707">  2  5  1 -1</clus>
</clustering>
</event>
<event>
 9    1  0.1487426E-004  0.1119585E+03  0.7546771E-02  0.1270142E+00
         -2   -1    0    0    0  501 -0.00000000000E+00  0.00000000000E+00  0.71240287462E+02  0.71240287462E+02  0.00000000000E+00 0.  1.
         21   -1    0    0  501  502  0.00000000000E+00 -0.00000000000E+00 -0.40414864956E+03  0.40414864956E+03  0.00000000000E+00 0. -1.
        -24    2    1    2    0    0  0.22389929052E+02 -0.14721669023E+02  0.22472285873E+02  0.88734793077E+02  0.81552580635E+02 0.  0.
         23    2    1    2    0    0 -0.47301556928E+02  0.10186930961E+02 -0.22965744304E+03  0.25840642540E+03  0.10812089852E+03 0.  0.
         11    1    3    3    0    0 -0.24116409739E+02 -0.25063477635E+02  0.21874702088E+02  0.41088705520E+02  0.00000000000E+00 0. -1.
        -12    1    3    3    0    0  0.46506338791E+02  0.10341808613E+02  0.59758378485E+00  0.47646087557E+02  0.00000000000E+00 0.  1.
        -11    1    4    4    0    0  0.15708994074E+02 -0.35684429002E+02 -0.58036309243E+02  0.69916837446E+02  0.00000000000E+00 0.  1.
         11    1    4    4    0    0 -0.63010551002E+02  0.45871359962E+02 -0.17162113380E+03  0.18848958796E+03  0.00000000000E+00 0. -1.
         -1    1    1    2    0  502  0.24911627876E+02  0.45347380622E+01 -0.12572320493E+03  0.12824771854E+03  0.00000000000E+00 0.  1.
<scales pt_clust_5="13000.00000" pt_clust_6="13000.00000" pt_clust_7="13000.00000" pt_clust_8="13000.00000" pt_clust_9="25.32100"></scales>
<clustering>
<clus scale="   25.321">  2  9  1 -1</clus>
<clus scale="   81.553">  5  6 -1 -1</clus>
<clus scale="   86.576">  1  5  2 -1</clus>
<clus scale="  108.121">  7  8 -1 -1</clus>
<clus scale="   25.321">  2  5  1 -1</clus>
</clustering>
</event>
<event>
 9    1  0.1487426E-004  0.1401691E+03  0.7546771E-02  0.1215526E+00
          3   -1    0    0  502    0 -0.00000000000E+00  0.00000000000E+00  0.53532042576E+03  0.53532042576E+03  0.00000000000E+00 0. -1.
         21   -1    0    0  501  502  0.00000000000E+00 -0.00000000000E+00 -0.50271157393E+02  0.50271157393E+02  0.00000000000E+00 0. -1.
        -24    2    1    2    0    0  0.16549889448E+02  0.95884211466E+02  0.28719940575E+03  0.31365036533E+03  0.80158419144E+02 0.  0.
         23    2    1    2    0    0 -0.24816586225E+02 -0.12455554517E+03  0.17146797993E+03  0.23211173896E+03  0.91349025377E+02 0.  0.
         13    1    3    3    0    0  0.28475780257E+02  0.86975879825E+02  0.15049217745E+03  0.17613508795E+03  0.00000000000E+00 0. -1.
        -14    1    3    3    0    0 -0.11925890810E+02  0.89083316417E+01  0.13670722830E+03  0.13751527739E+03  0.00000000000E+00 0.  1.
        -11    1    4    4    0    0 -0.41715341124E+02 -0.40725336599E+02  0.27038027320E+02  0.64263346066E+02  0.00000000000E+00 0.  1.
         11    1    4    4    0    0  0.16898754899E+02 -0.83830208573E+02  0.14442995261E+03  0.16784839290E+03  0.00000000000E+00 0. -1.
          4    1    1    2  501    0  0.82666967773E+01  0.28671333706E+02  0.26381882678E+02  0.39829478854E+02  0.00000000000E+00 0. -1.
<scales pt_clust_5="13000.00000" pt_clust_6="13000.00000" pt_clust_7="13000.00000" pt_clust_8="13000.00000" pt_clust_9="29.83930"></scales>
<clustering>
<clus scale="   29.839">  2  9  1 -1</clus>
<clus scale="   80.158">  5  6 -1 -1</clus>
<clus scale="   91.349">  7  8 -1 -1</clus>
<clus scale="  133.147">  1  5  2 -1</clus>
<clus scale="   29.839">  2  5  1 -1</clus>
</clustering>
</event>
<event>
 9    1  0.1487426E-004  0.9774479E+02  0.7546771E-02  0.1292476E+00
         21   -1    0    0  501  502  0.00000000000E+00  0.00000000000E+00  0.40702382526E+03  0.40702382526E+03  0.00000000000E+00 0. -1.
          1   -1    0    0  502    0 -0.00000000000E+00 -0.00000000000E+00 -0.50003494681E+02  0.50003494681E+02  0.00000000000E+00 0. -1.
        -24    2    1    2    0    0  0.27826945576E+02  0.94800039822E+01  0.25022403761E+02  0.87698119257E+02  0.78744079496E+02 0.  0.
         23    2    1    2    0    0 -0.18416227447E+02 -0.54264513240E+02  0.17642619196E+03  0.20716638567E+03  0.92238361398E+02 0.  0.
         13    1    3    3    0    0  0.49137944547E+02 -0.60062684835E+01 -0.25429931845E+01  0.49568938558E+02  0.00000000000E+00 0. -1.
        -14    1    3    3    0    0 -0.21310998971E+02  0.15486272466E+02  0.27565396945E+02  0.38129180699E+02  0.00000000000E+00 0.  1.
        -11    1    4    4    0    0  0.22345789284E+02 -0.62191230188E+02  0.12150908291E+03  0.13831681258E+03  0.00000000000E+00 0.  1.
         11    1    4    4    0    0 -0.40762016731E+02  0.79267169481E+01  0.54917109041E+02  0.68849573092E+02  0.00000000000E+00 0. -1.
          2    1    1    2  501    0 -0.94107181285E+01  0.44784509258E+02  0.15557173487E+03  0.16216281502E+03  0.00000000000E+00 0. -1.
<scales pt_clust_5="13000.00000" pt_clust_6="13000.00000" pt_clust_7="13000.00000" pt_clust_8="13000.00000" pt_clust_9="45.76258"></scales>
<clustering>
<clus scale="   45.763">  1  9  2 -1</clus>
<clus scale="   78.744">  5  6 -1 -1</clus>
<clus scale="   85.128">  2  5  1 -1</clus>
<clus scale="   92.238">  7  8 -1 -1</clus>
<clus scale="   45.763">  1  5  2 -1</clus>
</clustering>
</event>
<event>
 9    1  0.1487426E-004  0.9651211E+02  0.7546771E-02  0.1291702E+00
          1   -1    0    0  502    0 -0.00000000000E+00  0.00000000000E+00  0.33065297176E+03  0.33065297176E+03  0.00000000000E+00 0. -1.
         21   -1    0    0  501  502  0.00000000000E+00 -0.00000000000E+00 -0.61748284711E+02  0.61748284711E+02  0.00000000000E+00 0. -1.
        -24    2    1    2    0    0 -0.65219050986E+01 -0.20159947846E+01  0.12163868229E+03  0.14907255453E+03  0.85907263981E+02 0.  0.
         23    2    1    2    0    0  0.44208941787E+02 -0.20703373778E+02  0.16524582383E+03  0.19579180747E+03  0.92979510419E+02 0.  0.
         13    1    3    3    0    0 -0.24179201084E+02  0.20435608884E+02  0.11562824860E+03  0.11988385943E+03  0.00000000000E+00 0. -1.
        -14    1    3    3    0    0  0.17657295985E+02 -0.22451603669E+02  0.60104336817E+01  0.29188695104E+02  0.00000000000E+00 0.  1.
        -11    1    4    4    0    0 -0.59561080454E+01  0.30169020425E+02  0.72231455477E+02  0.78504956384E+02  0.00000000000E+00 0.  1.
         11    1    4    4    0    0  0.50165049832E+02 -0.50872394203E+02  0.93014368356E+02  0.11728685108E+03  0.00000000000E+00 0. -1.
          2    1    1    2  501    0 -0.37687036688E+02  0.22719368563E+02 -0.17979819071E+02  0.47536894472E+02  0.00000000000E+00 0. -1.
<scales pt_clust_5="13000.00000" pt_clust_6="13000.00000" pt_clust_7="13000.00000" pt_clust_8="13000.00000" pt_clust_9="44.00548"></scales>
<clustering>
<clus scale="   44.005">  2  9  1 -1</clus>
<clus scale="   85.907">  5  6 -1 -1</clus>
<clus scale="   89.719">  1  5  2 -1</clus>
<clus scale="   92.980">  7  8 -1 -1</clus>
<clus scale="   44.005">  2  5  1 -1</clus>
</clustering>
</event>
<event>
 9    1  0.1487426E-004  0.1175840E+03  0.7546771E-02  0.1250497E+00
         -4   -1    0    0    0  501 -0.00000000000E+00  0.00000000000E+00  0.66665281670E+02  0.66665281670E+02  0.00000000000E+00 0.  1.
         21   -1    0    0  501  502  0.00000000000E+00 -0.00000000000E+00 -0.38734378674E+03  0.38734378674E+03  0.00000000000E+00 0. -1.
        -24    2    1    2    0    0 -0.62097543659E+02 -0.33533546375E+02 -0.95696127734E+01  0.10892532261E+03  0.82416896064E+02 0.  0.
         23    2    1    2    0    0  0.81058316090E+02  0.25729205128E+02 -0.28805464808E+03  0.31423059669E+03  0.92373941187E+02 0.  0.
         11    1    3    3    0    0 -0.25713273959E+01 -0.39532120109E+02  0.17438467397E+02  0.43283950721E+02  0.00000000000E+00 0. -1.
        -12    1    3    3    0    0 -0.59526216263E+02  0.59985737333E+01 -0.27008080170E+02  0.65641371892E+02  0.00000000000E+00 0.  1.
        -11    1    4    4    0    0 -0.15227712248E+02 -0.14056078271E+02 -0.36818478868E+02  0.42249934234E+02  0.00000000000E+00 0.  1.
         11    1    4    4    0    0  0.96286028337E+02  0.39785283399E+02 -0.25123616921E+03  0.27198066246E+03  0.00000000000E+00 0. -1.
         -3    1    1    2    0  502 -0.18960772431E+02  0.78043412476E+01 -0.23054244210E+02  0.30853149103E+02  0.00000000000E+00 0.  1.
<scales pt_clust_5="13000.00000" pt_clust_6="13000.00000" pt_clust_7="13000.00000" pt_clust_8="13000.00000" pt_clust_9="20.50411"></scales>
<clustering>
<clus scale="   20.504">  2  9  1 -1</clus>
<clus scale="   82.417">  5  6 -1 -1</clus>
<clus scale="   92.374">  7  8 -1 -1</clus>
<clus scale="  109.934">  1  5  2 -1</clus>
<clus scale="   20.504">  2  5  1 -1</clus>
</clustering>
</event>
<event>
 9    1  0.1487426E-004  0.2009714E+03  0.7546771E-02  0.1149795E+00
         21   -1    0    0  501  502  0.00000000000E+00  0.00000000000E+00  0.10188776413E+03  0.10188776413E+03  0.00000000000E+00 0. -1.
          1   -1    0    0  502    0 -0.00000000000E+00 -0.00000000000E+00 -0.12945886218E+04  0.12945886218E+04  0.00000000000E+00 0. -1.
        -24    2    1    2    0    0 -0.17779344546E+03 -0.98721120374E+01 -0.71939640797E+03  0.74566206656E+03  0.82296766987E+02 0.  0.
         23    2    1    2    0    0  0.18427083643E+03 -0.10678216808E+03 -0.87721286878E+02  0.24791910581E+03  0.91709793788E+02 0.  0.
         13    1    3    3    0    0 -0.17900271287E+03 -0.19598400069E+02 -0.70841383280E+03  0.73094201343E+03  0.00000000000E+00 0. -1.
        -14    1    3    3    0    0  0.12092674158E+01  0.97262880320E+01 -0.10982575175E+02  0.14720053126E+02  0.00000000000E+00 0.  1.
        -13    1    4    4    0    0  0.18286129595E+03 -0.86119614539E+02 -0.98189571386E+02  0.22471322501E+03  0.00000000000E+00 0. -1.
         13    1    4    4    0    0  0.14095404777E+01 -0.20662553545E+02  0.10468284508E+02  0.23205880804E+02  0.00000000000E+00 0.  1.
          2    1    1    2  501    0 -0.64773909698E+01  0.11665428012E+03 -0.38558316286E+03  0.40289521360E+03  0.00000000000E+00 0. -1.
<scales pt_clust_5="13000.00000" pt_clust_6="13000.00000" pt_clust_7="13000.00000" pt_clust_8="13000.00000" pt_clust_9="116.83403"></scales>
<clustering>
<clus scale="   82.297">  5  6 -1 -1</clus>
<clus scale="   91.710">  7  8 -1 -1</clus>
<clus scale="  116.834">  1  9  2 -1</clus>
<clus scale="  196.854">  2  5  1 -1</clus>
<clus scale="  116.834">  1  5  2 -1</clus>
</clustering>
</event>
<event>
 9    1  0.1487426E-004  0.9459957E+02  0.7546771E-02  0.1299080E+00
          1   -1    0    0  502    0 -0.00000000000E+00  0.00000000000E+00  0.25675589748E+03  0.25675589748E+03  0.00000000000E+00 0. -1.
         21   -1    0    0  501  502  0.00000000000E+00 -0.00000000000E+00 -0.14323035227E+03  0.14323035227E+03  0.00000000000E+00 0.  1.
        -24    2    1    2    0    0  0.10839904716E+01 -0.19813069863E+02  0.22455802924E+03  0.23952202089E+03  0.80936748263E+02 0.  0.
         23    2    1    2    0    0 -0.56964303241E+01  0.16280532410E+00 -0.10308321612E+03  0.13877094976E+03  0.92729451781E+02 0.  0.
         13    1    3    3    0    0  0.26233283400E+02 -0.67013829199E+01  0.21720714142E+02  0.34711426272E+02  0.00000000000E+00 0. -1.
        -14    1    3    3    0    0 -0.25149292928E+02 -0.13111686943E+02  0.20283731510E+03  0.20481059461E+03  0.00000000000E+00 0.  1.
        -11    1    4    4    0    0  0.35405695947E+02 -0.10112583651E+02 -0.12699230453E+02  0.38949943616E+02  0.00000000000E+00 0. -1.
         11    1    4    4    0    0 -0.41102126271E+02  0.10275388975E+02 -0.90383985668E+02  0.99821006145E+02  0.00000000000E+00 0.  1.
          2    1    1    2  501    0  0.46124398525E+01  0.19650264539E+02 -0.79492679146E+01  0.21693279103E+02  0.00000000000E+00 0. -1.
<scales pt_clust_5="13000.00000" pt_clust_6="13000.00000" pt_clust_7="13000.00000" pt_clust_8="13000.00000" pt_clust_9="20.18434"></scales>
<clustering>
<clus scale="   20.184">  2  9  1 -1</clus>
<clus scale="   80.937">  5  6 -1 -1</clus>
<clus scale="   83.073">  1  5  2 -1</clus>
<clus scale="   92.729">  7  8 -1 -1</clus>
<clus scale="   20.184">  2  5  1 -1</clus>
</clustering>
</event>
<event>
 9    1  0.1487426E-004  0.1623784E+03  0.7546771E-02  0.1203692E+00
         21   -1    0    0  501  502  0.00000000000E+00  0.00000000000E+00  0.40371906567E+03  0.40371906567E+03  0.00000000000E+00 0.  1.
          1   -1    0    0  502    0 -0.00000000000E+00 -0.00000000000E+00 -0.16730102687E+03  0.16730102687E+03  0.00000000000E+00 0. -1.
        -24    2    1    2    0    0 -0.65914245077E+02  0.33243425194E+02 -0.61617239632E+02  0.12633333437E+03  0.81936647059E+02 0.  0.
         23    2    1    2    0    0 -0.44266300169E+02  0.10355815711E+03  0.18543974541E+03  0.23604309177E+03  0.92976581793E+02 0.  0.
         11    1    3    3    0    0 -0.58583121072E+02  0.45705375398E+02 -0.75754569329E+02  0.10611181927E+03  0.00000000000E+00 0. -1.
        -12    1    3    3    0    0 -0.73311240048E+01 -0.12461950204E+02  0.14137329697E+02  0.20221515102E+02  0.00000000000E+00 0.  1.
        -13    1    4    4    0    0 -0.46673482529E+02  0.68249022476E+02  0.18270929485E+03  0.20054682612E+03  0.00000000000E+00 0.  1.
         13    1    4    4    0    0  0.24071823599E+01  0.35309134629E+02  0.27304505580E+01  0.35496265655E+02  0.00000000000E+00 0. -1.
          2    1    1    2  501    0  0.11018054525E+03 -0.13680158230E+03  0.11259553302E+03  0.20864366639E+03  0.00000000000E+00 0. -1.
<scales pt_clust_5="13000.00000" pt_clust_6="13000.00000" pt_clust_7="13000.00000" pt_clust_8="13000.00000" pt_clust_9="133.12447"></scales>
<clustering>
<clus scale="   81.937">  5  6 -1 -1</clus>
<clus scale="   92.977">  7  8 -1 -1</clus>
<clus scale="  110.288">  2  5  1 -1</clus>
<clus scale="  133.124">  1  9  2 -1</clus>
<clus scale="  133.124">  1  5  2 -1</clus>
</clustering>
</event>
<event>
 9    1  0.1487426E-004  0.1917124E+03  0.7546771E-02  0.1157961E+00
         -4   -1    0    0    0  501 -0.00000000000E+00  0.00000000000E+00  0.12546822886E+04  0.12546822886E+04  0.00000000000E+00 0.  1.
         21   -1    0    0  501  502  0.00000000000E+00 -0.00000000000E+00 -0.81157004988E+02  0.81157004988E+02  0.00000000000E+00 0.  1.
         23    2    1    2    0    0 -0.13456102323E+03 -0.41818951260E+02  0.43461713772E+03  0.46587672587E+03  0.91069059790E+02 0.  0.
        -24    2    1    2    0    0  0.25947490559E+03  0.71621715501E+02  0.29342959517E+03  0.40634330376E+03  0.80975653270E+02 0.  0.
         13    1    4    4    0    0  0.88799627442E+02  0.27146157400E+02  0.16072591595E+03  0.18562087101E+03  0.00000000000E+00 0. -1.
        -14    1    4    4    0    0  0.17067527815E+03  0.44475558100E+02  0.13270367922E+03  0.22072243275E+03  0.00000000000E+00 0.  1.
        -11    1    3    3    0    0 -0.68703433020E+02 -0.43723020208E+02  0.12401034806E+03  0.14835912722E+03  0.00000000000E+00 0.  1.
         11    1    3    3    0    0 -0.65857590205E+02  0.19040689477E+01  0.31060678966E+03  0.31751759865E+03  0.00000000000E+00 0. -1.
         -3    1    1    2    0  502 -0.12491388237E+03 -0.29802764241E+02  0.44547855073E+03  0.46361926397E+03  0.00000000000E+00 0.  1.
<scales pt_clust_5="13000.00000" pt_clust_6="13000.00000" pt_clust_7="13000.00000" pt_clust_8="13000.00000" pt_clust_9="128.42001"></scales>
<clustering>
<clus scale="   80.976">  5  6 -1 -1</clus>
<clus scale="   91.069">  7  8 -1 -1</clus>
<clus scale="  128.420">  2  9  1 -1</clus>
<clus scale="  187.129">  2  5  1 -1</clus>
<clus scale="  128.420">  2  5  1 -1</clus>
</clustering>
</event>
<event>
 9    1  0.1487426E-004  0.9729226E+02  0.7546771E-02  0.1294112E+00
         -2   -1    0    0    0  501 -0.00000000000E+00  0.00000000000E+00  0.23141520942E+03  0.23141520942E+03  0.00000000000E+00 0.  1.
         21   -1    0    0  501  502  0.00000000000E+00 -0.00000000000E+00 -0.12122878044E+03  0.12122878044E+03  0.00000000000E+00 0.  1.
        -24    2    1    2    0    0  0.19060639774E+02  0.19927906449E+02  0.32165667249E+02  0.89612266080E+02  0.78963907189E+02 0.  0.
         23    2    1    2    0    0 -0.45260020442E+02  0.15472394741E+02 -0.58208374288E+02  0.11986061506E+03  0.93222785606E+02 0.  0.
         11    1    3    3    0    0 -0.99572250827E+01  0.34164904703E+02 -0.95446557750E+01  0.36844097201E+02  0.00000000000E+00 0. -1.
        -12    1    3    3    0    0  0.29017864856E+02 -0.14236998255E+02  0.41710323024E+02  0.52768168879E+02  0.00000000000E+00 0.  1.
        -13    1    4    4    0    0 -0.52371310309E+00 -0.25508806139E+02 -0.53179086713E+02  0.58982952874E+02  0.00000000000E+00 0.  1.
         13    1    4    4    0    0 -0.44736307339E+02  0.40981200880E+02 -0.50292875748E+01  0.60877662187E+02  0.00000000000E+00 0. -1.
         -1    1    1    2    0  502  0.26199380669E+02 -0.35400301189E+02  0.13622913602E+03  0.14317110872E+03  0.00000000000E+00 0.  1.
<scales pt_clust_5="13000.00000" pt_clust_6="13000.00000" pt_clust_7="13000.00000" pt_clust_8="13000.00000" pt_clust_9="44.04079"></scales>
<clustering>
<clus scale="   44.041">  2  9  1 -1</clus>
<clus scale="   78.964">  5  6 -1 -1</clus>
<clus scale="   83.729">  1  5  2 -1</clus>
<clus scale="   93.223">  7  8 -1 -1</clus>
<clus scale="   44.041">  2  5  1 -1</clus>
</clustering>
</event>
<event>
 9    1  0.1487426E-004  0.2100490E+03  0.7546771E-02  0.1181035E+00
          1   -1    0    0  502    0 -0.00000000000E+00  0.00000000000E+00  0.11871619506E+03  0.11871619506E+03  0.00000000000E+00 0. -1.
         21   -1    0    0  501  502  0.00000000000E+00 -0.00000000000E+00 -0.52416119369E+03  0.52416119369E+03  0.00000000000E+00 0. -1.
        -24    2    1    2    0    0 -0.24808825204E+02  0.86494073545E+01 -0.91227504591E+02  0.12393244637E+03  0.79664945956E+02 0.  0.
         23    2    1    2    0    0 -0.83819836045E+02  0.16118785132E+03 -0.20961294163E+03  0.29181724072E+03  0.90622449501E+02 0.  0.
         11    1    3    3    0    0 -0.22218275794E+02 -0.16013717312E+02  0.20022266927E+01  0.27460878229E+02  0.00000000000E+00 0. -1.
        -12    1    3    3    0    0 -0.25905494100E+01  0.24663124667E+02 -0.93229731284E+02  0.96471568142E+02  0.00000000000E+00 0.  1.
        -11    1    4    4    0    0 -0.22299561017E+02  0.15615357500E+02 -0.88832232576E+02  0.92910039048E+02  0.00000000000E+00 0.  1.
         11    1    4    4    0    0 -0.61520275028E+02  0.14557249382E+03 -0.12078070905E+03  0.19890720167E+03  0.00000000000E+00 0. -1.
          2    1    1    2  501    0  0.10862866125E+03 -0.16983725868E+03 -0.10460455241E+03  0.22712770167E+03  0.00000000000E+00 0. -1.
<scales pt_clust_5="13000.00000" pt_clust_6="13000.00000" pt_clust_7="13000.00000" pt_clust_8="13000.00000" pt_clust_9="189.49451"></scales>
<clustering>
<clus scale="   79.665">  5  6 -1 -1</clus>
<clus scale="   83.886">  1  5  2 -1</clus>
<clus scale="   90.622">  7  8 -1 -1</clus>
<clus scale="  189.495">  2  9  1 -1</clus>
<clus scale="  189.495">  2  5  1 -1</clus>
</clustering>
</event>
<event>
 9    1  0.1487426E-004  0.1220517E+03  0.7546771E-02  0.1242029E+00
         21   -1    0    0  501  502  0.00000000000E+00  0.00000000000E+00  0.33902011195E+03  0.33902011195E+03  0.00000000000E+00 0. -1.
         -4   -1    0    0    0  501 -0.00000000000E+00 -0.00000000000E+00 -0.14135935567E+03  0.14135935567E+03  0.00000000000E+00 0.  1.
        -24    2    1    2    0    0 -0.81244721187E+02  0.34456430227E+02 -0.94535987052E+02  0.15265183138E+03  0.81102271683E+02 0.  0.
         23    2    1    2    0    0  0.55052626517E+02 -0.12879007000E+02  0.16228440218E+03  0.19345616718E+03  0.88839185735E+02 0.  0.
         13    1    3    3    0    0 -0.41193520340E+02 -0.17154396772E+02 -0.98510072526E+01  0.45697065448E+02  0.00000000000E+00 0. -1.
        -14    1    3    3    0    0 -0.40051200847E+02  0.51610827000E+02 -0.84684979799E+02  0.10695476594E+03  0.00000000000E+00 0.  1.
        -11    1    4    4    0    0 -0.20990191158E+02 -0.71700010753E+01  0.12709819957E+02  0.25564361200E+02  0.00000000000E+00 0.  1.
         11    1    4    4    0    0  0.76042817674E+02 -0.57090059247E+01  0.14957458222E+03  0.16789180598E+03  0.00000000000E+00 0. -1.
         -3    1    1    2    0  502  0.26192094670E+02 -0.21577423227E+02  0.12991234116E+03  0.13427146905E+03  0.00000000000E+00 0.  1.
<scales pt_clust_5="13000.00000" pt_clust_6="13000.00000" pt_clust_7="13000.00000" pt_clust_8="13000.00000" pt_clust_9="33.93539"></scales>
<clustering>
<clus scale="   33.935">  1  9  2 -1</clus>
<clus scale="   81.102">  5  6 -1 -1</clus>
<clus scale="   88.839">  7  8 -1 -1</clus>
<clus scale="  116.541">  2  5  1 -1</clus>
<clus scale="   33.935">  1  5  2 -1</clus>
</clustering>
</event>
<event>
 9    1  0.1487426E-004  0.4211240E+03  0.7546771E-02  0.1036701E+00
          1   -1    0    0  502    0 -0.00000000000E+00  0.00000000000E+00  0.19501397081E+04  0.19501397081E+04  0.00000000000E+00 0. -1.
         21   -1    0    0  501  502  0.00000000000E+00 -0.00000000000E+00 -0.86920639148E+02  0.86920639148E+02  0.00000000000E+00 0. -1.
        -24    2    1    2    0    0  0.16612720608E+02 -0.10540564860E+03  0.17641132854E+03  0.22149115662E+03  0.80938509863E+02 0.  0.
         23    2    1    2    0    0 -0.10070964067E+02 -0.26735770624E+03  0.53825693134E+03  0.60802446089E+03  0.91605968724E+02 0.  0.
         11    1    3    3    0    0  0.49427662007E+02 -0.57890641874E+02  0.96903280545E+02  0.12322607666E+03  0.00000000000E+00 0. -1.
        -12    1    3    3    0    0 -0.32814941398E+02 -0.47515006731E+02  0.79508047998E+02  0.98265079963E+02  0.00000000000E+00 0.  1.
        -13    1    4    4    0    0  0.16087560409E+02 -0.13607960502E+03  0.18472703667E+03  0.23000118821E+03  0.00000000000E+00 0. -1.
         13    1    4    4    0    0 -0.26158524476E+02 -0.13127810122E+03  0.35352989467E+03  0.37802327268E+03  0.00000000000E+00 0.  1.
          2    1    1    2  501    0 -0.65417565415E+01  0.37276335484E+03  0.11485508090E+04  0.12075447297E+04  0.00000000000E+00 0. -1.
<scales pt_clust_5="13000.00000" pt_clust_6="13000.00000" pt_clust_7="13000.00000" pt_clust_8="13000.00000" pt_clust_9="372.82094"></scales>
<clustering>
<clus scale="   80.939">  5  6 -1 -1</clus>
<clus scale="   91.606">  7  8 -1 -1</clus>
<clus scale="  103.737">  5  7 -1 -1</clus>
<clus scale="  372.821">  2  9  1 -1</clus>
<clus scale="  372.821">  2  5  1 -1</clus>
</clustering>
</event>
<event>
 9    1  0.1487426E-004  0.1716311E+03  0.7546771E-02  0.1177235E+00
          1   -1    0    0  502    0 -0.00000000000E+00  0.00000000000E+00  0.71246210419E+03  0.71246210419E+03  0.00000000000E+00 0. -1.
         21   -1    0    0  501  502  0.00000000000E+00 -0.00000000000E+00 -0.80784234023E+02  0.80784234023E+02  0.00000000000E+00 0. -1.
         23    2    1    2    0    0  0.84834838245E+02 -0.12301637084E+03  0.53561152746E+03  0.56294074056E+03  0.87707421306E+02 0.  0.
        -24    2    1    2    0    0 -0.44447690344E+02  0.13836632799E+03  0.82743484857E+02  0.18509230933E+03  0.79321124493E+02 0.  0.
         11    1    4    4    0    0 -0.43686693302E+02  0.14881308292E+03  0.77585312895E+02  0.17341667047E+03  0.00000000000E+00 0. -1.
        -12    1    4    4    0    0 -0.76099704189E+00 -0.10446754927E+02  0.51581719621E+01  0.11675638869E+02  0.00000000000E+00 0.  1.
        -11    1    3    3    0    0  0.13932518360E+02 -0.77137249691E+02  0.16285670553E+03  0.18073897447E+03  0.00000000000E+00 0.  1.
         11    1    3    3    0    0  0.70902319885E+02 -0.45879121153E+02  0.37275482193E+03  0.38220176608E+03  0.00000000000E+00 0. -1.
          2    1    1    2  501    0 -0.40387147901E+02 -0.15349957144E+02  0.13322857851E+02  0.45213288326E+02  0.00000000000E+00 0. -1.
<scales pt_clust_5="13000.00000" pt_clust_6="13000.00000" pt_clust_7="13000.00000" pt_clust_8="13000.00000" pt_clust_9="43.20582"></scales>
<clustering>
<clus scale="   43.206">  2  9  1 -1</clus>
<clus scale="   79.321">  5  6 -1 -1</clus>
<clus scale="   87.707">  7  8 -1 -1</clus>
<clus scale="  167.501">  2  5  1 -1</clus>
<clus scale="   43.206">  2  5  1 -1</clus>
</clustering>
</event>
<event>
 9    1  0.1487426E-004  0.1497815E+03  0.7546771E-02  0.1202278E+00
         21   -1    0    0  501  502  0.00000000000E+00  0.00000000000E+00  0.59807557314E+02  0.59807557314E+02  0.00000000000E+00 0. -1.
          1   -1    0    0  502    0 -0.00000000000E+00 -0.00000000000E+00 -0.11254695452E+04  0.11254695452E+04  0.00000000000E+00 0. -1.
        -24    2    1    2    0    0  0.11756645234E+03 -0.20823771765E+02 -0.17978327238E+03  0.23027239997E+03  0.80298524096E+02 0.  0.
         23    2    1    2    0    0 -0.10379375634E+03 -0.11910761231E+03 -0.28392315750E+03  0.33684535964E+03  0.88840698939E+02 0.  0.
         11    1    3    3    0    0  0.79271818916E+02 -0.12437128647E+02 -0.49644254866E+02  0.94357063776E+02  0.00000000000E+00 0. -1.
        -12    1    3    3    0    0  0.38294633422E+02 -0.83866431182E+01 -0.13013901752E+03  0.13591533619E+03  0.00000000000E+00 0.  1.
        -13    1    4    4    0    0 -0.45867539776E+02 -0.11311766892E+03 -0.17553779717E+03  0.21380588500E+03  0.00000000000E+00 0. -1.
         13    1    4    4    0    0 -0.57926216559E+02 -0.59899433848E+01 -0.10838536033E+03  0.12303947464E+03  0.00000000000E+00 0.  1.
          2    1    1    2  501    0 -0.13772696003E+02  0.13993138407E+03 -0.60195555797E+03  0.61815934287E+03  0.00000000000E+00 0. -1.
<scales pt_clust_5="13000.00000" pt_clust_6="13000.00000" pt_clust_7="13000.00000" pt_clust_8="13000.00000" pt_clust_9="140.60761"></scales>
<clustering>
<clus scale="   80.299">  5  6 -1 -1</clus>
<clus scale="   88.841">  7  8 -1 -1</clus>
<clus scale="  140.608">  1  9  2 -1</clus>
<clus scale="  144.878">  2  5  1 -1</clus>
<clus scale="  140.608">  1  5  2 -1</clus>
</clustering>
</event>
<event>
 9    1  0.1487426E-004  0.1350025E+03  0.7546771E-02  0.1232307E+00
         21   -1    0    0  501  502  0.00000000000E+00  0.00000000000E+00  0.77930214158E+02  0.77930214158E+02  0.00000000000E+00 0. -1.
          1   -1    0    0  502    0 -0.00000000000E+00 -0.00000000000E+00 -0.65393169230E+03  0.65393169230E+03  0.00000000000E+00 0. -1.
        -24    2    1    2    0    0 -0.57522754514E+01 -0.68027002701E+02 -0.88174028404E+02  0.13711954057E+03  0.79789393732E+02 0.  0.
         23    2    1    2    0    0 -0.97436060429E+02  0.42104345771E+02 -0.53528813728E+02  0.14760131203E+03  0.87488579880E+02 0.  0.
         13    1    3    3    0    0 -0.24546516012E+02 -0.62438024249E+02 -0.26041648981E+02  0.71966699258E+02  0.00000000000E+00 0. -1.
        -14    1    3    3    0    0  0.18794240560E+02 -0.55889784523E+01 -0.62132379424E+02  0.65152841314E+02  0.00000000000E+00 0.  1.
        -13    1    4    4    0    0 -0.53086486642E+01  0.22797973275E+02 -0.47889214686E+02  0.53303904353E+02  0.00000000000E+00 0.  1.
         13    1    4    4    0    0 -0.92127411764E+02  0.19306372496E+02 -0.56395990424E+01  0.94297407678E+02  0.00000000000E+00 0. -1.
          2    1    1    2  501    0  0.10318833588E+03  0.25922656930E+02 -0.43429863600E+03  0.44714105385E+03  0.00000000000E+00 0. -1.
<scales pt_clust_5="13000.00000" pt_clust_6="13000.00000" pt_clust_7="13000.00000" pt_clust_8="13000.00000" pt_clust_9="102.81743"></scales>
<clustering>
<clus scale="   79.789">  5  6 -1 -1</clus>
<clus scale="   87.489">  7  8 -1 -1</clus>
<clus scale="  105.010">  2  5  1 -1</clus>
<clus scale="  102.817">  1  9  2 -1</clus>
<clus scale="  102.817">  1  5  2 -1</clus>
</clustering>
</event>
<event>
 9    1  0.1487426E-004  0.1377532E+03  0.7546771E-02  0.1220536E+00
         -2   -1    0    0    0  501 -0.00000000000E+00  0.00000000000E+00  0.31686564434E+03  0.31686564434E+03  0.00000000000E+00 0.  1.
         21   -1    0    0  501  502  0.00000000000E+00 -0.00000000000E+00 -0.14501418534E+03  0.14501418534E+03  0.00000000000E+00 0.  1.
         23    2    1    2    0    0 -0.13183825991E+03  0.23708508285E+02  0.74439164953E+02  0.17762197529E+03  0.89805103902E+02 0.  0.
        -24    2    1    2    0    0  0.47889377152E+02 -0.45632005447E+02 -0.53098435660E+02  0.11052951934E+03  0.70863660720E+02 0.  0.
         11    1    4    4    0    0  0.34910876340E+01 -0.30450114624E+02  0.96903830229E+01  0.32144994893E+02  0.00000000000E+00 0. -1.
        -12    1    4    4    0    0  0.44398289518E+02 -0.15181890823E+02 -0.62788818683E+02  0.78384524446E+02  0.00000000000E+00 0.  1.
        -13    1    3    3    0    0 -0.74258567770E+01 -0.23227730406E+02  0.27145287294E+02  0.36490237474E+02  0.00000000000E+00 0. -1.
         13    1    3    3    0    0 -0.12441240313E+03  0.46936238691E+02  0.47293877660E+02  0.14113173782E+03  0.00000000000E+00 0.  1.
         -1    1    1    2    0  502  0.83948882756E+02  0.21923497162E+02  0.15051072970E+03  0.17372833505E+03  0.00000000000E+00 0.  1.
<scales pt_clust_5="13000.00000" pt_clust_6="13000.00000" pt_clust_7="13000.00000" pt_clust_8="13000.00000" pt_clust_9="86.76441"></scales>
<clustering>
<clus scale="   70.864">  5  6 -1 -1</clus>
<clus scale="   86.764">  2  9  1 -1</clus>
<clus scale="   89.805">  7  8 -1 -1</clus>
<clus scale="  126.225">  2  5  1 -1</clus>
<clus scale="   86.764">  2  5  1 -1</clus>
</clustering>
</event>
<event>
 9    1  0.1487426E-004  0.9253649E+02  0.7546771E-02  0.1299623E+00
          1   -1    0    0  502    0 -0.00000000000E+00  0.00000000000E+00  0.19850002609E+03  0.19850002609E+03  0.00000000000E+00 0. -1.
         21   -1    0    0  501  502  0.00000000000E+00 -0.00000000000E+00 -0.79737128697E+02  0.79737128697E+02  0.00000000000E+00 0. -1.
         23    2    1    2    0    0 -0.35187435177E+02 -0.23024719770E+02  0.88030017962E+02  0.12956424673E+03  0.85260287671E+02 0.  0.
        -24    2    1    2    0    0  0.36710150254E+02 -0.25247244936E+02  0.39017448383E+02  0.99671527252E+02  0.80168532217E+02 0.  0.
         11    1    4    4    0    0  0.48571550766E+02 -0.45175293098E+02  0.18904462786E+02  0.68973773013E+02  0.00000000000E+00 0. -1.
        -12    1    4    4    0    0 -0.11861400513E+02  0.19928048162E+02  0.20112985598E+02  0.30697754239E+02  0.00000000000E+00 0.  1.
        -11    1    3    3    0    0  0.17553278184E+02  0.98296003336E+01 -0.19521561010E+01  0.20212608223E+02  0.00000000000E+00 0.  1.
         11    1    3    3    0    0 -0.52740713361E+02 -0.32854320103E+02  0.89982174063E+02  0.10935163851E+03  0.00000000000E+00 0. -1.
          2    1    1    2  501    0 -0.15227150762E+01  0.48271964706E+02 -0.82845689547E+01  0.49001380802E+02  0.00000000000E+00 0. -1.
<scales pt_clust_5="13000.00000" pt_clust_6="13000.00000" pt_clust_7="13000.00000" pt_clust_8="13000.00000" pt_clust_9="48.29598"></scales>
<clustering>
<clus scale="   48.296">  2  9  1 -1</clus>
<clus scale="   80.169">  5  6 -1 -1</clus>
<clus scale="   85.260">  7  8 -1 -1</clus>
<clus scale="   87.867">  2  5  1 -1</clus>
<clus scale="   48.296">  2  5  1 -1</clus>
</clustering>
</event>
<event>
 9    1  0.1487426E-004  0.9633967E+02  0.7546771E-02  0.1293785E+00
         21   -1    0    0  501  502  0.00000000000E+00  0.00000000000E+00  0.13625178859E+03  0.13625178859E+03  0.00000000000E+00 0.  1.
         -2   -1    0    0    0  501 -0.00000000000E+00 -0.00000000000E+00 -0.11085518734E+03  0.11085518734E+03  0.00000000000E+00 0.  1.
         23    2    1    2    0    0 -0.16258015019E+02 -0.32249057189E+02 -0.51299886262E+02  0.11080977826E+03  0.91338950538E+02 0.  0.
        -24    2    1    2    0    0 -0.22021346005E+01  0.21203309611E+02  0.38232905084E+02  0.92226426888E+02  0.81175914225E+02 0.  0.
         11    1    4    4    0    0  0.37851859196E+02 -0.34300144605E+00  0.11940146053E+02  0.39691913312E+02  0.00000000000E+00 0. -1.
        -12    1    4    4    0    0 -0.40053993797E+02  0.21546311057E+02  0.26292759031E+02  0.52534513576E+02  0.00000000000E+00 0.  1.
        -13    1    3    3    0    0 -0.27342801160E+02  0.20439809379E+02 -0.45170604584E+02  0.56619767760E+02  0.00000000000E+00 0. -1.
         13    1    3    3    0    0  0.11084786140E+02 -0.52688866568E+02 -0.61292816786E+01  0.54190010499E+02  0.00000000000E+00 0.  1.
         -1    1    1    2    0  502  0.18460149620E+02  0.11045747578E+02  0.38463582433E+02  0.44070770780E+02  0.00000000000E+00 0.  1.
<scales pt_clust_5="13000.00000" pt_clust_6="13000.00000" pt_clust_7="13000.00000" pt_clust_8="13000.00000" pt_clust_9="21.51245"></scales>
<clustering>
<clus scale="   21.512">  1  9  2 -1</clus>
<clus scale="   81.176">  5  6 -1 -1</clus>
<clus scale="   86.764">  1  5  2 -1</clus>
<clus scale="   91.339">  7  8 -1 -1</clus>
<clus scale="   21.512">  1  5  2 -1</clus>
</clustering>
</event>
<event>
 9    1  0.1487426E-004  0.9597164E+02  0.7546771E-02  0.1295748E+00
         21   -1    0    0  501  502  0.00000000000E+00  0.00000000000E+00  0.28491967394E+03  0.28491967394E+03  0.00000000000E+00 0. -1.
          1   -1    0    0  502    0 -0.00000000000E+00 -0.00000000000E+00 -0.27544465628E+03  0.27544465628E+03  0.00000000000E+00 0. -1.
         23    2    1    2    0    0 -0.28719779004E+02  0.13731523077E+02 -0.23623294378E+03  0.25564330845E+03  0.92380284670E+02 0.  0.
        -24    2    1    2    0    0 -0.14558263677E+02 -0.42751834611E+01  0.34485340518E+02  0.88903026863E+02  0.80525084538E+02 0.  0.
         13    1    4    4    0    0 -0.38723367295E+00 -0.29743071638E+02 -0.13574383161E+02  0.32696546279E+02  0.00000000000E+00 0. -1.
        -14    1    4    4    0    0 -0.14171030004E+02  0.25467888176E+02  0.48059723680E+02  0.56206480584E+02  0.00000000000E+00 0.  1.
        -13    1    3    3    0    0 -0.49606846049E+02 -0.19857496193E+02 -0.17294898515E+03  0.18101522255E+03  0.00000000000E+00 0. -1.
         13    1    3    3    0    0  0.20887067045E+02  0.33589019270E+02 -0.63283958632E+02  0.74628085902E+02  0.00000000000E+00 0.  1.
          2    1    1    2  501    0  0.43278042680E+02 -0.94563396162E+01  0.21122262092E+03  0.21581799491E+03  0.00000000000E+00 0. -1.
<scales pt_clust_5="13000.00000" pt_clust_6="13000.00000" pt_clust_7="13000.00000" pt_clust_8="13000.00000" pt_clust_9="44.29911"></scales>
<clustering>
<clus scale="   44.299">  1  9  2 -1</clus>
<clus scale="   80.525">  5  6 -1 -1</clus>
<clus scale="   84.621">  1  5  2 -1</clus>
<clus scale="   92.380">  7  8 -1 -1</clus>
<clus scale="   44.299">  1  5  2 -1</clus>
</clustering>
</event>
<event>
 9    1  0.1487426E-004  0.1562808E+03  0.7546771E-02  0.1194875E+00
         21   -1    0    0  501  502  0.00000000000E+00  0.00000000000E+00  0.23004701794E+03  0.23004701794E+03  0.00000000000E+00 0. -1.
         -2   -1    0    0    0  501 -0.00000000000E+00 -0.00000000000E+00 -0.21862858501E+03  0.21862858501E+03  0.00000000000E+00 0.  1.
         23    2    1    2    0    0 -0.85555962478E+02  0.12696180409E+03 -0.91397683799E+02  0.20066219190E+03  0.92047032752E+02 0.  0.
        -24    2    1    2    0    0  0.16205475282E+01 -0.74884073983E+02  0.10074750528E+03  0.14921299096E+03  0.80648658645E+02 0.  0.
         13    1    4    4    0    0  0.27003045071E+02 -0.60600677084E+02  0.10008816302E+03  0.12008016857E+03  0.00000000000E+00 0. -1.
        -14    1    4    4    0    0 -0.25382497542E+02 -0.14283396900E+02  0.65934225791E+00  0.29132822395E+02  0.00000000000E+00 0.  1.
        -13    1    3    3    0    0 -0.64341783793E+02  0.27007765563E+02 -0.10994800656E+02  0.70641136626E+02  0.00000000000E+00 0. -1.
         13    1    3    3    0    0 -0.21214178685E+02  0.99954038531E+02 -0.80402883143E+02  0.13002105527E+03  0.00000000000E+00 0.  1.
         -1    1    1    2    0  502  0.83935414949E+02 -0.52077730111E+02  0.20686114427E+01  0.98800420088E+02  0.00000000000E+00 0.  1.
<scales pt_clust_5="13000.00000" pt_clust_6="13000.00000" pt_clust_7="13000.00000" pt_clust_8="13000.00000" pt_clust_9="98.77881"></scales>
<clustering>
<clus scale="   80.649">  5  6 -1 -1</clus>
<clus scale="   92.047">  7  8 -1 -1</clus>
<clus scale="   98.779">  1  9  2 -1</clus>
<clus scale="  149.851">  1  5  2 -1</clus>
<clus scale="   98.779">  1  5  2 -1</clus>
</clustering>
</event>
<event>
 9    1  0.1487426E-004  0.3792804E+03  0.7546771E-02  0.1051200E+00
         -2   -1    0    0    0  501 -0.00000000000E+00  0.00000000000E+00  0.54969992943E+03  0.54969992943E+03  0.00000000000E+00 0.  1.
         21   -1    0    0  501  502  0.00000000000E+00 -0.00000000000E+00 -0.30653951874E+03  0.30653951874E+03  0.00000000000E+00 0.  1.
        -24    2    1    2    0    0 -0.56817243043E+02 -0.22274230358E+02  0.13516394889E+03  0.18502261128E+03  0.11063332752E+03 0.  0.
         23    2    1    2    0    0 -0.22216995304E+03  0.74703418071E+02  0.24850682313E+03  0.35447429641E+03  0.94637714299E+02 0.  0.
         13    1    3    3    0    0  0.10043980782E+02  0.30716791370E+02  0.10536948387E+02  0.33991618133E+02  0.00000000000E+00 0. -1.
        -14    1    3    3    0    0 -0.66861223825E+02 -0.52991021728E+02  0.12462700050E+03  0.15103099314E+03  0.00000000000E+00 0.  1.
        -13    1    4    4    0    0 -0.20869603111E+03  0.89553734918E+02  0.20242954093E+03  0.30422298381E+03  0.00000000000E+00 0.  1.
         13    1    4    4    0    0 -0.13473921929E+02 -0.14850316847E+02  0.46077282203E+02  0.50251312598E+02  0.00000000000E+00 0. -1.
         -1    1    1    2    0  502  0.27898719609E+03 -0.52429187713E+02 -0.14051036134E+03  0.31674254048E+03  0.00000000000E+00 0.  1.
<scales pt_clust_5="13000.00000" pt_clust_6="13000.00000" pt_clust_7="13000.00000" pt_clust_8="13000.00000" pt_clust_9="283.87088"></scales>
<clustering>
<clus scale="   94.638">  7  8 -1 -1</clus>
<clus scale="  110.633">  5  6 -1 -1</clus>
<clus scale="  122.641">  5  7 -1 -1</clus>
<clus scale="  283.871">  2  9  1 -1</clus>
<clus scale="  283.871">  2  5  1 -1</clus>
</clustering>
</event>
<event>
 9    1  0.1487426E-004  0.1218923E+03  0.7546771E-02  0.1243468E+00
          1   -1    0    0  502    0 -0.00000000000E+00  0.00000000000E+00  0.80336495363E+03  0.80336495363E+03  0.00000000000E+00 0. -1.
         21   -1    0    0  501  502  0.00000000000E+00 -0.00000000000E+00 -0.35120080373E+02  0.35120080373E+02  0.00000000000E+00 0.  1.
         23    2    1    2    0    0  0.36658682708E+02  0.72327870316E+02  0.64838901702E+03  0.65986753098E+03  0.91878513296E+02 0.  0.
        -24    2    1    2    0    0 -0.16762660841E+02 -0.75911037598E+02  0.97623454413E+02  0.14856803606E+03  0.80614205078E+02 0.  0.
         13    1    4    4    0    0  0.23333640048E+01 -0.42229089536E+02  0.10120236140E+03  0.10968435870E+03  0.00000000000E+00 0. -1.
        -14    1    4    4    0    0 -0.19096024846E+02 -0.33681948062E+02 -0.35789069846E+01  0.38883677364E+02  0.00000000000E+00 0.  1.
        -13    1    3    3    0    0 -0.28947499381E+02  0.39746400044E+02  0.24613932280E+03  0.25100259016E+03  0.00000000000E+00 0.  1.
         13    1    3    3    0    0  0.65606182089E+02  0.32581470271E+02  0.40224969421E+03  0.40886494082E+03  0.00000000000E+00 0. -1.
          2    1    1    2  501    0 -0.19896021867E+02  0.35831672823E+01  0.22232401828E+02  0.30049466966E+02  0.00000000000E+00 0. -1.
<scales pt_clust_5="13000.00000" pt_clust_6="13000.00000" pt_clust_7="13000.00000" pt_clust_8="13000.00000" pt_clust_9="20.21610"></scales>
<clustering>
<clus scale="   20.216">  2  9  1 -1</clus>
<clus scale="   80.614">  5  6 -1 -1</clus>
<clus scale="   91.879">  7  8 -1 -1</clus>
<clus scale="  113.643">  2  5  1 -1</clus>
<clus scale="   20.216">  2  5  1 -1</clus>
</clustering>
</event>
<event>
 9    1  0.1487426E-004  0.1994084E+03  0.7546771E-02  0.1151082E+00
          1   -1    0    0  502    0 -0.00000000000E+00  0.00000000000E+00  0.18468846440E+04  0.18468846440E+04  0.00000000000E+00 0. -1.
         21   -1    0    0  501  502  0.00000000000E+00 -0.00000000000E+00 -0.37334947620E+02  0.37334947620E+02  0.00000000000E+00 0. -1.
        -24    2    1    2    0    0 -0.22008970021E+02 -0.14869604052E+03  0.60393184919E+03  0.62778692053E+03  0.82388299498E+02 0.  0.
         23    2    1    2    0    0  0.24583448708E+02  0.22722809602E+03  0.64554527404E+03  0.69087524794E+03  0.91339771278E+02 0.  0.
         13    1    3    3    0    0 -0.49619242360E+02 -0.97386477244E+02  0.45298940146E+03  0.46598883355E+03  0.00000000000E+00 0. -1.
        -14    1    3    3    0    0  0.27610272339E+02 -0.51309563272E+02  0.15094244774E+03  0.16179808698E+03  0.00000000000E+00 0.  1.
        -11    1    4    4    0    0  0.38089319178E+02  0.38382496230E+02  0.10451911197E+03  0.11767861751E+03  0.00000000000E+00 0. -1.
         11    1    4    4    0    0 -0.13505870470E+02  0.18884559979E+03  0.54102616207E+03  0.57319663043E+03  0.00000000000E+00 0.  1.
          2    1    1    2  501    0 -0.25744786872E+01 -0.78532055502E+02  0.56007257316E+03  0.56555742316E+03  0.00000000000E+00 0. -1.
<scales pt_clust_5="13000.00000" pt_clust_6="13000.00000" pt_clust_7="13000.00000" pt_clust_8="13000.00000" pt_clust_9="78.57428"></scales>
<clustering>
<clus scale="   78.574">  2  9  1 -1</clus>
<clus scale="   82.388">  5  6 -1 -1</clus>
<clus scale="   91.340">  7  8 -1 -1</clus>
<clus scale="  195.470">  1  5  2 -1</clus>
<clus scale="   78.574">  2  5  1 -1</clus>
</clustering>
</event>
<event>
 9    1  0.1487426E-004  0.1023383E+03  0.7546771E-02  0.1283498E+00
         21   -1    0    0  501  502  0.00000000000E+00  0.00000000000E+00  0.11878789380E+03  0.11878789380E+03  0.00000000000E+00 0. -1.
          1   -1    0    0  502    0 -0.00000000000E+00 -0.00000000000E+00 -0.18681292789E+03  0.18681292789E+03  0.00000000000E+00 0. -1.
        -24    2    1    2    0    0 -0.25581862809E+02 -0.32516806303E+02 -0.91047962365E+02  0.12545820451E+03  0.75751272144E+02 0.  0.
         23    2    1    2    0    0  0.68522285348E+02  0.39656067334E+01 -0.15206645443E+02  0.11595109755E+03  0.92208379946E+02 0.  0.
         11    1    3    3    0    0  0.22503473965E+02 -0.17984237339E+02 -0.59589956036E+02  0.66187627194E+02  0.00000000000E+00 0. -1.
        -12    1    3    3    0    0 -0.48085336774E+02 -0.14532568964E+02 -0.31458006329E+02  0.59270577318E+02  0.00000000000E+00 0.  1.
        -13    1    4    4    0    0 -0.32781432381E+01  0.34807778928E+02 -0.14376661349E+02  0.37802329141E+02  0.00000000000E+00 0.  1.
         13    1    4    4    0    0  0.71800428586E+02 -0.30842172194E+02 -0.82998409428E+00  0.78148768413E+02  0.00000000000E+00 0. -1.
          2    1    1    2  501    0 -0.42940422539E+02  0.28551199570E+02  0.38229573724E+02  0.64191519626E+02  0.00000000000E+00 0. -1.
<scales pt_clust_5="13000.00000" pt_clust_6="13000.00000" pt_clust_7="13000.00000" pt_clust_8="13000.00000" pt_clust_9="51.56599"></scales>
<clustering>
<clus scale="   51.566">  1  9  2 -1</clus>
<clus scale="   75.751">  5  6 -1 -1</clus>
<clus scale="   87.801">  2  5  1 -1</clus>
<clus scale="   92.208">  7  8 -1 -1</clus>
<clus scale="   51.566">  1  5  2 -1</clus>
</clustering>
</event>
<event>
 9    1  0.1889886E-004  0.1941782E+03  0.7546771E-02  0.1155728E+00
         21   -1    0    0  501  502  0.00000000000E+00  0.00000000000E+00  0.22766126859E+03  0.22766126859E+03  0.00000000000E+00 0.  1.
          1   -1    0    0  502    0 -0.00000000000E+00 -0.00000000000E+00 -0.10781385739E+04  0.10781385739E+04  0.00000000000E+00 0. -1.
         23    2    1    2    0    0  0.15496662515E+03 -0.71400229118E+02 -0.59081919167E+03  0.62174306742E+03  0.91566789895E+02 0.  0.
        -24    2    1    2    0    0 -0.21194075221E+03 -0.39413747050E+02  0.13706637641E+03  0.26822494672E+03  0.81762488945E+02 0.  0.
         13    1    4    4    0    0 -0.95191175989E+02  0.14961610039E+02  0.30529239708E+02  0.10108038503E+03  0.00000000000E+00 0. -1.
        -14    1    4    4    0    0 -0.11674957622E+03 -0.54375357089E+02  0.10653713670E+03  0.16714456169E+03  0.00000000000E+00 0.  1.
        -11    1    3    3    0    0  0.62179740499E+02  0.13389648484E+02 -0.14079786020E+03  0.15449802669E+03  0.00000000000E+00 0. -1.
         11    1    3    3    0    0  0.92786884650E+02 -0.84789877602E+02 -0.45002133147E+03  0.46724504073E+03  0.00000000000E+00 0.  1.
          2    1    1    2  501    0  0.56974127064E+02  0.11081397617E+03 -0.39672449009E+03  0.41583182839E+03  0.00000000000E+00 0. -1.
<scales pt_clust_5="13000.00000" pt_clust_6="13000.00000" pt_clust_7="13000.00000" pt_clust_8="13000.00000" pt_clust_9="124.60258"></scales>
<clustering>
<clus scale="   81.762">  5  6 -1 -1</clus>
<clus scale="   91.567">  7  8 -1 -1</clus>
<clus scale="  124.603">  1  9  2 -1</clus>
<clus scale="  189.752">  1  5  2 -1</clus>
<clus scale="  124.603">  1  5  2 -1</clus>
</clustering>
</event>
<event>
 9    1  0.1487426E-004  0.1175482E+03  0.7546771E-02  0.1249603E+00
          1   -1    0    0  502    0 -0.00000000000E+00  0.00000000000E+00  0.29326363878E+03  0.29326363878E+03  0.00000000000E+00 0. -1.
         21   -1    0    0  501  502  0.00000000000E+00 -0.00000000000E+00 -0.12441746619E+03  0.12441746619E+03  0.00000000000E+00 0. -1.
        -24    2    1    2    0    0  0.78889446896E+01 -0.91391933333E+02  0.13379212271E+03  0.18264439606E+03  0.83928078645E+02 0.  0.
         23    2    1    2    0    0 -0.82056032918E+02  0.12494203748E+02  0.87874253094E+01  0.12361164766E+03  0.91177425534E+02 0.  0.
         11    1    3    3    0    0 -0.30653602068E+02 -0.77414318838E+02  0.86707468328E+02  0.12021150172E+03  0.00000000000E+00 0. -1.
        -12    1    3    3    0    0  0.38542546758E+02 -0.13977614495E+02  0.47084654386E+02  0.62432894344E+02  0.00000000000E+00 0.  1.
        -13    1    4    4    0    0 -0.36219386304E+02 -0.22702113477E+02 -0.31556046896E+02  0.53132043027E+02  0.00000000000E+00 0. -1.
         13    1    4    4    0    0 -0.45836646614E+02  0.35196317225E+02  0.40343472205E+02  0.70479604628E+02  0.00000000000E+00 0.  1.
          2    1    1    2  501    0  0.74167088228E+02  0.78897729585E+02  0.26266624558E+02  0.11142506125E+03  0.00000000000E+00 0. -1.
<scales pt_clust_5="13000.00000" pt_clust_6="13000.00000" pt_clust_7="13000.00000" pt_clust_8="13000.00000" pt_clust_9="108.28485"></scales>
<clustering>
<clus scale="   83.928">  5  6 -1 -1</clus>
<clus scale="   91.177">  7  8 -1 -1</clus>
<clus scale="  108.285">  2  9  1 -1</clus>
<clus scale="  112.019">  1  5  2 -1</clus>
<clus scale="  108.285">  2  5  1 -1</clus>
</clustering>
</event>
<event>
 9    1  0.1487426E-004  0.2181058E+03  0.7546771E-02  0.1138891E+00
         21   -1    0    0  501  502  0.00000000000E+00  0.00000000000E+00  0.25269973046E+03  0.25269973046E+03  0.00000000000E+00 0. -1.
          1   -1    0    0  502    0 -0.00000000000E+00 -0.00000000000E+00 -0.95281086296E+03  0.95281086296E+03  0.00000000000E+00 0. -1.
        -24    2    1    2    0    0 -0.18683377702E+03  0.11719750367E+02 -0.72407863196E+03  0.75235633304E+03  0.81890010467E+02 0.  0.
         23    2    1    2    0    0  0.16349412734E+03 -0.33343486043E+02 -0.16384798673E+03  0.26266283787E+03  0.11959718186E+03 0.  0.
         13    1    3    3    0    0 -0.18146096048E+03  0.41295955095E+01 -0.71940379631E+03  0.74194808166E+03  0.00000000000E+00 0. -1.
        -14    1    3    3    0    0 -0.53728165432E+01  0.75901548575E+01 -0.46748356544E+01  0.10408251379E+02  0.00000000000E+00 0.  1.
        -11    1    4    4    0    0  0.12615875940E+03 -0.58405158805E+02 -0.63777265628E+02  0.15295337446E+03  0.00000000000E+00 0.  1.
         11    1    4    4    0    0  0.37335367941E+02  0.25061672762E+02 -0.10007072110E+03  0.10970946341E+03  0.00000000000E+00 0. -1.
          2    1    1    2  501    0  0.23339649682E+02  0.21623735676E+02  0.18781548620E+03  0.19049142251E+03  0.00000000000E+00 0. -1.
<scales pt_clust_5="13000.00000" pt_clust_6="13000.00000" pt_clust_7="13000.00000" pt_clust_8="13000.00000" pt_clust_9="31.81706"></scales>
<clustering>
<clus scale="   31.817">  1  9  2 -1</clus>
<clus scale="   81.890">  5  6 -1 -1</clus>
<clus scale="  119.597">  7  8 -1 -1</clus>
<clus scale="  199.932">  2  5  1 -1</clus>
<clus scale="   31.817">  1  5  2 -1</clus>
</clustering>
</event>
<event>
 9    1  0.1487426E-004  0.9243296E+02  0.7546771E-02  0.1303676E+00
          1   -1    0    0  502    0 -0.00000000000E+00  0.00000000000E+00  0.19233593369E+03  0.19233593369E+03  0.00000000000E+00 0. -1.
         21   -1    0    0  501  502  0.00000000000E+00 -0.00000000000E+00 -0.16176898212E+03  0.16176898212E+03  0.00000000000E+00 0. -1.
         23    2    1    2    0    0  0.65428395786E+01  0.14537379260E+02  0.13687287608E+03  0.16535617998E+03  0.91402067280E+02 0.  0.
        -24    2    1    2    0    0 -0.20900809335E+02  0.64589084351E+01 -0.43763971032E+01  0.83693398262E+02  0.80665176700E+02 0.  0.
         13    1    4    4    0    0  0.28127657087E+02 -0.11392608510E+02  0.47720856926E+01  0.30720179422E+02  0.00000000000E+00 0. -1.
        -14    1    4    4    0    0 -0.49028466421E+02  0.17851516945E+02 -0.91484827958E+01  0.52973218841E+02  0.00000000000E+00 0.  1.
        -13    1    3    3    0    0  0.22075574969E+02  0.48250781705E+02  0.60713736891E+02  0.80632665791E+02  0.00000000000E+00 0. -1.
         13    1    3    3    0    0 -0.15532735390E+02 -0.33713402445E+02  0.76159139192E+02  0.84723514184E+02  0.00000000000E+00 0.  1.
          2    1    1    2  501    0  0.14357969756E+02 -0.20996287695E+02 -0.10192952741E+03  0.10505533756E+03  0.00000000000E+00 0. -1.
<scales pt_clust_5="13000.00000" pt_clust_6="13000.00000" pt_clust_7="13000.00000" pt_clust_8="13000.00000" pt_clust_9="25.43610"></scales>
<clustering>
<clus scale="   25.436">  2  9  1 -1</clus>
<clus scale="   80.665">  5  6 -1 -1</clus>
<clus scale="   81.831">  2  5  1 -1</clus>
<clus scale="   91.402">  7  8 -1 -1</clus>
<clus scale="   25.436">  2  5  1 -1</clus>
</clustering>
</event>
<event>
 9    1  0.1487426E-004  0.9811723E+02  0.7546771E-02  0.1300101E+00
         21   -1    0    0  501  502  0.00000000000E+00  0.00000000000E+00  0.64687380191E+02  0.64687380191E+02  0.00000000000E+00 0.  1.
          1   -1    0    0  502    0 -0.00000000000E+00 -0.00000000000E+00 -0.30199766453E+03  0.30199766453E+03  0.00000000000E+00 0. -1.
        -24    2    1    2    0    0  0.17831364924E+02  0.26651413404E+02 -0.19526487941E+03  0.20866476154E+03  0.66214455880E+02 0.  0.
         23    2    1    2    0    0 -0.32596984477E+02 -0.24354925843E+01  0.95331104930E+01  0.99157921731E+02  0.93128503828E+02 0.  0.
         13    1    3    3    0    0  0.19118933169E+02  0.22225971617E+02 -0.25554013776E+02  0.38891323452E+02  0.00000000000E+00 0. -1.
        -14    1    3    3    0    0 -0.12875682448E+01  0.44254417876E+01 -0.16971086563E+03  0.16977343809E+03  0.00000000000E+00 0.  1.
        -13    1    4    4    0    0 -0.10086280295E+02 -0.26351954131E+02 -0.34281247778E+02  0.44400027995E+02  0.00000000000E+00 0.  1.
         13    1    4    4    0    0 -0.22510704182E+02  0.23916461547E+02  0.43814358271E+02  0.54757893736E+02  0.00000000000E+00 0. -1.
          2    1    1    2  501    0  0.14765619552E+02 -0.24215920820E+02 -0.51578515421E+02  0.58862361446E+02  0.00000000000E+00 0. -1.
<scales pt_clust_5="13000.00000" pt_clust_6="13000.00000" pt_clust_7="13000.00000" pt_clust_8="13000.00000" pt_clust_9="28.36257"></scales>
<clustering>
<clus scale="   28.363">  1  9  2 -1</clus>
<clus scale="   66.214">  5  6 -1 -1</clus>
<clus scale="   73.065">  2  5  1 -1</clus>
<clus scale="   93.129">  7  8 -1 -1</clus>
<clus scale="   28.363">  1  5  2 -1</clus>
</clustering>
</event>
<event>
 9    1  0.1487426E-004  0.1547867E+03  0.7546771E-02  0.1196298E+00
         21   -1    0    0  501  502  0.00000000000E+00  0.00000000000E+00  0.85429304958E+02  0.85429304958E+02  0.00000000000E+00 0. -1.
          1   -1    0    0  502    0 -0.00000000000E+00 -0.00000000000E+00 -0.52247880955E+03  0.52247880955E+03  0.00000000000E+00 0. -1.
         23    2    1    2    0    0 -0.94906127238E+02  0.60883418622E+02 -0.18967904830E+03  0.23873745245E+03  0.91123356982E+02 0.  0.
        -24    2    1    2    0    0  0.15681285649E+03 -0.28095350729E+02 -0.97923813284E+02  0.20411976194E+03  0.81830210286E+02 0.  0.
         13    1    4    4    0    0  0.14575247111E+03 -0.29436086912E+02 -0.11200819271E+03  0.18616149248E+03  0.00000000000E+00 0. -1.
        -14    1    4    4    0    0  0.11060385379E+02  0.13407361834E+01  0.14084379430E+02  0.17958269465E+02  0.00000000000E+00 0.  1.
        -13    1    3    3    0    0 -0.27448147122E+02  0.32209876305E+02 -0.83239601374E+01  0.43129632787E+02  0.00000000000E+00 0.  1.
         13    1    3    3    0    0 -0.67457980116E+02  0.28673542317E+02 -0.18135508817E+03  0.19560781967E+03  0.00000000000E+00 0. -1.
          2    1    1    2  501    0 -0.61906729249E+02 -0.32788067893E+02 -0.14944664301E+03  0.16505090012E+03  0.00000000000E+00 0. -1.
<scales pt_clust_5="13000.00000" pt_clust_6="13000.00000" pt_clust_7="13000.00000" pt_clust_8="13000.00000" pt_clust_9="70.05359"></scales>
<clustering>
<clus scale="   70.054">  1  9  2 -1</clus>
<clus scale="   81.830">  5  6 -1 -1</clus>
<clus scale="   91.123">  7  8 -1 -1</clus>
<clus scale="  149.505">  1  5  2 -1</clus>
<clus scale="   70.054">  1  5  2 -1</clus>
</clustering>
</event>
<event>
 9    1  0.1487426E-004  0.1279221E+03  0.7546771E-02  0.1234986E+00
         21   -1    0    0  501  502  0.00000000000E+00  0.00000000000E+00  0.81863687760E+02  0.81863687760E+02  0.00000000000E+00 0. -1.
          1   -1    0    0  502    0 -0.00000000000E+00 -0.00000000000E+00 -0.24689518795E+03  0.24689518795E+03  0.00000000000E+00 0. -1.
         23    2    1    2    0    0 -0.72208711416E+02 -0.31969419933E+02 -0.94464426651E+02  0.15592054489E+03  0.95663716219E+02 0.  0.
        -24    2    1    2    0    0  0.94442992932E+02  0.14786960978E+02 -0.39389598800E+02  0.13086649382E+03  0.80226962932E+02 0.  0.
         11    1    4    4    0    0  0.10054446958E+03 -0.60933817151E+01 -0.41640997715E+02  0.10899675387E+03  0.00000000000E+00 0. -1.
        -12    1    4    4    0    0 -0.61014766464E+01  0.20880342693E+02  0.22513989154E+01  0.21869739946E+02  0.00000000000E+00 0.  1.
        -13    1    3    3    0    0 -0.20044676328E+02  0.12660935564E+02  0.14016603962E+02  0.27541850429E+02  0.00000000000E+00 0.  1.
         13    1    3    3    0    0 -0.52164035088E+02 -0.44630355497E+02 -0.10848103061E+03  0.12837869446E+03  0.00000000000E+00 0. -1.
          2    1    1    2  501    0 -0.22234281516E+02  0.17182458956E+02 -0.31177474736E+02  0.41971837001E+02  0.00000000000E+00 0. -1.
<scales pt_clust_5="13000.00000" pt_clust_6="13000.00000" pt_clust_7="13000.00000" pt_clust_8="13000.00000" pt_clust_9="28.09984"></scales>
<clustering>
<clus scale="   28.100">  1  9  2 -1</clus>
<clus scale="   80.227">  5  6 -1 -1</clus>
<clus scale="   95.664">  7  8 -1 -1</clus>
<clus scale="  116.828">  1  5  2 -1</clus>
<clus scale="   28.100">  1  5  2 -1</clus>
</clustering>
</event>
<event>
 9    1  0.1487426E-004  0.1155160E+03  0.7546771E-02  0.1254562E+00
          1   -1    0    0  502    0 -0.00000000000E+00  0.00000000000E+00  0.13940335150E+04  0.13940335150E+04  0.00000000000E+00 0. -1.
         21   -1    0    0  501  502  0.00000000000E+00 -0.00000000000E+00 -0.16732014502E+02  0.16732014502E+02  0.00000000000E+00 0. -1.
        -24    2    1    2    0    0  0.87261988079E+02  0.83064288384E+01  0.71954882196E+03  0.72924501991E+03  0.79775563585E+02 0.  0.
         23    2    1    2    0    0 -0.34003501243E+02 -0.24222667414E+02  0.23917482430E+03  0.25926796297E+03  0.90952209064E+02 0.  0.
         11    1    3    3    0    0  0.59671447041E+02  0.29930222846E+02  0.26256179193E+03  0.27091547467E+03  0.00000000000E+00 0. -1.
        -12    1    3    3    0    0  0.27590541039E+02 -0.21623794007E+02  0.45698703003E+03  0.45832954524E+03  0.00000000000E+00 0.  1.
        -11    1    4    4    0    0 -0.55205317116E+01  0.33869681675E+02  0.10159915241E+03  0.10723814330E+03  0.00000000000E+00 0.  1.
         11    1    4    4    0    0 -0.28482969532E+02 -0.58092349089E+02  0.13757567188E+03  0.15202981967E+03  0.00000000000E+00 0. -1.
          2    1    1    2  501    0 -0.53258486836E+02  0.15916238575E+02  0.41857785426E+03  0.42225254665E+03  0.00000000000E+00 0. -1.
<scales pt_clust_5="13000.00000" pt_clust_6="13000.00000" pt_clust_7="13000.00000" pt_clust_8="13000.00000" pt_clust_9="55.58593"></scales>
<clustering>
<clus scale="   55.586">  2  9  1 -1</clus>
<clus scale="   79.776">  5  6 -1 -1</clus>
<clus scale="   90.952">  7  8 -1 -1</clus>
<clus scale="  106.938">  1  5  2 -1</clus>
<clus scale="   55.586">  2  5  1 -1</clus>
</clustering>
</event>
<event>
 9    1  0.1487426E-004  0.9875719E+02  0.7546771E-02  0.1284287E+00
          3   -1    0    0  502    0 -0.00000000000E+00  0.00000000000E+00  0.78794719628E+02  0.78794719628E+02  0.00000000000E+00 0. -1.
         21   -1    0    0  501  502  0.00000000000E+00 -0.00000000000E+00 -0.20249655920E+03  0.20249655920E+03  0.00000000000E+00 0. -1.
        -24    2    1    2    0    0  0.23847597584E+02  0.55998368636E+02 -0.25281501338E+02  0.10438397753E+03  0.80946496243E+02 0.  0.
         23    2    1    2    0    0  0.11586723752E+01 -0.37534098940E+02 -0.11034085648E+03  0.14361553734E+03  0.83905702148E+02 0.  0.
         11    1    3    3    0    0  0.39827933675E+02  0.69358605193E+02 -0.24049865677E+02  0.83518120514E+02  0.00000000000E+00 0. -1.
        -12    1    3    3    0    0 -0.15980336091E+02 -0.13360236557E+02 -0.12316356613E+01  0.20865857012E+02  0.00000000000E+00 0.  1.
        -11    1    4    4    0    0 -0.23194714969E+02 -0.11521935770E+01  0.17390465142E+01  0.23288336895E+02  0.00000000000E+00 0.  1.
         11    1    4    4    0    0  0.24353387344E+02 -0.36381905363E+02 -0.11207990299E+03  0.12032720045E+03  0.00000000000E+00 0. -1.
          4    1    1    2  501    0 -0.25006269959E+02 -0.18464269696E+02  0.11920518240E+02  0.33291763963E+02  0.00000000000E+00 0. -1.
<scales pt_clust_5="13000.00000" pt_clust_6="13000.00000" pt_clust_7="13000.00000" pt_clust_8="13000.00000" pt_clust_9="31.08446"></scales>
<clustering>
<clus scale="   31.084">  2  9  1 -1</clus>
<clus scale="   80.946">  5  6 -1 -1</clus>
<clus scale="   83.906">  7  8 -1 -1</clus>
<clus scale="   96.256">  1  5  2 -1</clus>
<clus scale="   31.084">  2  5  1 -1</clus>
</clustering>
</event>
<event>
 9    1  0.1487426E-004  0.1180523E+03  0.7546771E-02  0.1249938E+00
         21   -1    0    0  501  502  0.00000000000E+00  0.00000000000E+00  0.46893290539E+02  0.46893290539E+02  0.00000000000E+00 0. -1.
          1   -1    0    0  502    0 -0.00000000000E+00 -0.00000000000E+00 -0.55930789521E+03  0.55930789521E+03  0.00000000000E+00 0. -1.
         23    2    1    2    0    0 -0.64015705005E+02  0.20174314868E+02 -0.33467767055E+03  0.35333053678E+03  0.91259583529E+02 0.  0.
        -24    2    1    2    0    0  0.88752460363E+02 -0.14993413504E+02 -0.18976417472E+03  0.22488130598E+03  0.80370131917E+02 0.  0.
         13    1    4    4    0    0  0.14130433646E+02 -0.15846504169E+02 -0.12277754920E+03  0.12459978907E+03  0.00000000000E+00 0. -1.
        -14    1    4    4    0    0  0.74622026717E+02  0.85309066553E+00 -0.66986625517E+02  0.10028151691E+03  0.00000000000E+00 0.  1.
        -11    1    3    3    0    0 -0.13079388592E+02 -0.35495068480E+02 -0.11209038235E+03  0.11830141212E+03  0.00000000000E+00 0.  1.
         11    1    3    3    0    0 -0.50936316413E+02  0.55669383348E+02 -0.22258728820E+03  0.23502912466E+03  0.00000000000E+00 0. -1.
          2    1    1    2  501    0 -0.24736755358E+02 -0.51809013643E+01  0.12027240599E+02  0.27989342990E+02  0.00000000000E+00 0. -1.
<scales pt_clust_5="13000.00000" pt_clust_6="13000.00000" pt_clust_7="13000.00000" pt_clust_8="13000.00000" pt_clust_9="25.27348"></scales>
<clustering>
<clus scale="   25.273">  1  9  2 -1</clus>
<clus scale="   80.370">  5  6 -1 -1</clus>
<clus scale="   91.260">  7  8 -1 -1</clus>
<clus scale="  109.852">  1  5  2 -1</clus>
<clus scale="   25.273">  1  5  2 -1</clus>
</clustering>
</event>
<event>
 9    1  0.1487426E-004  0.1320379E+03  0.7546771E-02  0.1233007E+00
         21   -1    0    0  501  502  0.00000000000E+00  0.00000000000E+00  0.65221122121E+02  0.65221122121E+02  0.00000000000E+00 0. -1.
          1   -1    0    0  502    0 -0.00000000000E+00 -0.00000000000E+00 -0.63399746120E+03  0.63399746120E+03  0.00000000000E+00 0. -1.
        -24    2    1    2    0    0 -0.60334058570E+02 -0.76923407808E+02 -0.41992172964E+03  0.43506305634E+03  0.58208201129E+02 0.  0.
         23    2    1    2    0    0  0.56557769837E+02  0.40778466069E+02 -0.52904931332E+01  0.11606308065E+03  0.92633604850E+02 0.  0.
         13    1    3    3    0    0 -0.27528747124E+02 -0.69712080806E+02 -0.34356080934E+03  0.35164134547E+03  0.00000000000E+00 0. -1.
        -14    1    3    3    0    0 -0.32805311446E+02 -0.72113270019E+01 -0.76360920294E+02  0.83421710869E+02  0.00000000000E+00 0.  1.
        -11    1    4    4    0    0  0.78263941710E+02  0.47903790866E+02  0.28647925712E+01  0.91805363611E+02  0.00000000000E+00 0. -1.
         11    1    4    4    0    0 -0.21706171872E+02 -0.71253247971E+01 -0.81552857044E+01  0.24257717035E+02  0.00000000000E+00 0.  1.
          2    1    1    2  501    0  0.37762887321E+01  0.36144941739E+02 -0.14356411631E+03  0.14809244634E+03  0.00000000000E+00 0. -1.
<scales pt_clust_5="13000.00000" pt_clust_6="13000.00000" pt_clust_7="13000.00000" pt_clust_8="13000.00000" pt_clust_9="36.34169"></scales>
<clustering>
<clus scale="   36.342">  1  9  2 -1</clus>
<clus scale="   58.208">  5  6 -1 -1</clus>
<clus scale="   92.634">  7  8 -1 -1</clus>
<clus scale="  110.640">  2  5  1 -1</clus>
<clus scale="   36.342">  1  5  2 -1</clus>
</clustering>
</event>
<event>
 9    1  0.1487426E-004  0.9680141E+02  0.7546771E-02  0.1293140E+00
          1   -1    0    0  502    0 -0.00000000000E+00  0.00000000000E+00  0.95068848092E+03  0.95068848092E+03  0.00000000000E+00 0. -1.
         21   -1    0    0  501  502  0.00000000000E+00 -0.00000000000E+00 -0.31034933570E+02  0.31034933570E+02  0.00000000000E+00 0.  1.
        -24    2    1    2    0    0 -0.44059079776E+01 -0.32554431617E+02  0.79199203902E+03  0.79687271657E+03  0.81703938113E+02 0.  0.
         23    2    1    2    0    0 -0.12034784378E+01 -0.76088558952E+01  0.82726838607E+02  0.12432236221E+03  0.92482305726E+02 0.  0.
         13    1    3    3    0    0  0.32672881617E+02 -0.10285406702E-01  0.18367286597E+03  0.18655626227E+03  0.00000000000E+00 0. -1.
        -14    1    3    3    0    0 -0.37078789595E+02 -0.32544146210E+02  0.60831917305E+03  0.61031645430E+03  0.00000000000E+00 0.  1.
        -11    1    4    4    0    0 -0.18216037398E+02  0.37791914216E+02  0.24614513820E+02  0.48640796552E+02  0.00000000000E+00 0.  1.
         11    1    4    4    0    0  0.17012558960E+02 -0.45400770111E+02  0.58112324787E+02  0.75681565663E+02  0.00000000000E+00 0. -1.
          2    1    1    2  501    0  0.56093864154E+01  0.40163287512E+02  0.44934669717E+02  0.60528335697E+02  0.00000000000E+00 0. -1.
<scales pt_clust_5="13000.00000" pt_clust_6="13000.00000" pt_clust_7="13000.00000" pt_clust_8="13000.00000" pt_clust_9="40.55311"></scales>
<clustering>
<clus scale="   40.553">  2  9  1 -1</clus>
<clus scale="   81.704">  5  6 -1 -1</clus>
<clus scale="   86.563">  1  5  2 -1</clus>
<clus scale="   92.482">  7  8 -1 -1</clus>
<clus scale="   40.553">  2  5  1 -1</clus>
</clustering>
</event>
<event>
 9    1  0.1487426E-004  0.1707945E+03  0.7546771E-02  0.1178203E+00
         21   -1    0    0  501  502  0.00000000000E+00  0.00000000000E+00  0.14008885871E+03  0.14008885871E+03  0.00000000000E+00 0.  1.
         -4   -1    0    0    0  501 -0.00000000000E+00 -0.00000000000E+00 -0.79057549387E+03  0.79057549387E+03  0.00000000000E+00 0.  1.
        -24    2    1    2    0    0  0.37500111261E+02  0.13649256543E+03 -0.43930197461E+03  0.46848712953E+03  0.80358489757E+02 0.  0.
         23    2    1    2    0    0 -0.67494038433E+01 -0.15440545500E+03 -0.30968783838E+03  0.35744254082E+03  0.89286134216E+02 0.  0.
         13    1    3    3    0    0 -0.21667732054E+02  0.32461633347E+02 -0.15869718456E+03  0.16342596072E+03  0.00000000000E+00 0. -1.
        -14    1    3    3    0    0  0.59167843315E+02  0.10403093209E+03 -0.28060479005E+03  0.30506116880E+03  0.00000000000E+00 0.  1.
        -11    1    4    4    0    0  0.39192128576E+02 -0.44111291272E+02 -0.10335306648E+03  0.11901128228E+03  0.00000000000E+00 0.  1.
         11    1    4    4    0    0 -0.45941532419E+02 -0.11029416373E+03 -0.20633477190E+03  0.23843125854E+03  0.00000000000E+00 0. -1.
         -3    1    1    2    0  502 -0.30750707418E+02  0.17912889566E+02  0.98503177832E+02  0.10473468223E+03  0.00000000000E+00 0.  1.
<scales pt_clust_5="13000.00000" pt_clust_6="13000.00000" pt_clust_7="13000.00000" pt_clust_8="13000.00000" pt_clust_9="35.58760"></scales>
<clustering>
<clus scale="   35.588">  1  9  2 -1</clus>
<clus scale="   80.358">  5  6 -1 -1</clus>
<clus scale="   89.286">  7  8 -1 -1</clus>
<clus scale="  166.302">  2  5  1 -1</clus>
<clus scale="   35.588">  1  5  2 -1</clus>
</clustering>
</event>
<event>
 9    1  0.1487426E-004  0.1093870E+03  0.7546771E-02  0.1266166E+00
         -4   -1    0    0    0  501 -0.00000000000E+00  0.00000000000E+00  0.26428638399E+03  0.26428638399E+03  0.00000000000E+00 0.  1.
         21   -1    0    0  501  502  0.00000000000E+00 -0.00000000000E+00 -0.65279710720E+02  0.65279710720E+02  0.00000000000E+00 0. -1.
        -24    2    1    2    0    0 -0.79977919529E+01  0.65222067802E+02  0.62948674237E+02  0.12060809534E+03  0.79157401859E+02 0.  0.
         23    2    1    2    0    0 -0.17250176187E+02 -0.56933800027E+02  0.50643568726E+02  0.11950532930E+03  0.90430783000E+02 0.  0.
         11    1    3    3    0    0  0.32056441493E+02  0.81123368338E+01  0.18417733315E+02  0.37850209386E+02  0.00000000000E+00 0. -1.
        -12    1    3    3    0    0 -0.40054233446E+02  0.57109730968E+02  0.44530940922E+02  0.82757885954E+02  0.00000000000E+00 0.  1.
        -13    1    4    4    0    0  0.11877494228E+02 -0.53913595947E+02 -0.62086194285E+01  0.55554456637E+02  0.00000000000E+00 0. -1.
         13    1    4    4    0    0 -0.29127670414E+02 -0.30202040803E+01  0.56852188155E+02  0.63950872664E+02  0.00000000000E+00 0.  1.
         -3    1    1    2    0  502  0.25247968140E+02 -0.82882677746E+01  0.85414430309E+02  0.89452670071E+02  0.00000000000E+00 0.  1.
<scales pt_clust_5="13000.00000" pt_clust_6="13000.00000" pt_clust_7="13000.00000" pt_clust_8="13000.00000" pt_clust_9="26.57360"></scales>
<clustering>
<clus scale="   26.574">  2  9  1 -1</clus>
<clus scale="   79.157">  5  6 -1 -1</clus>
<clus scale="   90.431">  7  8 -1 -1</clus>
<clus scale="  100.268">  1  5  2 -1</clus>
<clus scale="   26.574">  2  5  1 -1</clus>
</clustering>
</event>
<event>
 9    1  0.1487426E-004  0.9406122E+02  0.7546771E-02  0.1300564E+00
         -4   -1    0    0    0  501 -0.00000000000E+00  0.00000000000E+00  0.25343542766E+03  0.25343542766E+03  0.00000000000E+00 0.  1.
         21   -1    0    0  501  502  0.00000000000E+00 -0.00000000000E+00 -0.30532617089E+03  0.30532617089E+03  0.00000000000E+00 0.  1.
        -24    2    1    2    0    0 -0.15546975884E+01  0.21761590672E+02  0.75431708135E+02  0.11241151593E+03  0.80438935896E+02 0.  0.
         23    2    1    2    0    0 -0.19272486020E+02  0.53538507137E+02 -0.26592363727E+03  0.28724582423E+03  0.92503957840E+02 0.  0.
         11    1    3    3    0    0 -0.32521396527E+02 -0.11310982069E+02  0.16794075234E+02  0.38309535502E+02  0.00000000000E+00 0. -1.
        -12    1    3    3    0    0  0.30966698939E+02  0.33072572740E+02  0.58637632902E+02  0.74101980426E+02  0.00000000000E+00 0.  1.
        -11    1    4    4    0    0  0.25110912269E+02  0.54171341988E+02 -0.19147820098E+03  0.20057166714E+03  0.00000000000E+00 0.  1.
         11    1    4    4    0    0 -0.44383398289E+02 -0.63283485119E+00 -0.74445436285E+02  0.86674157090E+02  0.00000000000E+00 0. -1.
         -3    1    1    2    0  502  0.20827183609E+02 -0.75300097808E+02  0.13860118590E+03  0.15910425840E+03  0.00000000000E+00 0.  1.
<scales pt_clust_5="13000.00000" pt_clust_6="13000.00000" pt_clust_7="13000.00000" pt_clust_8="13000.00000" pt_clust_9="78.12735"></scales>
<clustering>
<clus scale="   78.127">  2  9  1 -1</clus>
<clus scale="   80.439">  5  6 -1 -1</clus>
<clus scale="   82.225">  1  5  2 -1</clus>
<clus scale="   92.504">  7  8 -1 -1</clus>
<clus scale="   78.127">  2  5  1 -1</clus>
</clustering>
</event>
<event>
 9    1  0.1487426E-004  0.1346476E+03  0.7546771E-02  0.1224940E+00
         21   -1    0    0  501  502  0.00000000000E+00  0.00000000000E+00  0.11740386887E+03  0.11740386887E+03  0.00000000000E+00 0. -1.
          1   -1    0    0  502    0 -0.00000000000E+00 -0.00000000000E+00 -0.19621009664E+03  0.19621009664E+03  0.00000000000E+00 0. -1.
        -24    2    1    2    0    0 -0.35557289054E+02  0.10476593071E+03 -0.68324551022E+02  0.14922784751E+03  0.73215334170E+02 0.  0.
         23    2    1    2    0    0  0.27095076132E+02 -0.74598950902E+02  0.17890934854E+02  0.12211720735E+03  0.91067997420E+02 0.  0.
         13    1    3    3    0    0  0.71217091118E+00  0.86269862289E+02 -0.65679320621E+02  0.10842863775E+03  0.00000000000E+00 0. -1.
        -14    1    3    3    0    0 -0.36269459965E+02  0.18496068420E+02 -0.26452304005E+01  0.40799209760E+02  0.00000000000E+00 0.  1.
        -13    1    4    4    0    0 -0.21177235119E+02 -0.68736052196E+02  0.14504841599E+02  0.73372410268E+02  0.00000000000E+00 0. -1.
         13    1    4    4    0    0  0.48272311251E+02 -0.58628987067E+01  0.33860932546E+01  0.48744797079E+02  0.00000000000E+00 0.  1.
          2    1    1    2  501    0  0.84622129222E+01 -0.30166979807E+02 -0.28372611602E+02  0.42268910648E+02  0.00000000000E+00 0. -1.
<scales pt_clust_5="13000.00000" pt_clust_6="13000.00000" pt_clust_7="13000.00000" pt_clust_8="13000.00000" pt_clust_9="31.33140"></scales>
<clustering>
<clus scale="   31.331">  1  9  2 -1</clus>
<clus scale="   73.215">  5  6 -1 -1</clus>
<clus scale="   91.068">  7  8 -1 -1</clus>
<clus scale="  123.276">  2  5  1 -1</clus>
<clus scale="   31.331">  1  5  2 -1</clus>
</clustering>
</event>
<event>
 9    1  0.1487426E-004  0.1263900E+03  0.7546771E-02  0.1241105E+00
         -2   -1    0    0    0  501 -0.00000000000E+00  0.00000000000E+00  0.40248204089E+03  0.40248204089E+03  0.00000000000E+00 0.  1.
         21   -1    0    0  501  502  0.00000000000E+00 -0.00000000000E+00 -0.10783111473E+03  0.10783111473E+03  0.00000000000E+00 0.  1.
         23    2    1    2    0    0  0.20346380230E+02  0.69183913931E+02  0.33743061912E+03  0.36091630793E+03  0.10583368782E+03 0.  0.
        -24    2    1    2    0    0 -0.43686541097E+02 -0.42624508954E+02 -0.12177428882E+02  0.10263507198E+03  0.81610695308E+02 0.  0.
         13    1    4    4    0    0 -0.60380074285E+02 -0.52447109927E+02 -0.18813498969E+02  0.82160820674E+02  0.00000000000E+00 0. -1.
        -14    1    4    4    0    0  0.16693533188E+02  0.98226009726E+01  0.66360700868E+01  0.20474251302E+02  0.00000000000E+00 0.  1.
        -13    1    3    3    0    0  0.52955864202E+02  0.64986424520E+02  0.29805040249E+03  0.30961524728E+03  0.00000000000E+00 0.  1.
         13    1    3    3    0    0 -0.32609483972E+02  0.41974894111E+01  0.39380216630E+02  0.51301060653E+02  0.00000000000E+00 0. -1.
         -1    1    1    2    0  502  0.23340160867E+02 -0.26559404977E+02 -0.30602264072E+02  0.46761775719E+02  0.00000000000E+00 0.  1.
<scales pt_clust_5="13000.00000" pt_clust_6="13000.00000" pt_clust_7="13000.00000" pt_clust_8="13000.00000" pt_clust_9="35.35767"></scales>
<clustering>
<clus scale="   35.358">  2  9  1 -1</clus>
<clus scale="   81.611">  5  6 -1 -1</clus>
<clus scale="  105.834">  7  8 -1 -1</clus>
<clus scale="  106.930">  2  5  1 -1</clus>
<clus scale="   35.358">  2  5  1 -1</clus>
</clustering>
</event>
<event>
 9    1  0.1487426E-004  0.1006806E+03  0.7546771E-02  0.1284162E+00
         -2   -1    0    0    0  501 -0.00000000000E+00  0.00000000000E+00  0.40141867851E+03  0.40141867851E+03  0.00000000000E+00 0.  1.
         21   -1    0    0  501  502  0.00000000000E+00 -0.00000000000E+00 -0.57396725666E+02  0.57396725666E+02  0.00000000000E+00 0. -1.
        -24    2    1    2    0    0  0.61836791661E+01 -0.34307208501E+02  0.22127694176E+03  0.23824098399E+03  0.81117563185E+02 0.  0.
         23    2    1    2    0    0  0.46227466122E+02  0.65036411850E+02  0.91900405213E+02  0.15243777952E+03  0.91787137751E+02 0.  0.
         11    1    3    3    0    0  0.39509392439E+02 -0.37135928506E+01  0.71418262235E+02  0.81702821515E+02  0.00000000000E+00 0. -1.
        -12    1    3    3    0    0 -0.33325713273E+02 -0.30593615650E+02  0.14985867952E+03  0.15653816248E+03  0.00000000000E+00 0.  1.
        -11    1    4    4    0    0  0.24924837822E+02 -0.14457612782E+02 -0.34452331808E+00  0.28816467586E+02  0.00000000000E+00 0. -1.
         11    1    4    4    0    0  0.21302628300E+02  0.79494024633E+02  0.92244928531E+02  0.12362131193E+03  0.00000000000E+00 0.  1.
         -1    1    1    2    0  502 -0.52411145288E+02 -0.30729203349E+02  0.30844605870E+02  0.68136640658E+02  0.00000000000E+00 0.  1.
<scales pt_clust_5="13000.00000" pt_clust_6="13000.00000" pt_clust_7="13000.00000" pt_clust_8="13000.00000" pt_clust_9="60.75535"></scales>
<clustering>
<clus scale="   60.755">  2  9  1 -1</clus>
<clus scale="   81.118">  5  6 -1 -1</clus>
<clus scale="   91.059">  1  5  2 -1</clus>
<clus scale="   91.787">  7  8 -1 -1</clus>
<clus scale="   60.755">  2  5  1 -1</clus>
</clustering>
</event>
<event>
 9    1  0.1487426E-004  0.1386532E+03  0.7546771E-02  0.1223658E+00
         -2   -1    0    0    0  501 -0.00000000000E+00  0.00000000000E+00  0.20633369508E+03  0.20633369508E+03  0.00000000000E+00 0.  1.
         21   -1    0    0  501  502  0.00000000000E+00 -0.00000000000E+00 -0.35387188370E+03  0.35387188370E+03  0.00000000000E+00 0.  1.
         23    2    1    2    0    0 -0.58884671814E+02 -0.40866162305E+02 -0.20685756510E+03  0.23714138529E+03  0.91151174338E+02 0.  0.
        -24    2    1    2    0    0 -0.42885510155E+02  0.10876731679E+03 -0.59091225590E+02  0.15280319559E+03  0.78660965283E+02 0.  0.
         13    1    4    4    0    0  0.76550427333E+01  0.34424360314E+02 -0.51729656751E+02  0.62606658191E+02  0.00000000000E+00 0. -1.
        -14    1    4    4    0    0 -0.50540552888E+02  0.74342956473E+02 -0.73615688388E+01  0.90196537402E+02  0.00000000000E+00 0.  1.
        -11    1    3    3    0    0 -0.24524805645E+02  0.14444902980E+02 -0.14347826785E+03  0.14627417632E+03  0.00000000000E+00 0.  1.
         11    1    3    3    0    0 -0.34359866169E+02 -0.55311065285E+02 -0.63379297256E+02  0.90867208975E+02  0.00000000000E+00 0. -1.
         -1    1    1    2    0  502  0.10177018197E+03 -0.67901154482E+02  0.11841060208E+03  0.17026099789E+03  0.00000000000E+00 0.  1.
<scales pt_clust_5="13000.00000" pt_clust_6="13000.00000" pt_clust_7="13000.00000" pt_clust_8="13000.00000" pt_clust_9="114.18048"></scales>
<clustering>
<clus scale="   78.661">  5  6 -1 -1</clus>
<clus scale="   91.151">  7  8 -1 -1</clus>
<clus scale="  115.957">  1  7  2 -1</clus>
<clus scale="  114.180">  2  9  1 -1</clus>
<clus scale="  114.180">  2  5  1 -1</clus>
</clustering>
</event>
<event>
 9    1  0.1487426E-004  0.9768221E+02  0.7546771E-02  0.1289826E+00
          1   -1    0    0  502    0 -0.00000000000E+00  0.00000000000E+00  0.31514831257E+03  0.31514831257E+03  0.00000000000E+00 0. -1.
         21   -1    0    0  501  502  0.00000000000E+00 -0.00000000000E+00 -0.10447123664E+03  0.10447123664E+03  0.00000000000E+00 0. -1.
        -24    2    1    2    0    0 -0.32284062763E+02  0.20575279449E+02  0.26239062196E+03  0.27751029523E+03  0.81838393376E+02 0.  0.
         23    2    1    2    0    0  0.10671543272E+01 -0.35260707034E+02 -0.31859832651E+02  0.10230564749E+03  0.90592164628E+02 0.  0.
         13    1    3    3    0    0 -0.46705816601E+02 -0.15405633822E+02  0.17751214977E+03  0.18419915899E+03  0.00000000000E+00 0. -1.
        -14    1    3    3    0    0  0.14421753838E+02  0.35980913271E+02  0.84878472195E+02  0.93311136237E+02  0.00000000000E+00 0.  1.
        -11    1    4    4    0    0 -0.40538018470E+02 -0.33454130181E+00 -0.26431131952E+01  0.40625471157E+02  0.00000000000E+00 0. -1.
         11    1    4    4    0    0  0.41605172797E+02 -0.34926165733E+02 -0.29216719456E+02  0.61680176329E+02  0.00000000000E+00 0.  1.
          2    1    1    2  501    0  0.31216908436E+02  0.14685427585E+02 -0.19853713381E+02  0.39803606503E+02  0.00000000000E+00 0. -1.
<scales pt_clust_5="13000.00000" pt_clust_6="13000.00000" pt_clust_7="13000.00000" pt_clust_8="13000.00000" pt_clust_9="34.49865"></scales>
<clustering>
<clus scale="   34.499">  2  9  1 -1</clus>
<clus scale="   81.838">  5  6 -1 -1</clus>
<clus scale="   89.624">  1  5  2 -1</clus>
<clus scale="   90.592">  7  8 -1 -1</clus>
<clus scale="   34.499">  2  5  1 -1</clus>
</clustering>
</event>
<event>
 9    1  0.1487426E-004  0.9431454E+02  0.7546771E-02  0.1299641E+00
         21   -1    0    0  501  502  0.00000000000E+00  0.00000000000E+00  0.22065003349E+03  0.22065003349E+03  0.00000000000E+00 0.  1.
         -4   -1    0    0    0  501 -0.00000000000E+00 -0.00000000000E+00 -0.39627305963E+03  0.39627305963E+03  0.00000000000E+00 0.  1.
        -24    2    1    2    0    0  0.12438810805E+02  0.12174555694E+02 -0.29067443138E+03  0.30185489168E+03  0.79509790309E+02 0.  0.
         23    2    1    2    0    0 -0.74183063957E+02 -0.86673034142E+01 -0.57897803187E+02  0.13139435380E+03  0.91291135763E+02 0.  0.
         13    1    3    3    0    0  0.92721926508E+01  0.27029775683E+02 -0.32671198497E+02  0.43404948350E+02  0.00000000000E+00 0. -1.
        -14    1    3    3    0    0  0.31666181537E+01 -0.14855219989E+02 -0.25800323288E+03  0.25844994333E+03  0.00000000000E+00 0.  1.
        -11    1    4    4    0    0  0.12889417367E+02 -0.17835443769E+02 -0.34238268556E+02  0.40700112631E+02  0.00000000000E+00 0.  1.
         11    1    4    4    0    0 -0.87072481323E+02  0.91681403547E+01 -0.23659534631E+02  0.90694241164E+02  0.00000000000E+00 0. -1.
         -3    1    1    2    0  502  0.61744253152E+02 -0.35072522799E+01  0.17294920842E+03  0.18367384765E+03  0.00000000000E+00 0.  1.
<scales pt_clust_5="13000.00000" pt_clust_6="13000.00000" pt_clust_7="13000.00000" pt_clust_8="13000.00000" pt_clust_9="61.84378"></scales>
<clustering>
<clus scale="   61.844">  1  9  2 -1</clus>
<clus scale="   79.510">  5  6 -1 -1</clus>
<clus scale="   82.964">  2  5  1 -1</clus>
<clus scale="   91.291">  7  8 -1 -1</clus>
<clus scale="   61.844">  1  5  2 -1</clus>
</clustering>
</event>
<event>
 9    1  0.1487426E-004  0.1065229E+03  0.7546771E-02  0.1272706E+00
         -2   -1    0    0    0  501 -0.00000000000E+00  0.00000000000E+00  0.55538486781E+02  0.55538486781E+02  0.00000000000E+00 0.  1.
         21   -1    0    0  501  502  0.00000000000E+00 -0.00000000000E+00 -0.25958142430E+03  0.25958142430E+03  0.00000000000E+00 0. -1.
         23    2    1    2    0    0 -0.32988503652E+02  0.22015691923E+02 -0.85434631536E+02  0.13212689783E+03  0.92658020707E+02 0.  0.
        -24    2    1    2    0    0  0.39690999592E+02 -0.55421733108E+02 -0.93888034862E+02  0.14089813418E+03  0.79939834723E+02 0.  0.
         13    1    4    4    0    0  0.13138245115E+02 -0.58387132491E+02 -0.97023840851E+02  0.11399691408E+03  0.00000000000E+00 0. -1.
        -14    1    4    4    0    0  0.26552754478E+02  0.29653993836E+01  0.31358059887E+01  0.26901220103E+02  0.00000000000E+00 0.  1.
        -11    1    3    3    0    0  0.30036040191E+02  0.21031605965E+02 -0.22313633619E+02  0.42923075439E+02  0.00000000000E+00 0. -1.
         11    1    3    3    0    0 -0.63024543843E+02  0.98408595772E+00 -0.63120997917E+02  0.89203822395E+02  0.00000000000E+00 0.  1.
         -1    1    1    2    0  502 -0.67024959403E+01  0.33406041185E+02 -0.24720271117E+02  0.42094879066E+02  0.00000000000E+00 0.  1.
<scales pt_clust_5="13000.00000" pt_clust_6="13000.00000" pt_clust_7="13000.00000" pt_clust_8="13000.00000" pt_clust_9="34.07181"></scales>
<clustering>
<clus scale="   34.072">  2  9  1 -1</clus>
<clus scale="   79.940">  5  6 -1 -1</clus>
<clus scale="   92.658">  7  8 -1 -1</clus>
<clus scale="   95.666">  2  5  1 -1</clus>
<clus scale="   34.072">  2  5  1 -1</clus>
</clustering>
</event>
<event>
 9    1  0.1487426E-004  0.1844142E+03  0.7546771E-02  0.1168105E+00
         21   -1    0    0  501  502  0.00000000000E+00  0.00000000000E+00  0.99493841160E+02  0.99493841160E+02  0.00000000000E+00 0. -1.
          1   -1    0    0  502    0 -0.00000000000E+00 -0.00000000000E+00 -0.61648851417E+03  0.61648851417E+03  0.00000000000E+00 0. -1.
        -24    2    1    2    0    0 -0.10131243182E+03 -0.15930706271E+02 -0.12554653464E+03  0.18059835630E+03  0.79597975439E+02 0.  0.
         23    2    1    2    0    0  0.19826953136E+03 -0.57545357164E+01 -0.36849828086E+03  0.43341525465E+03  0.11275583453E+03 0.  0.
         13    1    3    3    0    0 -0.22183205668E+02 -0.41163885586E+02 -0.44353082763E+02  0.64449639570E+02  0.00000000000E+00 0. -1.
        -14    1    3    3    0    0 -0.79129226153E+02  0.25233179315E+02 -0.81193451877E+02  0.11614871673E+03  0.00000000000E+00 0.  1.
        -11    1    4    4    0    0  0.16556893817E+02 -0.34828240399E+02 -0.10633477709E+03  0.11311154619E+03  0.00000000000E+00 0.  1.
         11    1    4    4    0    0  0.18171263754E+03  0.29073704683E+02 -0.26216350377E+03  0.32030370846E+03  0.00000000000E+00 0. -1.
          2    1    1    2  501    0 -0.96957099536E+02  0.21685241987E+02 -0.22949857507E+02  0.10196874438E+03  0.00000000000E+00 0. -1.
<scales pt_clust_5="13000.00000" pt_clust_6="13000.00000" pt_clust_7="13000.00000" pt_clust_8="13000.00000" pt_clust_9="99.35255"></scales>
<clustering>
<clus scale="   79.598">  5  6 -1 -1</clus>
<clus scale="   99.353">  1  9  2 -1</clus>
<clus scale="  112.756">  7  8 -1 -1</clus>
<clus scale="  166.224">  2  5  1 -1</clus>
<clus scale="   99.353">  1  5  2 -1</clus>
</clustering>
</event>
<event>
 9    1  0.1487426E-004  0.1009027E+03  0.7546771E-02  0.1287008E+00
          3   -1    0    0  502    0 -0.00000000000E+00  0.00000000000E+00  0.23698185896E+03  0.23698185896E+03  0.00000000000E+00 0. -1.
         21   -1    0    0  501  502  0.00000000000E+00 -0.00000000000E+00 -0.85133102099E+02  0.85133102099E+02  0.00000000000E+00 0. -1.
        -24    2    1    2    0    0 -0.28612988845E+02  0.41397231451E+02  0.16166705627E+03  0.18468874256E+03  0.73764901167E+02 0.  0.
         23    2    1    2    0    0 -0.10000182895E+02 -0.23252627706E+02 -0.68912572652E+01  0.94662083371E+02  0.90954561448E+02 0.  0.
         13    1    3    3    0    0 -0.50903817465E+02  0.13763564585E+02  0.11016567177E+03  0.12213561962E+03  0.00000000000E+00 0. -1.
        -14    1    3    3    0    0  0.22290828620E+02  0.27633666865E+02  0.51501384502E+02  0.62553122948E+02  0.00000000000E+00 0.  1.
        -13    1    4    4    0    0  0.21194951886E+02  0.27440039596E+02  0.54835439951E+00  0.34676828734E+02  0.00000000000E+00 0. -1.
         13    1    4    4    0    0 -0.31195134780E+02 -0.50692667302E+02 -0.74396116647E+01  0.59985254637E+02  0.00000000000E+00 0.  1.
          4    1    1    2  501    0  0.38613171740E+02 -0.18144603745E+02 -0.29270421484E+01  0.42764135120E+02  0.00000000000E+00 0. -1.
<scales pt_clust_5="13000.00000" pt_clust_6="13000.00000" pt_clust_7="13000.00000" pt_clust_8="13000.00000" pt_clust_9="42.66385"></scales>
<clustering>
<clus scale="   42.664">  2  9  1 -1</clus>
<clus scale="   73.765">  5  6 -1 -1</clus>
<clus scale="   85.731">  1  5  2 -1</clus>
<clus scale="   90.955">  7  8 -1 -1</clus>
<clus scale="   42.664">  2  5  1 -1</clus>
</clustering>
</event>
