<event>
10    2  0.2445576E-006  0.9804563E+02  0.7546771E-02  0.1286429E+00
          1   -1    0    0  502    0  0.00000000000E+00  0.00000000000E+00  0.75144215771E+02  0.75144215771E+02  0.00000000000E+00 0. -1.
         -1   -1    0    0    0  501 -0.00000000000E+00 -0.00000000000E+00 -0.78352910889E+03  0.78352910889E+03  0.00000000000E+00 0.  1.
         23    2    1    2    0    0  0.72311639480E+01  0.34907104348E+02 -0.51897610203E+03  0.52897492906E+03  0.95955643040E+02 0.  0.
         23    2    1    2    0    0  0.83709317699E+01  0.34155753898E+02 -0.12783638753E+03  0.16154884015E+03  0.92299500285E+02 0.  0.
        -11    1    3    3    0    0 -0.14732358311E+02  0.63957809862E+02 -0.35309082253E+03  0.35913893242E+03  0.00000000000E+00 0.  1.
         11    1    3    3    0    0  0.21963522259E+02 -0.29050705514E+02 -0.16588527950E+03  0.16983599665E+03  0.00000000000E+00 0. -1.
        -11    1    4    4    0    0 -0.46398544277E+01  0.58294343146E+02 -0.43548446898E+02  0.72912453800E+02  0.00000000000E+00 0.  1.
         11    1    4    4    0    0  0.13010786198E+02 -0.24138589249E+02 -0.84287940635E+02  0.88636386348E+02  0.00000000000E+00 0. -1.
         21    1    1    2  502  503  0.23897120770E+02 -0.72553954927E+02  0.18676634502E+02  0.78638193220E+02  0.00000000000E+00 0. -1.
         21    1    1    2  503  501 -0.39499216488E+02  0.34910966810E+01 -0.80249038056E+02  0.89511362229E+02  0.00000000000E+00 0.  1.
<scales pt_clust_5="13000.00000" pt_clust_6="13000.00000" pt_clust_7="13000.00000" pt_clust_8="13000.00000" pt_clust_9="75.73172" pt_clust_10="39.65319"></scales>
<clustering>
<clus scale="   39.653">  2 10  1 -1</clus>
<clus scale="   75.732">  1  9  2 -1</clus>
<clus scale="   92.300">  7  8 -1 -1</clus>
<clus scale="   94.470">  1  7  2 -1</clus>
<clus scale="   95.956">  5  6 -1 -1</clus>
<clus scale="   75.732">  1  5  2 -1</clus>
</clustering>
</event>
<event>
10    2  0.2445576E-006  0.1448941E+03  0.7546771E-02  0.1206998E+00
         -3   -1    0    0    0  501 -0.00000000000E+00  0.00000000000E+00  0.24284657715E+03  0.24284657715E+03  0.00000000000E+00 0.  1.
          3   -1    0    0  502    0  0.00000000000E+00 -0.00000000000E+00 -0.27016026703E+03  0.27016026703E+03  0.00000000000E+00 0. -1.
         23    2    1    2    0    0 -0.19741649634E+02 -0.15925390767E+03  0.86547440162E+02  0.20369559418E+03  0.90828937289E+02 0.  0.
         23    2    1    2    0    0 -0.21267186636E+02  0.97603816737E+02 -0.10737308900E+03  0.17278312394E+03  0.91357700330E+02 0.  0.
        -13    1    3    3    0    0  0.12008787919E+02 -0.37630162254E+02  0.65148044465E+02  0.76187320442E+02  0.00000000000E+00 0.  1.
         13    1    3    3    0    0 -0.31750437553E+02 -0.12162374542E+03  0.21399395697E+02  0.12750827374E+03  0.00000000000E+00 0. -1.
        -13    1    4    4    0    0  0.44644311497E+01  0.10761106059E+03 -0.83412356530E+02  0.13622662269E+03  0.00000000000E+00 0. -1.
         13    1    4    4    0    0 -0.25731617785E+02 -0.10007243857E+02 -0.23960732467E+02  0.36556501252E+02  0.00000000000E+00 0.  1.
         21    1    1    2  502  503  0.31243978203E+02  0.46552074550E+01 -0.53415460331E+02  0.62056978115E+02  0.00000000000E+00 0. -1.
         21    1    1    2  503  501  0.97648580669E+01  0.56994883482E+02  0.46927419289E+02  0.74471147952E+02  0.00000000000E+00 0.  1.
<scales pt_clust_5="13000.00000" pt_clust_6="13000.00000" pt_clust_7="13000.00000" pt_clust_8="13000.00000" pt_clust_9="31.58888" pt_clust_10="58.49723"></scales>
<clustering>
<clus scale="   31.589">  2  9  1 -1</clus>
<clus scale="   58.497">  1 10  2 -1</clus>
<clus scale="   90.829">  5  6 -1 -1</clus>
<clus scale="   91.358">  7  8 -1 -1</clus>
<clus scale="  144.561">  1  5  2 -1</clus>
<clus scale="   31.589">  2  5  1 -1</clus>
</clustering>
</event>
<event>
10    2  0.2445576E-006  0.1261757E+03  0.7546771E-02  0.1235415E+00
          2   -1    0    0  502    0  0.00000000000E+00  0.00000000000E+00  0.19028118808E+03  0.19028118808E+03  0.00000000000E+00 0.  1.
         -2   -1    0    0    0  501 -0.00000000000E+00 -0.00000000000E+00 -0.51360459663E+03  0.51360459663E+03  0.00000000000E+00 0. -1.
         23    2    1    2    0    0 -0.10090240810E+03  0.43719421344E+02 -0.35632419037E+03  0.38475220979E+03  0.94734632167E+02 0.  0.
         23    2    1    2    0    0  0.18836034340E+01 -0.51520103612E+02 -0.34661847769E+02  0.10713295911E+03  0.87282061151E+02 0.  0.
        -11    1    4    4    0    0  0.17843425401E+02 -0.32403590775E+02  0.23526810949E+02  0.43839381366E+02  0.00000000000E+00 0.  1.
         11    1    4    4    0    0 -0.15959821967E+02 -0.19116512836E+02 -0.58188658717E+02  0.63293577743E+02  0.00000000000E+00 0. -1.
        -13    1    3    3    0    0 -0.85597003728E+02  0.21502028098E+02 -0.34391028982E+03  0.35505418136E+03  0.00000000000E+00 0. -1.
         13    1    3    3    0    0 -0.15305404371E+02  0.22217393246E+02 -0.12413900553E+02  0.29698028429E+02  0.00000000000E+00 0.  1.
         21    1    1    2  502  503  0.76967335255E+02 -0.21504263997E+02  0.12236048677E+03  0.14614545079E+03  0.00000000000E+00 0.  1.
         21    1    1    2  503  501  0.22051469410E+02  0.29304946265E+02 -0.54697857176E+02  0.65855165009E+02  0.00000000000E+00 0.  1.
<scales pt_clust_5="13000.00000" pt_clust_6="13000.00000" pt_clust_7="13000.00000" pt_clust_8="13000.00000" pt_clust_9="80.27027" pt_clust_10="36.67488"></scales>
<clustering>
<clus scale="   36.675">  2 10  1 -1</clus>
<clus scale="   80.270">  1  9  2 -1</clus>
<clus scale="   87.282">  5  6 -1 -1</clus>
<clus scale="   94.735">  7  8 -1 -1</clus>
<clus scale="  120.681">  1  5  2 -1</clus>
<clus scale="   80.270">  1  5  2 -1</clus>
</clustering>
</event>
<event>
10    2  0.2445576E-006  0.1006889E+03  0.7546771E-02  0.1283307E+00
         -1   -1    0    0    0  501 -0.00000000000E+00  0.00000000000E+00  0.15269478727E+03  0.15269478727E+03  0.00000000000E+00 0.  1.
          1   -1    0    0  502    0  0.00000000000E+00 -0.00000000000E+00 -0.59372441820E+03  0.59372441820E+03  0.00000000000E+00 0. -1.
         23    2    1    2    0    0  0.36766487328E+02  0.71908102151E+02  0.23887748587E+02  0.12949706291E+03  0.98368262279E+02 0.  0.
         23    2    1    2    0    0  0.38860237200E+02  0.22080908219E+02  0.11068447410E+02  0.10108570065E+03  0.89989576093E+02 0.  0.
        -11    1    3    3    0    0 -0.32097581212E+02  0.15096463139E+02 -0.46473430794E+01  0.35773673513E+02  0.00000000000E+00 0. -1.
         11    1    3    3    0    0  0.68864068540E+02  0.56811639012E+02  0.28535091667E+02  0.93723389394E+02  0.00000000000E+00 0.  1.
        -13    1    4    4    0    0 -0.13900634423E+02  0.20941578671E+02  0.35040356967E+02  0.43123125710E+02  0.00000000000E+00 0. -1.
         13    1    4    4    0    0  0.52760871622E+02  0.11393295476E+01 -0.23971909557E+02  0.57962574943E+02  0.00000000000E+00 0.  1.
         21    1    1    2  502  503 -0.51012550619E+02 -0.60783311589E+02 -0.46679689404E+03  0.47349364470E+03  0.00000000000E+00 0. -1.
         21    1    1    2  503  501 -0.24614173909E+02 -0.33205698781E+02 -0.91889328912E+01  0.42342797220E+02  0.00000000000E+00 0. -1.
<scales pt_clust_5="13000.00000" pt_clust_6="13000.00000" pt_clust_7="13000.00000" pt_clust_8="13000.00000" pt_clust_9="80.36790" pt_clust_10="41.33371"></scales>
<clustering>
<clus scale="   41.334">  1 10  2 -1</clus>
<clus scale="   80.368">  2  9  1 -1</clus>
<clus scale="   89.990">  7  8 -1 -1</clus>
<clus scale="   92.521">  2  7  1 -1</clus>
<clus scale="   98.368">  5  6 -1 -1</clus>
<clus scale="   80.368">  2  5  1 -1</clus>
</clustering>
</event>
<event>
10    2  0.2445576E-006  0.1418502E+03  0.7546771E-02  0.1211176E+00
          1   -1    0    0  502    0  0.00000000000E+00  0.00000000000E+00  0.32051183693E+03  0.32051183693E+03  0.00000000000E+00 0. -1.
         -1   -1    0    0    0  501 -0.00000000000E+00 -0.00000000000E+00 -0.12785570571E+03  0.12785570571E+03  0.00000000000E+00 0.  1.
         23    2    1    2    0    0 -0.99301811185E+02 -0.61224720735E+02  0.10061948327E+03  0.18068471083E+03  0.94410635941E+02 0.  0.
         23    2    1    2    0    0  0.61723621833E+02  0.77699337768E+02  0.92518299210E+02  0.16447250415E+03  0.92976213896E+02 0.  0.
        -11    1    3    3    0    0 -0.27040675835E+02 -0.39163472058E+02 -0.81142530777E+01  0.48278533493E+02  0.00000000000E+00 0.  1.
         11    1    3    3    0    0 -0.72261135350E+02 -0.22061248677E+02  0.10873373635E+03  0.13240617733E+03  0.00000000000E+00 0. -1.
        -13    1    4    4    0    0 -0.66788977625E+01  0.64808076736E+02  0.55767886302E+02  0.85759848578E+02  0.00000000000E+00 0.  1.
         13    1    4    4    0    0  0.68402519596E+02  0.12891261032E+02  0.36750412908E+02  0.78712655571E+02  0.00000000000E+00 0. -1.
         21    1    1    2  502  503  0.41233440924E+02  0.18434860496E+02  0.32026254966E+02  0.55368960068E+02  0.00000000000E+00 0. -1.
         21    1    1    2  503  501 -0.36552515726E+01 -0.34909477530E+02 -0.32507906237E+02  0.47841367595E+02  0.00000000000E+00 0.  1.
<scales pt_clust_5="13000.00000" pt_clust_6="13000.00000" pt_clust_7="13000.00000" pt_clust_8="13000.00000" pt_clust_9="43.01648" pt_clust_10="35.10032"></scales>
<clustering>
<clus scale="   35.100">  2 10  1 -1</clus>
<clus scale="   43.016">  2  9  1 -1</clus>
<clus scale="   92.976">  7  8 -1 -1</clus>
<clus scale="   94.411">  5  6 -1 -1</clus>
<clus scale="  140.900">  1  7  2 -1</clus>
<clus scale="  140.900">  1  5  2 -1</clus>
</clustering>
</event>
<event>
10    2  0.2445576E-006  0.1281822E+03  0.7546771E-02  0.1230490E+00
         -2   -1    0    0    0  501 -0.00000000000E+00  0.00000000000E+00  0.37085919152E+02  0.37085919152E+02  0.00000000000E+00 0.  1.
          2   -1    0    0  502    0  0.00000000000E+00 -0.00000000000E+00 -0.88424857711E+03  0.88424857711E+03  0.00000000000E+00 0. -1.
         23    2    1    2    0    0  0.42773533160E+02  0.62352251147E+02 -0.23288618684E+03  0.26120095735E+03  0.90953756040E+02 0.  0.
         23    2    1    2    0    0 -0.27018596731E+02 -0.10664763972E+03 -0.38849130150E+03  0.41363241172E+03  0.89791742727E+02 0.  0.
        -11    1    4    4    0    0 -0.49402225166E+02 -0.10843522309E+03 -0.33743581572E+03  0.35785710443E+03  0.00000000000E+00 0.  1.
         11    1    4    4    0    0  0.22383628435E+02  0.17875833663E+01 -0.51055485774E+02  0.55775307295E+02  0.00000000000E+00 0. -1.
        -13    1    3    3    0    0  0.43982828401E+02  0.35899186906E+00 -0.43253516581E+02  0.61688611315E+02  0.00000000000E+00 0.  1.
         13    1    3    3    0    0 -0.12092952411E+01  0.61993259278E+02 -0.18963267026E+03  0.19951234604E+03  0.00000000000E+00 0. -1.
         21    1    1    2  502  503  0.19961104817E+02  0.15098591836E+02 -0.17920213441E+03  0.18094147716E+03  0.00000000000E+00 0.  1.
         21    1    1    2  503  501 -0.35716041246E+02  0.29196796739E+02 -0.46583035217E+02  0.65559650030E+02  0.00000000000E+00 0. -1.
<scales pt_clust_5="13000.00000" pt_clust_6="13000.00000" pt_clust_7="13000.00000" pt_clust_8="13000.00000" pt_clust_9="25.02825" pt_clust_10="45.70259"></scales>
<clustering>
<clus scale="   25.028">  2  9  1 -1</clus>
<clus scale="   45.703">  1 10  2 -1</clus>
<clus scale="   89.792">  5  6 -1 -1</clus>
<clus scale="   90.954">  7  8 -1 -1</clus>
<clus scale="  127.360">  2  5  1 -1</clus>
<clus scale="   25.028">  2  5  1 -1</clus>
</clustering>
</event>
<event>
10    2  0.2445576E-006  0.9177326E+02  0.7546771E-02  0.1298680E+00
          3   -1    0    0  502    0  0.00000000000E+00  0.00000000000E+00  0.20292466407E+03  0.20292466407E+03  0.00000000000E+00 0. -1.
         -3   -1    0    0    0  501 -0.00000000000E+00 -0.00000000000E+00 -0.11468472128E+03  0.11468472128E+03  0.00000000000E+00 0.  1.
         23    2    1    2    0    0 -0.54565452632E+01  0.10500518889E+02 -0.19362397134E+02  0.93185216720E+02  0.90380016647E+02 0.  0.
         23    2    1    2    0    0 -0.35361966678E+02  0.21992249945E+02  0.11740333419E+03  0.15397092628E+03  0.90495168463E+02 0.  0.
        -13    1    4    4    0    0 -0.18654859431E+02 -0.13012059450E+02 -0.68907485679E+01  0.23765518874E+02  0.00000000000E+00 0.  1.
         13    1    4    4    0    0 -0.16707107247E+02  0.35004309395E+02  0.12429408276E+03  0.13020540741E+03  0.00000000000E+00 0. -1.
        -13    1    3    3    0    0  0.12262977431E+02 -0.35368062331E+02  0.59121650954E+01  0.37897679937E+02  0.00000000000E+00 0.  1.
         13    1    3    3    0    0 -0.17719522694E+02  0.45868581220E+02 -0.25274562230E+02  0.55287536783E+02  0.00000000000E+00 0. -1.
         21    1    1    2  502  503  0.18046261467E+02 -0.20866488915E+02  0.17798153846E+02  0.32830659343E+02  0.00000000000E+00 0. -1.
         21    1    1    2  503  501  0.22772250473E+02 -0.11626279919E+02 -0.27599148111E+02  0.37622583016E+02  0.00000000000E+00 0.  1.
<scales pt_clust_5="13000.00000" pt_clust_6="13000.00000" pt_clust_7="13000.00000" pt_clust_8="13000.00000" pt_clust_9="29.77019" pt_clust_10="25.56845"></scales>
<clustering>
<clus scale="   25.568">  2 10  1 -1</clus>
<clus scale="   29.770">  1  9  2 -1</clus>
<clus scale="   90.380">  7  8 -1 -1</clus>
<clus scale="   90.495">  5  6 -1 -1</clus>
<clus scale="   91.660">  2  7  1 -1</clus>
<clus scale="   29.770">  1  5  2 -1</clus>
</clustering>
</event>
<event>
10    2  0.2445576E-006  0.1465976E+03  0.7546771E-02  0.1224191E+00
         -3   -1    0    0    0  501 -0.00000000000E+00  0.00000000000E+00  0.57470207018E+03  0.57470207018E+03  0.00000000000E+00 0.  1.
          3   -1    0    0  502    0  0.00000000000E+00 -0.00000000000E+00 -0.48503127259E+03  0.48503127259E+03  0.00000000000E+00 0. -1.
         23    2    1    2    0    0 -0.30592002630E+02  0.12616351201E+03  0.47426003021E+03  0.50025693054E+03  0.92094070948E+02 0.  0.
         23    2    1    2    0    0 -0.18762031669E+02 -0.17423503284E+02 -0.34624462480E+03  0.35959856621E+03  0.93649326313E+02 0.  0.
        -11    1    4    4    0    0 -0.13728452552E+01 -0.55346874681E+02 -0.19617032586E+03  0.20383316215E+03  0.00000000000E+00 0. -1.
         11    1    4    4    0    0 -0.17389186414E+02  0.37923371396E+02 -0.15007429894E+03  0.15576540407E+03  0.00000000000E+00 0.  1.
        -13    1    3    3    0    0 -0.20131721879E+02  0.18904399878E+02  0.21925291710E+02  0.35261607693E+02  0.00000000000E+00 0. -1.
         13    1    3    3    0    0 -0.10460280752E+02  0.10725911214E+03  0.45233473850E+03  0.46499532285E+03  0.00000000000E+00 0.  1.
         21    1    1    2  502  503  0.13928215685E+02 -0.98352863340E+02 -0.91570949918E+02  0.13510188669E+03  0.00000000000E+00 0. -1.
         21    1    1    2  503  501  0.35425818615E+02 -0.10387145389E+02  0.53226342091E+02  0.64775959323E+02  0.00000000000E+00 0.  1.
<scales pt_clust_5="13000.00000" pt_clust_6="13000.00000" pt_clust_7="13000.00000" pt_clust_8="13000.00000" pt_clust_9="114.05930" pt_clust_10="36.91722"></scales>
<clustering>
<clus scale="   36.917">  1 10  2 -1</clus>
<clus scale="   92.094">  7  8 -1 -1</clus>
<clus scale="   93.649">  5  6 -1 -1</clus>
<clus scale="   97.023">  2  5  1 -1</clus>
<clus scale="  114.059">  2  9  1 -1</clus>
<clus scale="   97.023">  2  5  1 -1</clus>
</clustering>
</event>
<event>
10    2  0.2445576E-006  0.9874798E+02  0.7546771E-02  0.1286857E+00
         -2   -1    0    0    0  501 -0.00000000000E+00  0.00000000000E+00  0.33150921683E+03  0.33150921683E+03  0.00000000000E+00 0.  1.
          2   -1    0    0  502    0  0.00000000000E+00 -0.00000000000E+00 -0.41775577494E+03  0.41775577494E+03  0.00000000000E+00 0. -1.
         23    2    1    2    0    0 -0.40902268929E+02 -0.20488347622E+02  0.82268136382E+02  0.12781872896E+03  0.86468567803E+02 0.  0.
         23    2    1    2    0    0 -0.13003435988E+02  0.38857238877E+02 -0.27897892394E+03  0.29719092134E+03  0.93884127330E+02 0.  0.
        -11    1    3    3    0    0 -0.39062644054E+02  0.26520520233E+02  0.24107723912E+02  0.53013304992E+02  0.00000000000E+00 0. -1.
         11    1    3    3    0    0 -0.18396248743E+01 -0.47008867855E+02  0.58160412470E+02  0.74805423971E+02  0.00000000000E+00 0.  1.
        -13    1    4    4    0    0 -0.33413582380E+02 -0.55934661081E+01 -0.36386019752E+02  0.49716162201E+02  0.00000000000E+00 0.  1.
         13    1    4    4    0    0  0.20410146392E+02  0.44450704986E+02 -0.24259290418E+03  0.24747475914E+03  0.00000000000E+00 0. -1.
         21    1    1    2  502  503  0.17997242810E+02 -0.88579842833E+01 -0.10434619545E+03  0.10625673220E+03  0.00000000000E+00 0. -1.
         21    1    1    2  503  501  0.35908462107E+02 -0.95109069716E+01  0.21481042489E+03  0.21799860927E+03  0.00000000000E+00 0.  1.
<scales pt_clust_5="13000.00000" pt_clust_6="13000.00000" pt_clust_7="13000.00000" pt_clust_8="13000.00000" pt_clust_9="20.05903" pt_clust_10="37.24700"></scales>
<clustering>
<clus scale="   20.059">  2  9  1 -1</clus>
<clus scale="   37.247">  1 10  2 -1</clus>
<clus scale="   86.469">  5  6 -1 -1</clus>
<clus scale="   91.726">  1  5  2 -1</clus>
<clus scale="   93.884">  7  8 -1 -1</clus>
<clus scale="   20.059">  2  5  1 -1</clus>
</clustering>
</event>
<event>
10    2  0.2445576E-006  0.9927143E+02  0.7546771E-02  0.1286442E+00
         -1   -1    0    0    0  501 -0.00000000000E+00  0.00000000000E+00  0.10953371310E+03  0.10953371310E+03  0.00000000000E+00 0.  1.
          1   -1    0    0  502    0  0.00000000000E+00 -0.00000000000E+00 -0.25394101988E+03  0.25394101988E+03  0.00000000000E+00 0. -1.
         23    2    1    2    0    0 -0.40116548318E-02 -0.33612047601E+02 -0.29606027713E+02  0.10775940943E+03  0.98009202031E+02 0.  0.
         23    2    1    2    0    0 -0.18432262271E+02  0.66739012111E+01 -0.69523922852E+02  0.11510214119E+03  0.89613825981E+02 0.  0.
        -11    1    4    4    0    0  0.26670172633E+02  0.27909914868E+02 -0.15521261953E+02  0.41607343449E+02  0.00000000000E+00 0. -1.
         11    1    4    4    0    0 -0.45102434904E+02 -0.21236013657E+02 -0.54002660898E+02  0.73494797737E+02  0.00000000000E+00 0.  1.
        -13    1    3    3    0    0  0.32264834944E+02 -0.27432575794E+02 -0.52693853630E+02  0.67603313522E+02  0.00000000000E+00 0. -1.
         13    1    3    3    0    0 -0.32268846599E+02 -0.61794718072E+01  0.23087825917E+02  0.40156095904E+02  0.00000000000E+00 0.  1.
         21    1    1    2  502  503  0.29644284524E+02 -0.91703425204E+01 -0.82141870619E+02  0.87807549195E+02  0.00000000000E+00 0.  1.
         21    1    1    2  503  501 -0.11208010598E+02  0.36108488911E+02  0.36864514405E+02  0.52805633178E+02  0.00000000000E+00 0. -1.
<scales pt_clust_5="13000.00000" pt_clust_6="13000.00000" pt_clust_7="13000.00000" pt_clust_8="13000.00000" pt_clust_9="31.03029" pt_clust_10="36.99998"></scales>
<clustering>
<clus scale="   31.030">  2  9  1 -1</clus>
<clus scale="   37.000">  1 10  2 -1</clus>
<clus scale="   89.614">  5  6 -1 -1</clus>
<clus scale="   90.993">  2  5  1 -1</clus>
<clus scale="   98.009">  7  8 -1 -1</clus>
<clus scale="   31.030">  2  5  1 -1</clus>
</clustering>
</event>
<event>
10    2  0.2445576E-006  0.1132234E+03  0.7546771E-02  0.1255290E+00
          1   -1    0    0  502    0  0.00000000000E+00  0.00000000000E+00  0.88048892063E+03  0.88048892063E+03  0.00000000000E+00 0. -1.
         -1   -1    0    0    0  501 -0.00000000000E+00 -0.00000000000E+00 -0.11262967347E+03  0.11262967347E+03  0.00000000000E+00 0.  1.
         23    2    1    2    0    0  0.18216060628E+01 -0.40098679044E+02  0.36413845889E+01  0.99254365923E+02  0.90702520160E+02 0.  0.
         23    2    1    2    0    0 -0.11785584442E+03  0.75023911425E+02  0.18735829343E+03  0.25011932941E+03  0.89095238232E+02 0.  0.
        -11    1    3    3    0    0  0.31236467773E+02 -0.56068373949E+02  0.10644825500E+02  0.65059140681E+02  0.00000000000E+00 0.  1.
         11    1    3    3    0    0 -0.29414861710E+02  0.15969694905E+02 -0.70034409112E+01  0.34195225242E+02  0.00000000000E+00 0. -1.
        -13    1    4    4    0    0 -0.69045543706E+02 -0.19878829942E+00  0.46866125173E+02  0.83449148055E+02  0.00000000000E+00 0.  1.
         13    1    4    4    0    0 -0.48810300717E+02  0.75222699724E+02  0.14049216826E+03  0.16667018135E+03  0.00000000000E+00 0. -1.
         21    1    1    2  502  503  0.96364158697E+02 -0.12041440220E+02  0.59868059517E+03  0.60650597887E+03  0.00000000000E+00 0. -1.
         21    1    1    2  503  501  0.19670079663E+02 -0.22883792161E+02 -0.21821026036E+02  0.37238919894E+02  0.00000000000E+00 0. -1.
<scales pt_clust_5="13000.00000" pt_clust_6="13000.00000" pt_clust_7="13000.00000" pt_clust_8="13000.00000" pt_clust_9="98.17082" pt_clust_10="30.17582"></scales>
<clustering>
<clus scale="   30.176">  2 10  1 -1</clus>
<clus scale="   89.095">  7  8 -1 -1</clus>
<clus scale="   90.703">  5  6 -1 -1</clus>
<clus scale="   98.171">  1  9  2 -1</clus>
<clus scale="  111.940">  1  7  2 -1</clus>
<clus scale="   98.171">  1  5  2 -1</clus>
</clustering>
</event>
<event>
10    2  0.2445576E-006  0.1589927E+03  0.7546771E-02  0.1189990E+00
         -1   -1    0    0    0  501 -0.00000000000E+00  0.00000000000E+00  0.27891139789E+03  0.27891139789E+03  0.00000000000E+00 0.  1.
          1   -1    0    0  502    0  0.00000000000E+00 -0.00000000000E+00 -0.31882779882E+03  0.31882779882E+03  0.00000000000E+00 0. -1.
         23    2    1    2    0    0 -0.10603213366E+03 -0.55608264984E+02 -0.29997803624E+01  0.15035964077E+03  0.90906162541E+02 0.  0.
         23    2    1    2    0    0  0.99659489506E+02  0.83894395355E+02 -0.10724702570E+03  0.19210540561E+03  0.91827441012E+02 0.  0.
        -13    1    3    3    0    0 -0.10377247362E+02  0.22806410974E+02  0.76919397052E+01  0.26210409778E+02  0.00000000000E+00 0. -1.
         13    1    3    3    0    0 -0.95654886297E+02 -0.78414675958E+02 -0.10691720068E+02  0.12414923099E+03  0.00000000000E+00 0.  1.
        -13    1    4    4    0    0 -0.28808680633E+01  0.37166786520E+02 -0.58410496870E+02  0.69292536146E+02  0.00000000000E+00 0.  1.
         13    1    4    4    0    0  0.10254035757E+03  0.46727608835E+02 -0.48836528831E+02  0.12281286946E+03  0.00000000000E+00 0. -1.
         21    1    1    2  502  503  0.36999018363E+02 -0.20430859910E+02 -0.85975443644E+02  0.95802527661E+02  0.00000000000E+00 0.  1.
         21    1    1    2  503  501 -0.30626374210E+02 -0.78552704613E+01  0.15630584878E+03  0.15947162266E+03  0.00000000000E+00 0.  1.
<scales pt_clust_5="13000.00000" pt_clust_6="13000.00000" pt_clust_7="13000.00000" pt_clust_8="13000.00000" pt_clust_9="41.34024" pt_clust_10="31.61772"></scales>
<clustering>
<clus scale="   31.618">  1 10  2 -1</clus>
<clus scale="   41.340">  2  9  1 -1</clus>
<clus scale="   90.906">  5  6 -1 -1</clus>
<clus scale="   91.827">  7  8 -1 -1</clus>
<clus scale="  158.462">  1  5  2 -1</clus>
<clus scale="   41.340">  2  5  1 -1</clus>
</clustering>
</event>
<event>
10    2  0.2445576E-006  0.1703674E+03  0.7546771E-02  0.1196642E+00
          2   -1    0    0  502    0  0.00000000000E+00  0.00000000000E+00  0.13457368409E+04  0.13457368409E+04  0.00000000000E+00 0. -1.
         -2   -1    0    0    0  501 -0.00000000000E+00 -0.00000000000E+00 -0.64927639440E+03  0.64927639440E+03  0.00000000000E+00 0.  1.
         23    2    1    2    0    0  0.16976966703E+03 -0.12255566839E+02  0.90308559027E+03  0.92350881555E+03  0.91285323547E+02 0.  0.
         23    2    1    2    0    0 -0.15898479616E+02  0.66508157582E+02  0.16845812443E+03  0.20337277832E+03  0.91138633943E+02 0.  0.
        -11    1    3    3    0    0  0.12427492587E+02  0.27024650953E+02  0.10606845171E+03  0.11016029583E+03  0.00000000000E+00 0.  1.
         11    1    3    3    0    0  0.15734217444E+03 -0.39280217793E+02  0.79701713856E+03  0.81334851972E+03  0.00000000000E+00 0. -1.
        -11    1    4    4    0    0 -0.47410970367E+02  0.29650343235E+02  0.48638935530E+02  0.74112677826E+02  0.00000000000E+00 0.  1.
         11    1    4    4    0    0  0.31512490751E+02  0.36857814347E+02  0.11981918890E+03  0.12926010049E+03  0.00000000000E+00 0. -1.
         21    1    1    2  502  503 -0.12100465111E+02 -0.31098812159E+02  0.23704081792E+03  0.23937816679E+03  0.00000000000E+00 0. -1.
         21    1    1    2  503  501 -0.14177072230E+03 -0.23153778584E+02 -0.61212408608E+03  0.62875347468E+03  0.00000000000E+00 0.  1.
<scales pt_clust_5="13000.00000" pt_clust_6="13000.00000" pt_clust_7="13000.00000" pt_clust_8="13000.00000" pt_clust_9="33.37001" pt_clust_10="143.84725"></scales>
<clustering>
<clus scale="   33.370">  1  9  2 -1</clus>
<clus scale="   91.139">  7  8 -1 -1</clus>
<clus scale="   91.285">  5  6 -1 -1</clus>
<clus scale="  111.283">  1  7  2 -1</clus>
<clus scale="  143.847">  2 10  1 -1</clus>
<clus scale="   33.370">  1  5  2 -1</clus>
</clustering>
</event>
<event>
10    2  0.2445576E-006  0.1122108E+03  0.7546771E-02  0.1262503E+00
          2   -1    0    0  502    0  0.00000000000E+00  0.00000000000E+00  0.62842493240E+03  0.62842493240E+03  0.00000000000E+00 0. -1.
         -2   -1    0    0    0  501 -0.00000000000E+00 -0.00000000000E+00 -0.72219823961E+02  0.72219823961E+02  0.00000000000E+00 0.  1.
         23    2    1    2    0    0  0.38033631748E+02  0.99213191311E+01  0.13031150247E+03  0.16329140016E+03  0.90210886122E+02 0.  0.
         23    2    1    2    0    0 -0.44873295718E+02  0.68152330045E+02  0.34543060499E+03  0.36980467063E+03  0.10380192098E+03 0.  0.
        -11    1    4    4    0    0  0.18145158968E+02  0.56457029446E+02  0.10111453951E+03  0.11722112893E+03  0.00000000000E+00 0. -1.
         11    1    4    4    0    0 -0.63018454685E+02  0.11695300599E+02  0.24431606548E+03  0.25258354170E+03  0.00000000000E+00 0.  1.
        -13    1    3    3    0    0  0.65749891696E+02 -0.48417300250E+01  0.76515448736E+02  0.10100051734E+03  0.00000000000E+00 0. -1.
         13    1    3    3    0    0 -0.27716259948E+02  0.14763049156E+02  0.53796053731E+02  0.62290882824E+02  0.00000000000E+00 0.  1.
         21    1    1    2  502  503  0.24147523263E+02 -0.40399884712E+02  0.10797779156E+03  0.11778988511E+03  0.00000000000E+00 0. -1.
         21    1    1    2  503  501 -0.17307859293E+02 -0.37673764465E+02 -0.27514790575E+02  0.49758800454E+02  0.00000000000E+00 0.  1.
<scales pt_clust_5="13000.00000" pt_clust_6="13000.00000" pt_clust_7="13000.00000" pt_clust_8="13000.00000" pt_clust_9="50.73971" pt_clust_10="41.45931"></scales>
<clustering>
<clus scale="   41.459">  2 10  1 -1</clus>
<clus scale="   50.740">  1  9  2 -1</clus>
<clus scale="   90.211">  7  8 -1 -1</clus>
<clus scale="   99.772">  2  7  1 -1</clus>
<clus scale="  103.802">  5  6 -1 -1</clus>
<clus scale="   50.740">  1  5  2 -1</clus>
</clustering>
</event>
<event>
10    2  0.2445576E-006  0.1038461E+03  0.7546771E-02  0.1272417E+00
         -2   -1    0    0    0  501 -0.00000000000E+00  0.00000000000E+00  0.13979693756E+03  0.13979693756E+03  0.00000000000E+00 0.  1.
          2   -1    0    0  502    0  0.00000000000E+00 -0.00000000000E+00 -0.20339839199E+03  0.20339839199E+03  0.00000000000E+00 0. -1.
         23    2    1    2    0    0 -0.50608411038E+01  0.74813102354E+02  0.32832333923E+02  0.12088291192E+03  0.88950007574E+02 0.  0.
         23    2    1    2    0    0 -0.24146957094E+02 -0.85018513972E+01 -0.54743981246E+02  0.10755240950E+03  0.88967748605E+02 0.  0.
        -11    1    3    3    0    0 -0.32396943217E+02  0.62446687157E+02  0.50006358886E+02  0.86312146281E+02  0.00000000000E+00 0.  1.
         11    1    3    3    0    0  0.27336102113E+02  0.12366415197E+02 -0.17174024963E+02  0.34570765641E+02  0.00000000000E+00 0. -1.
        -11    1    4    4    0    0  0.29274951515E+02 -0.14084966023E+02 -0.24367878535E+01  0.32578320846E+02  0.00000000000E+00 0. -1.
         11    1    4    4    0    0 -0.53421908610E+02  0.55831146262E+01 -0.52307193392E+02  0.74974088651E+02  0.00000000000E+00 0.  1.
         21    1    1    2  502  503  0.74881894502E+01 -0.78676431185E+02 -0.42538403939E+02  0.89752825108E+02  0.00000000000E+00 0. -1.
         21    1    1    2  503  501  0.21719608748E+02  0.12365180228E+02  0.84859683716E+00  0.25007183024E+02  0.00000000000E+00 0. -1.
<scales pt_clust_5="13000.00000" pt_clust_6="13000.00000" pt_clust_7="13000.00000" pt_clust_8="13000.00000" pt_clust_9="77.24093" pt_clust_10="24.99278"></scales>
<clustering>
<clus scale="   24.993">  1 10  2 -1</clus>
<clus scale="   77.241">  2  9  1 -1</clus>
<clus scale="   88.950">  5  6 -1 -1</clus>
<clus scale="   88.968">  7  8 -1 -1</clus>
<clus scale="  103.831">  1  5  2 -1</clus>
<clus scale="   77.241">  2  5  1 -1</clus>
</clustering>
</event>
<event>
10    2  0.2445576E-006  0.1167897E+03  0.7546771E-02  0.1250285E+00
         -1   -1    0    0    0  501 -0.00000000000E+00  0.00000000000E+00  0.71256853736E+02  0.71256853736E+02  0.00000000000E+00 0.  1.
          1   -1    0    0  502    0  0.00000000000E+00 -0.00000000000E+00 -0.82480340667E+03  0.82480340667E+03  0.00000000000E+00 0. -1.
         23    2    1    2    0    0  0.42020850022E+02  0.66550016482E+02 -0.59912694994E+02  0.13145259960E+03  0.86577123936E+02 0.  0.
         23    2    1    2    0    0 -0.34720208467E+02 -0.66413307201E+02 -0.51582585973E+03  0.52927631279E+03  0.91874248111E+02 0.  0.
        -13    1    3    3    0    0  0.94684879399E+01  0.39167023429E+02 -0.75961701790E+02  0.85987720792E+02  0.00000000000E+00 0. -1.
         13    1    3    3    0    0  0.32552362082E+02  0.27382993053E+02  0.16049006795E+02  0.45464878805E+02  0.00000000000E+00 0.  1.
        -13    1    4    4    0    0 -0.18392654641E+02  0.16244177571E+02 -0.47839577019E+02  0.53766050433E+02  0.00000000000E+00 0.  1.
         13    1    4    4    0    0 -0.16327553825E+02 -0.82657484772E+02 -0.46798628271E+03  0.47551026235E+03  0.00000000000E+00 0. -1.
         21    1    1    2  502  503 -0.18388680637E+02  0.19223980193E+02 -0.20123166555E+03  0.20298248252E+03  0.00000000000E+00 0.  1.
         21    1    1    2  503  501  0.11088039082E+02 -0.19360689474E+02  0.23423667339E+02  0.32348865500E+02  0.00000000000E+00 0. -1.
<scales pt_clust_5="13000.00000" pt_clust_6="13000.00000" pt_clust_7="13000.00000" pt_clust_8="13000.00000" pt_clust_9="26.16586" pt_clust_10="22.31100"></scales>
<clustering>
<clus scale="   22.311">  1 10  2 -1</clus>
<clus scale="   26.166">  2  9  1 -1</clus>
<clus scale="   86.577">  5  6 -1 -1</clus>
<clus scale="   91.874">  7  8 -1 -1</clus>
<clus scale="  112.670">  1  5  2 -1</clus>
<clus scale="   26.166">  2  5  1 -1</clus>
</clustering>
</event>
<event>
10    2  0.2445576E-006  0.1230172E+03  0.7546771E-02  0.1242720E+00
         -2   -1    0    0    0  501 -0.00000000000E+00  0.00000000000E+00  0.12147086076E+03  0.12147086076E+03  0.00000000000E+00 0.  1.
          2   -1    0    0  502    0  0.00000000000E+00 -0.00000000000E+00 -0.39180100014E+03  0.39180100014E+03  0.00000000000E+00 0. -1.
         23    2    1    2    0    0 -0.24586622196E+02  0.27107031858E+02  0.70969029946E+01  0.87234876950E+02  0.78868653832E+02 0.  0.
         23    2    1    2    0    0  0.10386867663E+03 -0.43777365707E+02 -0.28603833407E+03  0.32137101678E+03  0.93574794328E+02 0.  0.
        -11    1    3    3    0    0 -0.31690691172E+02 -0.13382158198E+02  0.24870785582E+02  0.42449240753E+02  0.00000000000E+00 0.  1.
         11    1    3    3    0    0  0.71040689763E+01  0.40489190056E+02 -0.17773882587E+02  0.44785636198E+02  0.00000000000E+00 0. -1.
        -11    1    4    4    0    0  0.58279341828E+02 -0.62012017650E+02 -0.23767808884E+03  0.25245365105E+03  0.00000000000E+00 0. -1.
         11    1    4    4    0    0  0.45589334806E+02  0.18234651944E+02 -0.48360245238E+02  0.68917365729E+02  0.00000000000E+00 0.  1.
         21    1    1    2  502  503 -0.24459980637E+02 -0.57694578860E+01 -0.25916847079E+02  0.36100696110E+02  0.00000000000E+00 0.  1.
         21    1    1    2  503  501 -0.54822073801E+02  0.22439791735E+02  0.34528138777E+02  0.68565271066E+02  0.00000000000E+00 0.  1.
<scales pt_clust_5="13000.00000" pt_clust_6="13000.00000" pt_clust_7="13000.00000" pt_clust_8="13000.00000" pt_clust_9="25.13120" pt_clust_10="60.20549"></scales>
<clustering>
<clus scale="   25.131">  2  9  1 -1</clus>
<clus scale="   60.205">  1 10  2 -1</clus>
<clus scale="   78.869">  5  6 -1 -1</clus>
<clus scale="   93.575">  7  8 -1 -1</clus>
<clus scale="  112.237">  1  5  2 -1</clus>
<clus scale="   25.131">  2  5  1 -1</clus>
</clustering>
</event>
<event>
10    2  0.2445576E-006  0.1436470E+03  0.7546771E-02  0.1208762E+00
         -1   -1    0    0    0  501 -0.00000000000E+00  0.00000000000E+00  0.10011790780E+03  0.10011790780E+03  0.00000000000E+00 0.  1.
          1   -1    0    0  502    0  0.00000000000E+00 -0.00000000000E+00 -0.42129467782E+03  0.42129467782E+03  0.00000000000E+00 0. -1.
         23    2    1    2    0    0 -0.17283960563E+02 -0.69741083529E+02 -0.64435784152E+01  0.11766843591E+03  0.92961212778E+02 0.  0.
         23    2    1    2    0    0  0.49221657904E+02  0.13509773280E+03 -0.21470281249E+03  0.27420186111E+03  0.91734366163E+02 0.  0.
        -11    1    3    3    0    0  0.27303262661E+01  0.21660527806E+02  0.74654260870E+01  0.23073052096E+02  0.00000000000E+00 0. -1.
         11    1    3    3    0    0 -0.20014286829E+02 -0.91401611335E+02 -0.13909004502E+02  0.94595383810E+02  0.00000000000E+00 0.  1.
        -11    1    4    4    0    0 -0.21685949460E+02  0.53777262489E+02 -0.10729361662E+03  0.12195980704E+03  0.00000000000E+00 0. -1.
         11    1    4    4    0    0  0.70907607364E+02  0.81320470307E+02 -0.10740919586E+03  0.15224205407E+03  0.00000000000E+00 0.  1.
         21    1    1    2  502  503 -0.74952029187E+01 -0.27076349664E+02 -0.69097953692E+02  0.74591111952E+02  0.00000000000E+00 0.  1.
         21    1    1    2  503  501 -0.24442494422E+02 -0.38280299604E+02 -0.30932425432E+02  0.54951176643E+02  0.00000000000E+00 0.  1.
<scales pt_clust_5="13000.00000" pt_clust_6="13000.00000" pt_clust_7="13000.00000" pt_clust_8="13000.00000" pt_clust_9="28.09460" pt_clust_10="48.72881"></scales>
<clustering>
<clus scale="   28.095">  2  9  1 -1</clus>
<clus scale="   48.729">  1 10  2 -1</clus>
<clus scale="   91.734">  7  8 -1 -1</clus>
<clus scale="   92.961">  5  6 -1 -1</clus>
<clus scale="  142.856">  2  7  1 -1</clus>
<clus scale="   28.095">  2  5  1 -1</clus>
</clustering>
</event>
<event>
10    2  0.2445576E-006  0.3823725E+03  0.7546771E-02  0.1057321E+00
          1   -1    0    0  502    0  0.00000000000E+00  0.00000000000E+00  0.15961213700E+04  0.15961213700E+04  0.00000000000E+00 0. -1.
         -1   -1    0    0    0  501 -0.00000000000E+00 -0.00000000000E+00 -0.43083867872E+03  0.43083867872E+03  0.00000000000E+00 0.  1.
         23    2    1    2    0    0 -0.31586737515E+03 -0.16180207962E+03 -0.41973732826E+02  0.36723749205E+03  0.84554536680E+02 0.  0.
         23    2    1    2    0    0 -0.25624778471E+03  0.22121967282E+03  0.68440752643E+03  0.76900276246E+03  0.91381155797E+02 0.  0.
        -11    1    3    3    0    0 -0.26800989454E+03 -0.10135798239E+03 -0.20816530413E+02  0.28729091893E+03  0.00000000000E+00 0. -1.
         11    1    3    3    0    0 -0.47857480611E+02 -0.60444097225E+02 -0.21157202413E+02  0.79946573121E+02  0.00000000000E+00 0.  1.
        -13    1    4    4    0    0 -0.20174892786E+03  0.21601992688E+03  0.56511386717E+03  0.63774675348E+03  0.00000000000E+00 0.  1.
         13    1    4    4    0    0 -0.54498856848E+02  0.51997459333E+01  0.11929365926E+03  0.13125600899E+03  0.00000000000E+00 0. -1.
         21    1    1    2  502  503  0.47611214999E+03 -0.71218300004E+02  0.59838307248E+03  0.76799552542E+03  0.00000000000E+00 0.  1.
         21    1    1    2  503  501  0.96003009864E+02  0.11800706804E+02 -0.75534174811E+02  0.12272426878E+03  0.00000000000E+00 0.  1.
<scales pt_clust_5="13000.00000" pt_clust_6="13000.00000" pt_clust_7="13000.00000" pt_clust_8="13000.00000" pt_clust_9="371.29260" pt_clust_10="96.72556"></scales>
<clustering>
<clus scale="   84.555">  5  6 -1 -1</clus>
<clus scale="   91.381">  7  8 -1 -1</clus>
<clus scale="   96.726">  2 10  1 -1</clus>
<clus scale="  311.282">  2  5  1 -1</clus>
<clus scale="  371.293">  2  9  1 -1</clus>
<clus scale="  382.372">  1  5  2 -1</clus>
</clustering>
</event>
<event>
10    2  0.2445576E-006  0.1223588E+03  0.7546771E-02  0.1243173E+00
          1   -1    0    0  502    0  0.00000000000E+00  0.00000000000E+00  0.67057612892E+02  0.67057612892E+02  0.00000000000E+00 0. -1.
         -1   -1    0    0    0  501 -0.00000000000E+00 -0.00000000000E+00 -0.51145371260E+03  0.51145371260E+03  0.00000000000E+00 0.  1.
         23    2    1    2    0    0  0.57314213915E+02  0.43250103432E+02 -0.23611284295E+03  0.26699893439E+03  0.10190027379E+03 0.  0.
         23    2    1    2    0    0 -0.56734277927E+02 -0.52255391811E+02 -0.63662570541E+02  0.13486131530E+03  0.90472356067E+02 0.  0.
        -13    1    4    4    0    0 -0.34527896790E+02 -0.77191047851E+02 -0.37795036201E+02  0.92623421911E+02  0.00000000000E+00 0.  1.
         13    1    4    4    0    0 -0.22206381138E+02  0.24935656040E+02 -0.25867534341E+02  0.42237893393E+02  0.00000000000E+00 0. -1.
        -13    1    3    3    0    0  0.51883848266E+02 -0.22240495021E+02 -0.13593843839E+03  0.14719318042E+03  0.00000000000E+00 0.  1.
         13    1    3    3    0    0  0.54303656491E+01  0.65490598453E+02 -0.10017440456E+03  0.11980575398E+03  0.00000000000E+00 0. -1.
         21    1    1    2  502  503 -0.91793214231E+00  0.32833914489E+02 -0.29376634201E+01  0.32977847208E+02  0.00000000000E+00 0. -1.
         21    1    1    2  503  501  0.33799615451E+00 -0.23828626110E+02 -0.14168302280E+03  0.14367322859E+03  0.00000000000E+00 0.  1.
<scales pt_clust_5="13000.00000" pt_clust_6="13000.00000" pt_clust_7="13000.00000" pt_clust_8="13000.00000" pt_clust_9="31.68639" pt_clust_10="23.83102"></scales>
<clustering>
<clus scale="   23.831">  2 10  1 -1</clus>
<clus scale="   31.686">  1  9  2 -1</clus>
<clus scale="   90.472">  5  6 -1 -1</clus>
<clus scale="  101.900">  7  8 -1 -1</clus>
<clus scale="  113.019">  1  5  2 -1</clus>
<clus scale="   31.686">  1  5  2 -1</clus>
</clustering>
</event>
<event>
10    2  0.2445576E-006  0.9461716E+02  0.7546771E-02  0.1292422E+00
         -1   -1    0    0    0  501 -0.00000000000E+00  0.00000000000E+00  0.67854718454E+02  0.67854718454E+02  0.00000000000E+00 0.  1.
          1   -1    0    0  502    0  0.00000000000E+00 -0.00000000000E+00 -0.50505236173E+03  0.50505236173E+03  0.00000000000E+00 0. -1.
         23    2    1    2    0    0 -0.27103854233E+01  0.47569072074E+01 -0.33610143902E+02  0.97166081974E+02  0.91003468932E+02 0.  0.
         23    2    1    2    0    0 -0.37391381058E+01  0.54803964645E+02 -0.27777136877E+03  0.29720268824E+03  0.90305309317E+02 0.  0.
        -11    1    3    3    0    0  0.41031541156E+02  0.16209758765E+02 -0.26302194149E+02  0.51362915279E+02  0.00000000000E+00 0.  1.
         11    1    3    3    0    0 -0.43741926580E+02 -0.11452851557E+02 -0.73079497527E+01  0.45803166695E+02  0.00000000000E+00 0. -1.
        -11    1    4    4    0    0 -0.13809465548E+02  0.76271461582E+02 -0.16975163818E+03  0.18661097464E+03  0.00000000000E+00 0. -1.
         11    1    4    4    0    0  0.10070327442E+02 -0.21467496937E+02 -0.10801973059E+03  0.11059171359E+03  0.00000000000E+00 0.  1.
         21    1    1    2  502  503  0.10670562363E+02 -0.27198105854E+02 -0.13995384810E+03  0.14297089725E+03  0.00000000000E+00 0.  1.
         21    1    1    2  503  501 -0.42210388339E+01 -0.32362765998E+02  0.14137717496E+02  0.35567412724E+02  0.00000000000E+00 0. -1.
<scales pt_clust_5="13000.00000" pt_clust_6="13000.00000" pt_clust_7="13000.00000" pt_clust_8="13000.00000" pt_clust_9="29.21640" pt_clust_10="33.39358"></scales>
<clustering>
<clus scale="   29.216">  2  9  1 -1</clus>
<clus scale="   33.394">  1 10  2 -1</clus>
<clus scale="   90.305">  7  8 -1 -1</clus>
<clus scale="   91.003">  5  6 -1 -1</clus>
<clus scale="   93.946">  2  7  1 -1</clus>
<clus scale="   29.216">  2  5  1 -1</clus>
</clustering>
</event>
<event>
10    2  0.2445576E-006  0.1056495E+03  0.7546771E-02  0.1271133E+00
          2   -1    0    0  502    0  0.00000000000E+00  0.00000000000E+00  0.53593442773E+03  0.53593442773E+03  0.00000000000E+00 0. -1.
         -2   -1    0    0    0  501 -0.00000000000E+00 -0.00000000000E+00 -0.86831123144E+02  0.86831123144E+02  0.00000000000E+00 0.  1.
         23    2    1    2    0    0 -0.50310611488E+02 -0.35068959203E+02  0.74879060609E+02  0.12852506790E+03  0.84562579393E+02 0.  0.
         23    2    1    2    0    0 -0.51312930056E+02  0.85962748060E+02  0.24816244118E+03  0.28231778352E+03  0.89978457603E+02 0.  0.
        -13    1    4    4    0    0  0.23301921490E+02  0.56861397315E+01  0.32363102667E+02  0.40282529021E+02  0.00000000000E+00 0.  1.
         13    1    4    4    0    0 -0.74614851546E+02  0.80276608329E+02  0.21579933851E+03  0.24203525450E+03  0.00000000000E+00 0. -1.
        -13    1    3    3    0    0 -0.26725305929E+02 -0.62683733678E+02  0.48637860721E+02  0.83720570592E+02  0.00000000000E+00 0.  1.
         13    1    3    3    0    0 -0.23585305559E+02  0.27614774474E+02  0.26241199888E+02  0.44804497309E+02  0.00000000000E+00 0. -1.
         21    1    1    2  502  503  0.67995728085E+02 -0.35516374653E+02  0.14957731373E+03  0.16810176884E+03  0.00000000000E+00 0.  1.
         21    1    1    2  503  501  0.33627813458E+02 -0.15377414203E+02 -0.23515510929E+02  0.43820930614E+02  0.00000000000E+00 0.  1.
<scales pt_clust_5="13000.00000" pt_clust_6="13000.00000" pt_clust_7="13000.00000" pt_clust_8="13000.00000" pt_clust_9="83.14674" pt_clust_10="36.97695"></scales>
<clustering>
<clus scale="   36.977">  2 10  1 -1</clus>
<clus scale="   83.147">  1  9  2 -1</clus>
<clus scale="   84.563">  7  8 -1 -1</clus>
<clus scale="   89.978">  5  6 -1 -1</clus>
<clus scale="  101.077">  2  7  1 -1</clus>
<clus scale="   83.147">  1  5  2 -1</clus>
</clustering>
</event>
<event>
10    2  0.2445576E-006  0.1492969E+03  0.7546771E-02  0.1202857E+00
          1   -1    0    0  502    0  0.00000000000E+00  0.00000000000E+00  0.11146053386E+04  0.11146053386E+04  0.00000000000E+00 0. -1.
         -1   -1    0    0    0  501 -0.00000000000E+00 -0.00000000000E+00 -0.36139372076E+02  0.36139372076E+02  0.00000000000E+00 0.  1.
         23    2    1    2    0    0 -0.58527497097E+02  0.93043990804E+02  0.31640552709E+03  0.34858599323E+03  0.96525048354E+02 0.  0.
         23    2    1    2    0    0  0.35646328680E+02 -0.10097459262E+03  0.59063874931E+03  0.60914259682E+03  0.10360522176E+03 0.  0.
        -13    1    4    4    0    0 -0.30473181082E+02 -0.65151845521E+02  0.24079249748E+03  0.25130540102E+03  0.00000000000E+00 0.  1.
         13    1    4    4    0    0  0.66119509762E+02 -0.35822747101E+02  0.34984625182E+03  0.35783719580E+03  0.00000000000E+00 0. -1.
        -13    1    3    3    0    0 -0.27080372170E+02  0.10807564140E+03  0.23888526141E+03  0.26359032406E+03  0.00000000000E+00 0.  1.
         13    1    3    3    0    0 -0.31447124927E+02 -0.15031650592E+02  0.77520265684E+02  0.84995669169E+02  0.00000000000E+00 0. -1.
         21    1    1    2  502  503  0.53884702927E+02  0.15024453841E+02  0.12245141570E+03  0.13462408637E+03  0.00000000000E+00 0. -1.
         21    1    1    2  503  501 -0.31003534509E+02 -0.70938520234E+01  0.48970274467E+02  0.58392034303E+02  0.00000000000E+00 0.  1.
<scales pt_clust_5="13000.00000" pt_clust_6="13000.00000" pt_clust_7="13000.00000" pt_clust_8="13000.00000" pt_clust_9="49.78854" pt_clust_10="31.80475"></scales>
<clustering>
<clus scale="   31.805">  2 10  1 -1</clus>
<clus scale="   49.789">  2  9  1 -1</clus>
<clus scale="   96.525">  7  8 -1 -1</clus>
<clus scale="  103.605">  5  6 -1 -1</clus>
<clus scale="  144.474">  2  7  1 -1</clus>
<clus scale="  149.297">  1  5  2 -1</clus>
</clustering>
</event>
<event>
10    2  0.2445576E-006  0.2919599E+03  0.7546771E-02  0.1089335E+00
         -1   -1    0    0    0  501 -0.00000000000E+00  0.00000000000E+00  0.16241578433E+03  0.16241578433E+03  0.00000000000E+00 0.  1.
          1   -1    0    0  502    0  0.00000000000E+00 -0.00000000000E+00 -0.20041205538E+04  0.20041205538E+04  0.00000000000E+00 0. -1.
         23    2    1    2    0    0  0.56475567841E+02  0.21072760496E+03 -0.14346829312E+03  0.27654724724E+03  0.91102225930E+02 0.  0.
         23    2    1    2    0    0 -0.26798438553E+03 -0.14747939473E+03 -0.15866861554E+04  0.16184615728E+04  0.90989583390E+02 0.  0.
        -11    1    4    4    0    0 -0.36478772549E+02  0.85482928046E+01 -0.13129961443E+03  0.13654070055E+03  0.00000000000E+00 0.  1.
         11    1    4    4    0    0 -0.23150561298E+03 -0.15602768754E+03 -0.14553865410E+04  0.14819208723E+04  0.00000000000E+00 0. -1.
        -11    1    3    3    0    0  0.60473564386E+01  0.16366111939E+03 -0.12227862384E+03  0.20438589572E+03  0.00000000000E+00 0. -1.
         11    1    3    3    0    0  0.50428211403E+02  0.47066485572E+02 -0.21189669278E+02  0.72161351522E+02  0.00000000000E+00 0.  1.
         21    1    1    2  502  503  0.11853090649E+02 -0.22270193959E+02 -0.54217660131E+02  0.59799765610E+02  0.00000000000E+00 0. -1.
         21    1    1    2  503  501  0.19965572704E+03 -0.40978016271E+02 -0.57332660847E+02  0.21172775245E+03  0.00000000000E+00 0.  1.
<scales pt_clust_5="13000.00000" pt_clust_6="13000.00000" pt_clust_7="13000.00000" pt_clust_8="13000.00000" pt_clust_9="25.22811" pt_clust_10="204.93357"></scales>
<clustering>
<clus scale="   25.228">  2  9  1 -1</clus>
<clus scale="   90.990">  5  6 -1 -1</clus>
<clus scale="   91.102">  7  8 -1 -1</clus>
<clus scale="  204.934">  1 10  2 -1</clus>
<clus scale="  291.925">  2  5  1 -1</clus>
<clus scale="   25.228">  2  5  1 -1</clus>
</clustering>
</event>
<event>
10    2  0.2445576E-006  0.1222286E+03  0.7546771E-02  0.1240274E+00
          1   -1    0    0  502    0  0.00000000000E+00  0.00000000000E+00  0.73176821096E+03  0.73176821096E+03  0.00000000000E+00 0. -1.
         -1   -1    0    0    0  501 -0.00000000000E+00 -0.00000000000E+00 -0.30012725238E+03  0.30012725238E+03  0.00000000000E+00 0.  1.
         23    2    1    2    0    0  0.35969149718E+02 -0.21892405194E-01  0.37141982603E+02  0.10448557497E+03  0.90796080830E+02 0.  0.
         23    2    1    2    0    0 -0.11152334040E+03 -0.84342604492E+02  0.50645236372E+03  0.53364015941E+03  0.93416768508E+02 0.  0.
        -11    1    4    4    0    0 -0.58369071492E+02 -0.80286707421E+02  0.20808317985E+03  0.23054612040E+03  0.00000000000E+00 0.  1.
         11    1    4    4    0    0 -0.53154268910E+02 -0.40558970707E+01  0.29836918386E+03  0.30309403901E+03  0.00000000000E+00 0. -1.
        -13    1    3    3    0    0  0.20047403482E+00 -0.41747362924E+02  0.88620851573E+01  0.42678086347E+02  0.00000000000E+00 0. -1.
         13    1    3    3    0    0  0.35768675683E+02  0.41725470518E+02  0.28279897445E+02  0.61807488621E+02  0.00000000000E+00 0.  1.
         21    1    1    2  502  503  0.22679127007E+02  0.61243735304E+02  0.12975719551E+03  0.14526550761E+03  0.00000000000E+00 0.  1.
         21    1    1    2  503  501  0.52875063677E+02  0.23120761593E+02 -0.24171058324E+03  0.24850422134E+03  0.00000000000E+00 0.  1.
<scales pt_clust_5="13000.00000" pt_clust_6="13000.00000" pt_clust_7="13000.00000" pt_clust_8="13000.00000" pt_clust_9="71.19281" pt_clust_10="57.70912"></scales>
<clustering>
<clus scale="   57.709">  2 10  1 -1</clus>
<clus scale="   71.193">  1  9  2 -1</clus>
<clus scale="   90.796">  7  8 -1 -1</clus>
<clus scale="   93.417">  5  6 -1 -1</clus>
<clus scale="  120.238">  2  7  1 -1</clus>
<clus scale="   71.193">  1  5  2 -1</clus>
</clustering>
</event>
<event>
10    2  0.2445576E-006  0.1849017E+03  0.7546771E-02  0.1163443E+00
         -1   -1    0    0    0  501 -0.00000000000E+00  0.00000000000E+00  0.73890338030E+02  0.73890338030E+02  0.00000000000E+00 0.  1.
          1   -1    0    0  502    0  0.00000000000E+00 -0.00000000000E+00 -0.10873060255E+04  0.10873060255E+04  0.00000000000E+00 0. -1.
         23    2    1    2    0    0  0.18954315885E+03  0.49788998912E+02 -0.22539650970E+03  0.31162364149E+03  0.88882809747E+02 0.  0.
         23    2    1    2    0    0 -0.13606168996E+03 -0.77077657465E+02 -0.66139783669E+03  0.68576568418E+03  0.91508067730E+02 0.  0.
        -13    1    4    4    0    0 -0.13109488220E+03 -0.34794500896E+02 -0.44466112499E+03  0.46488712771E+03  0.00000000000E+00 0.  1.
         13    1    4    4    0    0 -0.49668077635E+01 -0.42283156569E+02 -0.21673671171E+03  0.22087855648E+03  0.00000000000E+00 0. -1.
        -13    1    3    3    0    0  0.46989376294E+02  0.49343255037E+02 -0.44811939435E+02  0.81552855364E+02  0.00000000000E+00 0.  1.
         13    1    3    3    0    0  0.14255378256E+03  0.44574387489E+00 -0.18058457027E+03  0.23007078612E+03  0.00000000000E+00 0. -1.
         21    1    1    2  502  503 -0.35012480962E+01  0.27826166612E+02 -0.10615300958E+03  0.10979533564E+03  0.00000000000E+00 0. -1.
         21    1    1    2  503  501 -0.49980220792E+02 -0.53750805917E+00 -0.20468331538E+02  0.54011702262E+02  0.00000000000E+00 0. -1.
<scales pt_clust_5="13000.00000" pt_clust_6="13000.00000" pt_clust_7="13000.00000" pt_clust_8="13000.00000" pt_clust_9="28.04558" pt_clust_10="50.11606"></scales>
<clustering>
<clus scale="   28.046">  2  9  1 -1</clus>
<clus scale="   50.116">  1 10  2 -1</clus>
<clus scale="   88.883">  7  8 -1 -1</clus>
<clus scale="   91.508">  5  6 -1 -1</clus>
<clus scale="  183.617">  1  7  2 -1</clus>
<clus scale="   28.046">  2  5  1 -1</clus>
</clustering>
</event>
<event>
10    2  0.2445576E-006  0.1758825E+03  0.7546771E-02  0.1172323E+00
         -2   -1    0    0    0  501 -0.00000000000E+00  0.00000000000E+00  0.10941412342E+03  0.10941412342E+03  0.00000000000E+00 0.  1.
          2   -1    0    0  502    0  0.00000000000E+00 -0.00000000000E+00 -0.11104129768E+04  0.11104129768E+04  0.00000000000E+00 0. -1.
         23    2    1    2    0    0 -0.79931674539E+02 -0.88608975881E+02 -0.39047998292E+02  0.15356855099E+03  0.88419061746E+02 0.  0.
         23    2    1    2    0    0  0.15565992506E+03  0.10022460244E+03 -0.82585295768E+03  0.85134459973E+03  0.92084399212E+02 0.  0.
        -11    1    3    3    0    0 -0.94005550180E+02 -0.62833586563E+02 -0.12110530324E+02  0.11371793179E+03  0.00000000000E+00 0.  1.
         11    1    3    3    0    0  0.14073875641E+02 -0.25775389318E+02 -0.26937467968E+02  0.39850619200E+02  0.00000000000E+00 0. -1.
        -11    1    4    4    0    0  0.80246794903E+02  0.10160401851E+03 -0.57507395639E+03  0.58946838761E+03  0.00000000000E+00 0.  1.
         11    1    4    4    0    0  0.75413130158E+02 -0.13794160676E+01 -0.25077900129E+03  0.26187621212E+03  0.00000000000E+00 0. -1.
         21    1    1    2  502  503 -0.20106832335E+02 -0.30301664094E+02 -0.15022247710E+03  0.15456153526E+03  0.00000000000E+00 0.  1.
         21    1    1    2  503  501 -0.55621418187E+02  0.18686037537E+02  0.14124579656E+02  0.60352414288E+02  0.00000000000E+00 0.  1.
<scales pt_clust_5="13000.00000" pt_clust_6="13000.00000" pt_clust_7="13000.00000" pt_clust_8="13000.00000" pt_clust_9="36.36586" pt_clust_10="58.90945"></scales>
<clustering>
<clus scale="   36.366">  2  9  1 -1</clus>
<clus scale="   58.909">  1 10  2 -1</clus>
<clus scale="   88.419">  5  6 -1 -1</clus>
<clus scale="   92.084">  7  8 -1 -1</clus>
<clus scale="  173.992">  1  5  2 -1</clus>
<clus scale="   36.366">  2  5  1 -1</clus>
</clustering>
</event>
<event>
10    2  0.2445576E-006  0.1553405E+03  0.7546771E-02  0.1194822E+00
          1   -1    0    0  502    0  0.00000000000E+00  0.00000000000E+00  0.36246915101E+03  0.36246915101E+03  0.00000000000E+00 0. -1.
         -1   -1    0    0    0  501 -0.00000000000E+00 -0.00000000000E+00 -0.14636945577E+03  0.14636945577E+03  0.00000000000E+00 0.  1.
         23    2    1    2    0    0 -0.10720704736E+03 -0.93228946537E+02  0.93038132014E+02  0.19218920899E+03  0.89975610957E+02 0.  0.
         23    2    1    2    0    0  0.65135287326E+02  0.93996669869E+02  0.10648334388E+03  0.17809856560E+03  0.85454180369E+02 0.  0.
        -11    1    3    3    0    0 -0.53562889364E+02  0.32726224070E+01  0.51047509115E+02  0.74064440599E+02  0.00000000000E+00 0. -1.
         11    1    3    3    0    0 -0.53644158000E+02 -0.96501568944E+02  0.41990622899E+02  0.11812476839E+03  0.00000000000E+00 0.  1.
        -13    1    4    4    0    0  0.16584419502E+02  0.44099266087E+02 -0.42414392460E+01  0.47305158773E+02  0.00000000000E+00 0.  1.
         13    1    4    4    0    0  0.48550867824E+02  0.49897403782E+02  0.11072478312E+03  0.13079340682E+03  0.00000000000E+00 0. -1.
         21    1    1    2  502  503  0.21595125269E+02 -0.78282383690E+00  0.74261108811E+02  0.77341286066E+02  0.00000000000E+00 0.  1.
         21    1    1    2  503  501  0.20476634769E+02  0.15100505056E-01 -0.57682889469E+02  0.61209546126E+02  0.00000000000E+00 0. -1.
<scales pt_clust_5="13000.00000" pt_clust_6="13000.00000" pt_clust_7="13000.00000" pt_clust_8="13000.00000" pt_clust_9="21.97187" pt_clust_10="20.47664"></scales>
<clustering>
<clus scale="   20.477">  2 10  1 -1</clus>
<clus scale="   21.972">  1  9  2 -1</clus>
<clus scale="   85.454">  7  8 -1 -1</clus>
<clus scale="   89.976">  5  6 -1 -1</clus>
<clus scale="  152.766">  1  7  2 -1</clus>
<clus scale="   21.972">  1  5  2 -1</clus>
</clustering>
</event>
<event>
10    2  0.2445576E-006  0.1038423E+03  0.7546771E-02  0.1272426E+00
          2   -1    0    0  502    0  0.00000000000E+00  0.00000000000E+00  0.31981700276E+03  0.31981700276E+03  0.00000000000E+00 0. -1.
         -2   -1    0    0    0  501 -0.00000000000E+00 -0.00000000000E+00 -0.16001313343E+03  0.16001313343E+03  0.00000000000E+00 0.  1.
         23    2    1    2    0    0 -0.46445235480E+02  0.47506189996E+02 -0.10509888436E+02  0.11412895406E+03  0.92200663839E+02 0.  0.
         23    2    1    2    0    0  0.12511302261E+02 -0.78264816106E+01  0.13645318037E+03  0.16533222728E+03  0.92181822740E+02 0.  0.
        -11    1    4    4    0    0 -0.33137200112E+01 -0.26339288590E+02  0.13837807972E+03  0.14090149684E+03  0.00000000000E+00 0. -1.
         11    1    4    4    0    0  0.15825022272E+02  0.18512806979E+02 -0.19248993507E+01  0.24430730437E+02  0.00000000000E+00 0.  1.
        -13    1    3    3    0    0  0.83577014222E+01 -0.19384186283E+02  0.12647787116E+02  0.24608217527E+02  0.00000000000E+00 0. -1.
         13    1    3    3    0    0 -0.54802936903E+02  0.66890376279E+02 -0.23157675553E+02  0.89520736530E+02  0.00000000000E+00 0.  1.
         21    1    1    2  502  503  0.11872293415E+02 -0.43685954018E+02  0.11108489118E+03  0.11995527073E+03  0.00000000000E+00 0. -1.
         21    1    1    2  503  501  0.22061639805E+02  0.40062456325E+01 -0.77224313780E+02  0.80413684120E+02  0.00000000000E+00 0. -1.
<scales pt_clust_5="13000.00000" pt_clust_6="13000.00000" pt_clust_7="13000.00000" pt_clust_8="13000.00000" pt_clust_9="45.39172" pt_clust_10="22.42244"></scales>
<clustering>
<clus scale="   22.422">  2 10  1 -1</clus>
<clus scale="   45.392">  1  9  2 -1</clus>
<clus scale="   92.182">  5  6 -1 -1</clus>
<clus scale="   92.201">  7  8 -1 -1</clus>
<clus scale="  103.826">  1  5  2 -1</clus>
<clus scale="   45.392">  1  5  2 -1</clus>
</clustering>
</event>
<event>
10    2  0.2445576E-006  0.1409926E+03  0.7546771E-02  0.1233063E+00
          1   -1    0    0  502    0  0.00000000000E+00  0.00000000000E+00  0.15753932705E+03  0.15753932705E+03  0.00000000000E+00 0. -1.
         -1   -1    0    0    0  501 -0.00000000000E+00 -0.00000000000E+00 -0.42688767093E+03  0.42688767093E+03  0.00000000000E+00 0.  1.
         23    2    1    2    0    0 -0.32030903849E+01 -0.16711538460E+02 -0.12813510930E+03  0.15693223030E+03  0.88992041021E+02 0.  0.
         23    2    1    2    0    0  0.56102103200E+02 -0.10499939691E+03 -0.13690304907E+03  0.20318582365E+03  0.91486145131E+02 0.  0.
        -11    1    3    3    0    0  0.53569186233E+01 -0.40549578721E+02 -0.12486525830E+03  0.13139367428E+03  0.00000000000E+00 0.  1.
         11    1    3    3    0    0 -0.85600090082E+01  0.23838040261E+02 -0.32698510000E+01  0.25538556014E+02  0.00000000000E+00 0. -1.
        -11    1    4    4    0    0  0.54334976009E+02 -0.25413446908E+02 -0.23045067030E+02  0.64258913904E+02  0.00000000000E+00 0.  1.
         11    1    4    4    0    0  0.17671271903E+01 -0.79585950007E+02 -0.11385798204E+03  0.13892690974E+03  0.00000000000E+00 0. -1.
         21    1    1    2  502  503 -0.23795213273E+02  0.10329953320E+03  0.80282502562E+02  0.13297475682E+03  0.00000000000E+00 0. -1.
         21    1    1    2  503  501 -0.29103799542E+02  0.18411402176E+02 -0.84592688083E+02  0.91334187219E+02  0.00000000000E+00 0. -1.
<scales pt_clust_5="13000.00000" pt_clust_6="13000.00000" pt_clust_7="13000.00000" pt_clust_8="13000.00000" pt_clust_9="107.28100" pt_clust_10="34.43851"></scales>
<clustering>
<clus scale="   34.439">  2 10  1 -1</clus>
<clus scale="   88.992">  5  6 -1 -1</clus>
<clus scale="   90.766">  2  5  1 -1</clus>
<clus scale="   91.486">  7  8 -1 -1</clus>
<clus scale="  107.281">  1  9  2 -1</clus>
<clus scale="  107.281">  1  5  2 -1</clus>
</clustering>
</event>
<event>
10    2  0.2445576E-006  0.1773864E+03  0.7546771E-02  0.1170446E+00
          1   -1    0    0  502    0  0.00000000000E+00  0.00000000000E+00  0.71160231424E+03  0.71160231424E+03  0.00000000000E+00 0. -1.
         -1   -1    0    0    0  501 -0.00000000000E+00 -0.00000000000E+00 -0.22868648061E+03  0.22868648061E+03  0.00000000000E+00 0.  1.
         23    2    1    2    0    0  0.18347913541E+03  0.25756322214E+02 -0.10255908592E+03  0.23064873677E+03  0.91391971224E+02 0.  0.
         23    2    1    2    0    0 -0.11123020595E+03  0.63960543281E+02  0.12415221310E+03  0.20025314578E+03  0.90688701413E+02 0.  0.
        -13    1    3    3    0    0  0.16994521674E+03 -0.80906144690E+01 -0.84040465146E+02  0.18976204709E+03  0.00000000000E+00 0.  1.
         13    1    3    3    0    0  0.13533918672E+02  0.33846936683E+02 -0.18518620775E+02  0.40886689679E+02  0.00000000000E+00 0. -1.
        -13    1    4    4    0    0 -0.28353079804E+02 -0.23069649486E+02  0.23139770014E+02  0.43261470364E+02  0.00000000000E+00 0.  1.
         13    1    4    4    0    0 -0.82877126146E+02  0.87030192766E+02  0.10101244309E+03  0.15699167542E+03  0.00000000000E+00 0. -1.
         21    1    1    2  502  503 -0.49068152472E+02 -0.79725317236E+02  0.47256917907E+03  0.48175246631E+03  0.00000000000E+00 0.  1.
         21    1    1    2  503  501 -0.23180776989E+02 -0.99915482585E+01 -0.11246472620E+02  0.27634445983E+02  0.00000000000E+00 0.  1.
<scales pt_clust_5="13000.00000" pt_clust_6="13000.00000" pt_clust_7="13000.00000" pt_clust_8="13000.00000" pt_clust_9="94.06910" pt_clust_10="25.24241"></scales>
<clustering>
<clus scale="   25.242">  2 10  1 -1</clus>
<clus scale="   90.689">  7  8 -1 -1</clus>
<clus scale="   91.392">  5  6 -1 -1</clus>
<clus scale="   94.069">  1  9  2 -1</clus>
<clus scale="  177.025">  1  7  2 -1</clus>
<clus scale="   94.069">  1  5  2 -1</clus>
</clustering>
</event>
<event>
10    2  0.2445576E-006  0.9802861E+02  0.7546771E-02  0.1285220E+00
         -1   -1    0    0    0  501 -0.00000000000E+00  0.00000000000E+00  0.47702832345E+02  0.47702832345E+02  0.00000000000E+00 0.  1.
          1   -1    0    0  502    0  0.00000000000E+00 -0.00000000000E+00 -0.48137430128E+03  0.48137430128E+03  0.00000000000E+00 0. -1.
         23    2    1    2    0    0  0.28507675304E+02 -0.12862706436E+01 -0.60380887076E+02  0.11194767026E+03  0.89844795672E+02 0.  0.
         23    2    1    2    0    0 -0.23064687808E+02 -0.67830044927E+01 -0.20085793267E+03  0.22192943893E+03  0.91273094479E+02 0.  0.
        -11    1    4    4    0    0 -0.45241374506E+02 -0.23953098755E+02 -0.62650809490E+02  0.80905233681E+02  0.00000000000E+00 0.  1.
         11    1    4    4    0    0  0.22176686698E+02  0.17170094262E+02 -0.13820712318E+03  0.14102420525E+03  0.00000000000E+00 0. -1.
        -11    1    3    3    0    0 -0.63698055823E+01 -0.40951950785E+02 -0.25982778375E+02  0.48915656679E+02  0.00000000000E+00 0.  1.
         11    1    3    3    0    0  0.34877480887E+02  0.39665680141E+02 -0.34398108700E+02  0.63032013582E+02  0.00000000000E+00 0. -1.
         21    1    1    2  502  503 -0.32168015226E+02  0.12434822940E+02 -0.16287087316E+03  0.16648221331E+03  0.00000000000E+00 0. -1.
         21    1    1    2  503  501  0.26725027729E+02 -0.43655478035E+01 -0.95617760341E+01  0.28717811123E+02  0.00000000000E+00 0.  1.
<scales pt_clust_5="13000.00000" pt_clust_6="13000.00000" pt_clust_7="13000.00000" pt_clust_8="13000.00000" pt_clust_9="33.23365" pt_clust_10="27.07924"></scales>
<clustering>
<clus scale="   27.079">  1 10  2 -1</clus>
<clus scale="   33.234">  2  9  1 -1</clus>
<clus scale="   89.845">  7  8 -1 -1</clus>
<clus scale="   91.273">  5  6 -1 -1</clus>
<clus scale="   96.700">  1  7  2 -1</clus>
<clus scale="   33.234">  2  5  1 -1</clus>
</clustering>
</event>
<event>
10    2  0.2445576E-006  0.1131931E+03  0.7546771E-02  0.1255274E+00
          4   -1    0    0  502    0  0.00000000000E+00  0.00000000000E+00  0.49307034049E+03  0.49307034049E+03  0.00000000000E+00 0. -1.
         -4   -1    0    0    0  501 -0.00000000000E+00 -0.00000000000E+00 -0.87693024071E+02  0.87693024071E+02  0.00000000000E+00 0.  1.
         23    2    1    2    0    0 -0.82692475325E+02 -0.38310245792E+01  0.38462010425E+02  0.12922117381E+03  0.91466186597E+02 0.  0.
         23    2    1    2    0    0  0.44358331840E+02 -0.47325515415E+02  0.53477939017E+02  0.12320298833E+03  0.90065089564E+02 0.  0.
        -11    1    3    3    0    0 -0.53598430709E+02 -0.44940515477E+02  0.36317184259E+02  0.78812306008E+02  0.00000000000E+00 0.  1.
         11    1    3    3    0    0 -0.29094044616E+02  0.41109490897E+02  0.21448261660E+01  0.50408867803E+02  0.00000000000E+00 0. -1.
        -11    1    4    4    0    0 -0.10227032209E+01 -0.62860391660E+02  0.33562700453E+02  0.71266609455E+02  0.00000000000E+00 0.  1.
         11    1    4    4    0    0  0.45381035061E+02  0.15534876246E+02  0.19915238565E+02  0.51936378872E+02  0.00000000000E+00 0. -1.
         21    1    1    2  502  503  0.21705809186E+02  0.37771708888E+02  0.29993259336E+03  0.30307986522E+03  0.00000000000E+00 0. -1.
         21    1    1    2  503  501  0.16628334298E+02  0.13384831105E+02  0.13504773617E+02  0.25259337199E+02  0.00000000000E+00 0. -1.
<scales pt_clust_5="13000.00000" pt_clust_6="13000.00000" pt_clust_7="13000.00000" pt_clust_8="13000.00000" pt_clust_9="43.94707" pt_clust_10="21.34608"></scales>
<clustering>
<clus scale="   21.346">  2 10  1 -1</clus>
<clus scale="   43.947">  1  9  2 -1</clus>
<clus scale="   90.065">  7  8 -1 -1</clus>
<clus scale="   91.466">  5  6 -1 -1</clus>
<clus scale="  112.064">  1  7  2 -1</clus>
<clus scale="   43.947">  1  5  2 -1</clus>
</clustering>
</event>
<event>
10    2  0.2445576E-006  0.1558833E+03  0.7546771E-02  0.1193558E+00
         -1   -1    0    0    0  501 -0.00000000000E+00  0.00000000000E+00  0.93701925422E+02  0.93701925422E+02  0.00000000000E+00 0.  1.
          1   -1    0    0  502    0  0.00000000000E+00 -0.00000000000E+00 -0.75635312754E+03  0.75635312754E+03  0.00000000000E+00 0. -1.
         23    2    1    2    0    0  0.15771030972E+03 -0.52697634329E+02 -0.15303152759E+03  0.24396425549E+03  0.91925660547E+02 0.  0.
         23    2    1    2    0    0 -0.76014843852E+02  0.53418948826E+02 -0.22337703740E+03  0.25852935847E+03  0.91149809533E+02 0.  0.
        -13    1    3    3    0    0  0.69604669409E+01 -0.29258401612E+02 -0.54809688422E+02  0.62518830042E+02  0.00000000000E+00 0. -1.
         13    1    3    3    0    0  0.15074984278E+03 -0.23439232717E+02 -0.98221839164E+02  0.18144542545E+03  0.00000000000E+00 0.  1.
        -13    1    4    4    0    0 -0.72368215921E+02  0.15981811148E+02 -0.74926717486E+02  0.10538780744E+03  0.00000000000E+00 0. -1.
         13    1    4    4    0    0 -0.36466279308E+01  0.37437137678E+02 -0.14845031991E+03  0.15314155104E+03  0.00000000000E+00 0.  1.
         21    1    1    2  502  503 -0.51609197371E+02 -0.18544485900E+02 -0.30360574893E+03  0.30851881303E+03  0.00000000000E+00 0. -1.
         21    1    1    2  503  501 -0.30086268496E+02  0.17823171404E+02  0.17363111795E+02  0.39042625963E+02  0.00000000000E+00 0.  1.
<scales pt_clust_5="13000.00000" pt_clust_6="13000.00000" pt_clust_7="13000.00000" pt_clust_8="13000.00000" pt_clust_9="55.68487" pt_clust_10="34.96926"></scales>
<clustering>
<clus scale="   34.969">  1 10  2 -1</clus>
<clus scale="   55.685">  2  9  1 -1</clus>
<clus scale="   91.150">  7  8 -1 -1</clus>
<clus scale="   91.926">  5  6 -1 -1</clus>
<clus scale="  155.427">  2  7  1 -1</clus>
<clus scale="   55.685">  2  5  1 -1</clus>
</clustering>
</event>
<event>
10    2  0.2445576E-006  0.1012474E+03  0.7546771E-02  0.1279679E+00
          1   -1    0    0  502    0  0.00000000000E+00  0.00000000000E+00  0.43909731505E+02  0.43909731505E+02  0.00000000000E+00 0. -1.
         -1   -1    0    0    0  501 -0.00000000000E+00 -0.00000000000E+00 -0.56148355928E+03  0.56148355928E+03  0.00000000000E+00 0.  1.
         23    2    1    2    0    0 -0.41774977565E+02 -0.32300686536E+02 -0.31383062964E+03  0.33245276765E+03  0.96159739599E+02 0.  0.
         23    2    1    2    0    0  0.51389506850E+01  0.12219982369E+02 -0.71736960254E+02  0.11756443622E+03  0.92192561603E+02 0.  0.
        -11    1    3    3    0    0  0.25797727265E+02  0.11780825597E+02 -0.66475311803E+02  0.72272246839E+02  0.00000000000E+00 0. -1.
         11    1    3    3    0    0 -0.67572704830E+02 -0.44081512133E+02 -0.24735531784E+03  0.26018052082E+03  0.00000000000E+00 0.  1.
        -13    1    4    4    0    0 -0.88400983661E+01 -0.33891824736E+02 -0.57487802300E+02  0.67317535133E+02  0.00000000000E+00 0.  1.
         13    1    4    4    0    0  0.13979049051E+02  0.46111807105E+02 -0.14249157954E+02  0.50246901091E+02  0.00000000000E+00 0. -1.
         21    1    1    2  502  503  0.24632204513E+02  0.26403962274E+01 -0.33609988847E+01  0.25000270097E+02  0.00000000000E+00 0.  1.
         21    1    1    2  503  501  0.12003822366E+02  0.17440307940E+02 -0.12864523899E+03  0.13037581681E+03  0.00000000000E+00 0.  1.
<scales pt_clust_5="13000.00000" pt_clust_6="13000.00000" pt_clust_7="13000.00000" pt_clust_8="13000.00000" pt_clust_9="25.23166" pt_clust_10="21.17206"></scales>
<clustering>
<clus scale="   21.172">  2 10  1 -1</clus>
<clus scale="   25.232">  1  9  2 -1</clus>
<clus scale="   92.193">  7  8 -1 -1</clus>
<clus scale="   96.160">  5  6 -1 -1</clus>
<clus scale="   97.487">  1  7  2 -1</clus>
<clus scale="   25.232">  1  5  2 -1</clus>
</clustering>
</event>
<event>
10    2  0.2445576E-006  0.1547941E+03  0.7546771E-02  0.1200761E+00
          2   -1    0    0  502    0  0.00000000000E+00  0.00000000000E+00  0.51593078515E+03  0.51593078515E+03  0.00000000000E+00 0. -1.
         -2   -1    0    0    0  501 -0.00000000000E+00 -0.00000000000E+00 -0.14532865756E+03  0.14532865756E+03  0.00000000000E+00 0.  1.
         23    2    1    2    0    0 -0.57641151815E+02 -0.14433832916E+03  0.20210196826E+03  0.27062311926E+03  0.90750269736E+02 0.  0.
         23    2    1    2    0    0  0.25649093213E+02  0.34701191459E+02  0.69674564477E+02  0.14323106774E+03  0.11746720887E+03 0.  0.
        -11    1    3    3    0    0 -0.36663209586E+02 -0.14474853177E+03  0.13854937399E+03  0.20369648357E+03  0.00000000000E+00 0. -1.
         11    1    3    3    0    0 -0.20977942229E+02  0.41020260908E+00  0.63552594270E+02  0.66926635690E+02  0.00000000000E+00 0.  1.
        -11    1    4    4    0    0 -0.47016675629E+02  0.78141987739E+01  0.26411072550E+02  0.54490129775E+02  0.00000000000E+00 0. -1.
         11    1    4    4    0    0  0.72665768842E+02  0.26886992685E+02  0.43263491926E+02  0.88740937964E+02  0.00000000000E+00 0.  1.
         21    1    1    2  502  503 -0.23479355174E+02  0.13259554530E+02  0.12931781316E+03  0.13209917754E+03  0.00000000000E+00 0.  1.
         21    1    1    2  503  501  0.55471413776E+02  0.96377583171E+02 -0.30492218309E+02  0.11530607816E+03  0.00000000000E+00 0.  1.
<scales pt_clust_5="13000.00000" pt_clust_6="13000.00000" pt_clust_7="13000.00000" pt_clust_8="13000.00000" pt_clust_9="26.96472" pt_clust_10="111.21660"></scales>
<clustering>
<clus scale="   26.965">  1  9  2 -1</clus>
<clus scale="   90.750">  5  6 -1 -1</clus>
<clus scale="  111.217">  2 10  1 -1</clus>
<clus scale="  117.467">  7  8 -1 -1</clus>
<clus scale="  135.640">  2  5  1 -1</clus>
<clus scale="   26.965">  1  5  2 -1</clus>
</clustering>
</event>
<event>
10    2  0.2445576E-006  0.1549882E+03  0.7546771E-02  0.1216730E+00
          1   -1    0    0  502    0  0.00000000000E+00  0.00000000000E+00  0.37075714865E+03  0.37075714865E+03  0.00000000000E+00 0. -1.
         -1   -1    0    0    0  501 -0.00000000000E+00 -0.00000000000E+00 -0.30949145757E+03  0.30949145757E+03  0.00000000000E+00 0.  1.
         23    2    1    2    0    0 -0.46464453419E+02 -0.11855170741E+02 -0.16402263536E+03  0.19272661398E+03  0.89110225688E+02 0.  0.
         23    2    1    2    0    0  0.12495022479E+03 -0.41896430262E+02  0.23475730735E+03  0.28446039676E+03  0.91863237614E+02 0.  0.
        -13    1    3    3    0    0 -0.50957598873E+02  0.15741018358E+02 -0.15408397001E+03  0.16305313967E+03  0.00000000000E+00 0.  1.
         13    1    3    3    0    0  0.44931454546E+01 -0.27596189099E+02 -0.99386653484E+01  0.29673474313E+02  0.00000000000E+00 0. -1.
        -13    1    4    4    0    0  0.67076586009E+02 -0.66744703461E+02  0.11308124908E+03  0.14744996685E+03  0.00000000000E+00 0. -1.
         13    1    4    4    0    0  0.57873638782E+02  0.24848273199E+02  0.12167605828E+03  0.13701042991E+03  0.00000000000E+00 0.  1.
         21    1    1    2  502  503 -0.99152234030E+02  0.61637971526E+02  0.59212041265E+02  0.13090634392E+03  0.00000000000E+00 0. -1.
         21    1    1    2  503  501  0.20666462657E+02 -0.78863705222E+01 -0.68681022187E+02  0.72155251558E+02  0.00000000000E+00 0.  1.
<scales pt_clust_5="13000.00000" pt_clust_6="13000.00000" pt_clust_7="13000.00000" pt_clust_8="13000.00000" pt_clust_9="124.82989" pt_clust_10="22.12007"></scales>
<clustering>
<clus scale="   22.120">  2 10  1 -1</clus>
<clus scale="   89.110">  5  6 -1 -1</clus>
<clus scale="   91.863">  7  8 -1 -1</clus>
<clus scale="   96.016">  2  5  1 -1</clus>
<clus scale="  124.830">  2  9  1 -1</clus>
<clus scale="  154.988">  1  5  2 -1</clus>
</clustering>
</event>
<event>
10    2  0.2445576E-006  0.1414587E+03  0.7546771E-02  0.1226541E+00
         -1   -1    0    0    0  501 -0.00000000000E+00  0.00000000000E+00  0.41322530632E+02  0.41322530632E+02  0.00000000000E+00 0.  1.
          1   -1    0    0  502    0  0.00000000000E+00 -0.00000000000E+00 -0.15142756766E+04  0.15142756766E+04  0.00000000000E+00 0. -1.
         23    2    1    2    0    0  0.21866125344E+02  0.43412955137E+01 -0.26000223891E+03  0.27805825304E+03  0.96011736587E+02 0.  0.
         23    2    1    2    0    0 -0.53238387031E+02 -0.10051880611E+03 -0.34611949012E+03  0.37564171639E+03  0.91485744338E+02 0.  0.
        -11    1    4    4    0    0  0.65328293288E+01 -0.43031885558E+02 -0.42248461645E+02  0.60657675072E+02  0.00000000000E+00 0.  1.
         11    1    4    4    0    0 -0.59771216360E+02 -0.57486920551E+02 -0.30387102847E+03  0.31498404132E+03  0.00000000000E+00 0. -1.
        -13    1    3    3    0    0 -0.14943275225E+02 -0.26399590382E+02 -0.28440338365E+02  0.41582360360E+02  0.00000000000E+00 0.  1.
         13    1    3    3    0    0  0.36809400569E+02  0.30740885896E+02 -0.23156190054E+03  0.23647589268E+03  0.00000000000E+00 0. -1.
         21    1    1    2  502  503 -0.14047917061E+02  0.10969956101E+03 -0.84037921218E+03  0.84762524615E+03  0.00000000000E+00 0. -1.
         21    1    1    2  503  501  0.45420178747E+02 -0.13522050414E+02 -0.26452204755E+02  0.54272991637E+02  0.00000000000E+00 0. -1.
<scales pt_clust_5="13000.00000" pt_clust_6="13000.00000" pt_clust_7="13000.00000" pt_clust_8="13000.00000" pt_clust_9="107.89316" pt_clust_10="47.39028"></scales>
<clustering>
<clus scale="   47.390">  1 10  2 -1</clus>
<clus scale="   91.486">  5  6 -1 -1</clus>
<clus scale="   96.012">  7  8 -1 -1</clus>
<clus scale="  102.832">  1  7  2 -1</clus>
<clus scale="  107.893">  2  9  1 -1</clus>
<clus scale="  107.893">  2  5  1 -1</clus>
</clustering>
</event>
<event>
10    2  0.2445576E-006  0.1436460E+03  0.7546771E-02  0.1209397E+00
          1   -1    0    0  502    0  0.00000000000E+00  0.00000000000E+00  0.18189229803E+04  0.18189229803E+04  0.00000000000E+00 0. -1.
         -1   -1    0    0    0  501 -0.00000000000E+00 -0.00000000000E+00 -0.23386441037E+02  0.23386441037E+02  0.00000000000E+00 0.  1.
         23    2    1    2    0    0 -0.18352551518E+02 -0.62998859216E+02  0.53456533589E+03  0.54687697792E+03  0.94913951743E+02 0.  0.
         23    2    1    2    0    0  0.73118973011E+02  0.14726419554E+03  0.70133147341E+03  0.72604121280E+03  0.90757256431E+02 0.  0.
        -11    1    4    4    0    0  0.56129661802E+02  0.53656284652E+02  0.46224306114E+03  0.46871972797E+03  0.00000000000E+00 0.  1.
         11    1    4    4    0    0  0.16989311209E+02  0.93607910884E+02  0.23908841226E+03  0.25732148483E+03  0.00000000000E+00 0. -1.
        -13    1    3    3    0    0  0.15034835311E+02  0.16242632247E+02  0.49138471614E+02  0.53893030789E+02  0.00000000000E+00 0.  1.
         13    1    3    3    0    0 -0.33387386829E+02 -0.79241491463E+02  0.48542686428E+03  0.49298394713E+03  0.00000000000E+00 0. -1.
         21    1    1    2  502  503 -0.25866475422E+02 -0.21041623970E+02  0.23804811001E+03  0.24037205988E+03  0.00000000000E+00 0. -1.
         21    1    1    2  503  501 -0.28899946071E+02 -0.63223712350E+02  0.32159161997E+03  0.32901917075E+03  0.00000000000E+00 0. -1.
<scales pt_clust_5="13000.00000" pt_clust_6="13000.00000" pt_clust_7="13000.00000" pt_clust_8="13000.00000" pt_clust_9="20.88938" pt_clust_10="104.92734"></scales>
<clustering>
<clus scale="   20.889">  9 10 -1 -1</clus>
<clus scale="   90.757">  5  6 -1 -1</clus>
<clus scale="   94.914">  7  8 -1 -1</clus>
<clus scale="  104.927">  1  9  2 -1</clus>
<clus scale="  140.934">  1  5  2 -1</clus>
<clus scale="  104.927">  1  5  2 -1</clus>
</clustering>
</event>
<event>
10    2  0.2445576E-006  0.1212833E+03  0.7546771E-02  0.1241518E+00
         -3   -1    0    0    0  501 -0.00000000000E+00  0.00000000000E+00  0.20259118710E+03  0.20259118710E+03  0.00000000000E+00 0.  1.
          3   -1    0    0  502    0  0.00000000000E+00 -0.00000000000E+00 -0.15585328689E+03  0.15585328689E+03  0.00000000000E+00 0. -1.
         23    2    1    2    0    0 -0.74815531978E+02  0.88089517494E+02  0.37061814613E+02  0.15195405825E+03  0.91429376013E+02 0.  0.
         23    2    1    2    0    0  0.51677080007E+02 -0.18893010254E+02  0.26900897646E+02  0.10863509917E+03  0.89724355908E+02 0.  0.
        -11    1    4    4    0    0 -0.62058812858E+01  0.29115491572E+02  0.40835268721E+01  0.30048294523E+02  0.00000000000E+00 0. -1.
         11    1    4    4    0    0  0.57882961293E+02 -0.48008501827E+02  0.22817370774E+02  0.78586804648E+02  0.00000000000E+00 0.  1.
        -13    1    3    3    0    0  0.14701549838E+02  0.38429721091E+02  0.26727853230E+02  0.49064826190E+02  0.00000000000E+00 0.  1.
         13    1    3    3    0    0 -0.89517081816E+02  0.49659796403E+02  0.10333961382E+02  0.10288923206E+03  0.00000000000E+00 0. -1.
         21    1    1    2  502  503  0.85732669377E+01 -0.21281526242E+02 -0.37389902837E+02  0.43868087482E+02  0.00000000000E+00 0.  1.
         21    1    1    2  503  501  0.14565185033E+02 -0.47914980997E+02  0.20165090789E+02  0.53987229097E+02  0.00000000000E+00 0.  1.
<scales pt_clust_5="13000.00000" pt_clust_6="13000.00000" pt_clust_7="13000.00000" pt_clust_8="13000.00000" pt_clust_9="22.94350" pt_clust_10="53.43500"></scales>
<clustering>
<clus scale="   22.944">  2  9  1 -1</clus>
<clus scale="   53.435">  1 10  2 -1</clus>
<clus scale="   89.724">  5  6 -1 -1</clus>
<clus scale="   91.429">  7  8 -1 -1</clus>
<clus scale="  120.003">  2  5  1 -1</clus>
<clus scale="   22.944">  2  5  1 -1</clus>
</clustering>
</event>
<event>
10    2  0.2445576E-006  0.9681359E+02  0.7546771E-02  0.1287972E+00
         -1   -1    0    0    0  501 -0.00000000000E+00  0.00000000000E+00  0.82613863563E+02  0.82613863563E+02  0.00000000000E+00 0.  1.
          1   -1    0    0  502    0  0.00000000000E+00 -0.00000000000E+00 -0.37589890741E+03  0.37589890741E+03  0.00000000000E+00 0. -1.
         23    2    1    2    0    0  0.21756360293E+02 -0.21624436479E+01 -0.62574006436E+02  0.11355339184E+03  0.92200060415E+02 0.  0.
         23    2    1    2    0    0 -0.93440293304E+01  0.48332337356E+02 -0.60360413883E+02  0.11949879022E+03  0.90627013528E+02 0.  0.
        -11    1    4    4    0    0 -0.20537139230E+02 -0.36422470552E+01  0.16115424269E+02  0.26358052863E+02  0.00000000000E+00 0.  1.
         11    1    4    4    0    0  0.11193109900E+02  0.51974584411E+02 -0.76475838152E+02  0.93140737355E+02  0.00000000000E+00 0. -1.
        -13    1    3    3    0    0  0.22270938991E+02 -0.30496374729E+02  0.70210459766E+01  0.38409877399E+02  0.00000000000E+00 0.  1.
         13    1    3    3    0    0 -0.51457869860E+00  0.28333931082E+02 -0.69595052412E+02  0.75143514438E+02  0.00000000000E+00 0. -1.
         21    1    1    2  502  503  0.63130919445E+01 -0.30263381025E+02 -0.19092661033E+03  0.19341328261E+03  0.00000000000E+00 0. -1.
         21    1    1    2  503  501 -0.18725422907E+02 -0.15906512683E+02  0.20575986798E+02  0.32047306306E+02  0.00000000000E+00 0.  1.
<scales pt_clust_5="13000.00000" pt_clust_6="13000.00000" pt_clust_7="13000.00000" pt_clust_8="13000.00000" pt_clust_9="31.17790" pt_clust_10="24.56946"></scales>
<clustering>
<clus scale="   24.569">  1 10  2 -1</clus>
<clus scale="   31.178">  2  9  1 -1</clus>
<clus scale="   90.627">  5  6 -1 -1</clus>
<clus scale="   92.200">  7  8 -1 -1</clus>
<clus scale="   95.317">  2  5  1 -1</clus>
<clus scale="   31.178">  2  5  1 -1</clus>
</clustering>
</event>
<event>
10    2  0.2445576E-006  0.1442719E+03  0.7546771E-02  0.1207985E+00
         -1   -1    0    0    0  501 -0.00000000000E+00  0.00000000000E+00  0.41212686120E+03  0.41212686120E+03  0.00000000000E+00 0.  1.
          1   -1    0    0  502    0  0.00000000000E+00 -0.00000000000E+00 -0.15314831812E+03  0.15314831812E+03  0.00000000000E+00 0. -1.
         23    2    1    2    0    0  0.91710389074E+01  0.60175819037E+02  0.17002280225E+03  0.20171698707E+03  0.89870754062E+02 0.  0.
         23    2    1    2    0    0 -0.72173480909E+02 -0.15214631187E+03  0.96934550487E+01  0.19044702490E+03  0.88422817516E+02 0.  0.
        -11    1    4    4    0    0  0.12109574022E+02 -0.21175705720E+02  0.23777725118E+02  0.34065121569E+02  0.00000000000E+00 0.  1.
         11    1    4    4    0    0 -0.84283054930E+02 -0.13097060615E+03 -0.14084270069E+02  0.15638190333E+03  0.00000000000E+00 0. -1.
        -11    1    3    3    0    0 -0.28124528068E+02 -0.21041156159E+01  0.18576401231E+02  0.33771275727E+02  0.00000000000E+00 0. -1.
         11    1    3    3    0    0  0.37295566975E+02  0.62279934653E+02  0.15144640102E+03  0.16794571134E+03  0.00000000000E+00 0.  1.
         21    1    1    2  502  503  0.29685987954E+02  0.37371737511E+02 -0.22619438333E+02  0.52816130452E+02  0.00000000000E+00 0. -1.
         21    1    1    2  503  501  0.33316454048E+02  0.54598755326E+02  0.10188172412E+03  0.12029503690E+03  0.00000000000E+00 0. -1.
<scales pt_clust_5="13000.00000" pt_clust_6="13000.00000" pt_clust_7="13000.00000" pt_clust_8="13000.00000" pt_clust_9="47.72740" pt_clust_10="67.74039"></scales>
<clustering>
<clus scale="   47.727">  2  9  1 -1</clus>
<clus scale="   67.740">  1 10  2 -1</clus>
<clus scale="   88.423">  5  6 -1 -1</clus>
<clus scale="   89.871">  7  8 -1 -1</clus>
<clus scale="  143.374">  2  5  1 -1</clus>
<clus scale="   47.727">  2  5  1 -1</clus>
</clustering>
</event>
<event>
10    2  0.2445576E-006  0.9864463E+02  0.7546771E-02  0.1283423E+00
         -2   -1    0    0    0  501 -0.00000000000E+00  0.00000000000E+00  0.37553033096E+03  0.37553033096E+03  0.00000000000E+00 0.  1.
          2   -1    0    0  502    0  0.00000000000E+00 -0.00000000000E+00 -0.45414914580E+02  0.45414914580E+02  0.00000000000E+00 0. -1.
         23    2    1    2    0    0 -0.38635957471E+02 -0.74959544140E+01  0.10794389319E+03  0.14777115108E+03  0.92927404314E+02 0.  0.
         23    2    1    2    0    0  0.23402523091E+02 -0.21311286970E+02  0.11264719284E+03  0.14972933628E+03  0.93421812495E+02 0.  0.
        -11    1    3    3    0    0 -0.48856937374E+02 -0.42276668382E+02  0.66734968988E+02  0.92886345094E+02  0.00000000000E+00 0.  1.
         11    1    3    3    0    0  0.10220979903E+02  0.34780713968E+02  0.41208924198E+02  0.54884805984E+02  0.00000000000E+00 0. -1.
        -13    1    4    4    0    0  0.43781393928E+02 -0.47639387246E+02  0.66052963145E+02  0.92462509223E+02  0.00000000000E+00 0. -1.
         13    1    4    4    0    0 -0.20378870837E+02  0.26328100277E+02  0.46594229692E+02  0.57266827059E+02  0.00000000000E+00 0.  1.
         21    1    1    2  502  503 -0.14794160505E+02  0.16311279807E+02  0.27653434303E+02  0.35350211637E+02  0.00000000000E+00 0.  1.
         21    1    1    2  503  501  0.30027594885E+02  0.12495961576E+02  0.81870896057E+02  0.88094546548E+02  0.00000000000E+00 0. -1.
<scales pt_clust_5="13000.00000" pt_clust_6="13000.00000" pt_clust_7="13000.00000" pt_clust_8="13000.00000" pt_clust_9="22.02101" pt_clust_10="32.00824"></scales>
<clustering>
<clus scale="   22.021">  2  9  1 -1</clus>
<clus scale="   32.008">  1 10  2 -1</clus>
<clus scale="   92.927">  5  6 -1 -1</clus>
<clus scale="   93.422">  7  8 -1 -1</clus>
<clus scale="   98.177">  1  5  2 -1</clus>
<clus scale="   22.021">  2  5  1 -1</clus>
</clustering>
</event>
<event>
10    2  0.2445576E-006  0.3140437E+03  0.7546771E-02  0.1078456E+00
          1   -1    0    0  503    0  0.00000000000E+00  0.00000000000E+00  0.90104682971E+03  0.90104682971E+03  0.00000000000E+00 0. -1.
         -1   -1    0    0    0  501 -0.00000000000E+00 -0.00000000000E+00 -0.24708879834E+03  0.24708879834E+03  0.00000000000E+00 0.  1.
         23    2    1    2    0    0 -0.61956825206E+02  0.26084273309E+03 -0.58900487527E+02  0.29015897379E+03  0.94049896577E+02 0.  0.
         23    2    1    2    0    0  0.96524502400E+02 -0.28983455167E+03  0.73398881482E+03  0.80067258213E+03  0.94952391125E+02 0.  0.
        -11    1    3    3    0    0  0.20474097322E+02  0.10373211236E+03 -0.10499330688E+02  0.10625335637E+03  0.00000000000E+00 0. -1.
         11    1    3    3    0    0 -0.82430922528E+02  0.15711062073E+03 -0.48401156839E+02  0.18390561742E+03  0.00000000000E+00 0.  1.
        -11    1    4    4    0    0  0.21865163810E+02 -0.50589720115E+02  0.24588241509E+03  0.25198326774E+03  0.00000000000E+00 0. -1.
         11    1    4    4    0    0  0.74659338590E+02 -0.23924483156E+03  0.48810639973E+03  0.54868931439E+03  0.00000000000E+00 0.  1.
         21    1    1    2  502  501 -0.21925978844E+02  0.70656216903E+01  0.18604435200E+01  0.23111313425E+02  0.00000000000E+00 0.  1.
         21    1    1    2  503  502 -0.12641698350E+02  0.21926196891E+02 -0.22990739447E+02  0.34192758701E+02  0.00000000000E+00 0.  1.
<scales pt_clust_5="13000.00000" pt_clust_6="13000.00000" pt_clust_7="13000.00000" pt_clust_8="13000.00000" pt_clust_9="23.03631" pt_clust_10="27.43764"></scales>
<clustering>
<clus scale="   23.036">  2  9  1 -1</clus>
<clus scale="   27.438">  2 10  1 -1</clus>
<clus scale="   94.050">  5  6 -1 -1</clus>
<clus scale="   94.952">  7  8 -1 -1</clus>
<clus scale="  313.772">  2  5  1 -1</clus>
<clus scale="  314.044">  1  5  2 -1</clus>
</clustering>
</event>
<event>
10    2  0.2445576E-006  0.2863437E+03  0.7546771E-02  0.1092370E+00
         -2   -1    0    0    0  501 -0.00000000000E+00  0.00000000000E+00  0.53251406317E+03  0.53251406317E+03  0.00000000000E+00 0.  1.
          2   -1    0    0  502    0  0.00000000000E+00 -0.00000000000E+00 -0.55218730361E+03  0.55218730361E+03  0.00000000000E+00 0. -1.
         23    2    1    2    0    0 -0.36691493980E+01  0.15796988749E+03  0.18186162404E+03  0.25872358157E+03  0.94320164058E+02 0.  0.
         23    2    1    2    0    0  0.29362821075E+02 -0.32133396718E+03 -0.26965418894E+03  0.43047894607E+03  0.92092603780E+02 0.  0.
        -11    1    3    3    0    0  0.27202598509E+02  0.14953901188E+03  0.15189474467E+03  0.21488115529E+03  0.00000000000E+00 0.  1.
         11    1    3    3    0    0 -0.30871747907E+02  0.84308756048E+01  0.29966879377E+02  0.43842426277E+02  0.00000000000E+00 0. -1.
        -13    1    4    4    0    0  0.33802099907E+02 -0.99715256227E+02 -0.43840212868E+02  0.11405121019E+03  0.00000000000E+00 0.  1.
         13    1    4    4    0    0 -0.44392788322E+01 -0.22161871095E+03 -0.22581397608E+03  0.31642773588E+03  0.00000000000E+00 0. -1.
         21    1    1    2  502  503  0.11673531663E+02  0.19522276127E+02 -0.13884887743E+03  0.14069968504E+03  0.00000000000E+00 0.  1.
         21    1    1    2  503  501 -0.37367203339E+02  0.14384180357E+03  0.20696820189E+03  0.25479915410E+03  0.00000000000E+00 0.  1.
<scales pt_clust_5="13000.00000" pt_clust_6="13000.00000" pt_clust_7="13000.00000" pt_clust_8="13000.00000" pt_clust_9="22.74622" pt_clust_10="149.54465"></scales>
<clustering>
<clus scale="   22.746">  2  9  1 -1</clus>
<clus scale="   92.093">  7  8 -1 -1</clus>
<clus scale="   94.320">  5  6 -1 -1</clus>
<clus scale="  149.545">  1 10  2 -1</clus>
<clus scale="  285.618">  2  7  1 -1</clus>
<clus scale="   22.746">  2  5  1 -1</clus>
</clustering>
</event>
<event>
10    2  0.2445576E-006  0.1439284E+03  0.7546771E-02  0.1208477E+00
         -1   -1    0    0    0  501 -0.00000000000E+00  0.00000000000E+00  0.46510329099E+03  0.46510329099E+03  0.00000000000E+00 0.  1.
          1   -1    0    0  502    0  0.00000000000E+00 -0.00000000000E+00 -0.18187775781E+03  0.18187775781E+03  0.00000000000E+00 0. -1.
         23    2    1    2    0    0 -0.69048509437E+02  0.18825920799E+02  0.14737633168E+03  0.18680833481E+03  0.89752208140E+02 0.  0.
         23    2    1    2    0    0  0.10206164415E+03 -0.61853329297E+02 -0.96376575826E+02  0.17856055627E+03  0.91394826642E+02 0.  0.
        -11    1    4    4    0    0  0.17458093191E+02  0.24069112741E+02 -0.18972810155E+02  0.35271443565E+02  0.00000000000E+00 0.  1.
         11    1    4    4    0    0  0.84603550958E+02 -0.85922442038E+02 -0.77403765671E+02  0.14328911271E+03  0.00000000000E+00 0. -1.
        -13    1    3    3    0    0  0.12515094782E+02  0.26542404851E+02  0.61375209002E+02  0.68029722421E+02  0.00000000000E+00 0.  1.
         13    1    3    3    0    0 -0.81563604219E+02 -0.77164840511E+01  0.86001122674E+02  0.11877861239E+03  0.00000000000E+00 0. -1.
         21    1    1    2  502  503 -0.10093528947E+02 -0.26225778336E+02 -0.90718469959E+01  0.29529124333E+02  0.00000000000E+00 0. -1.
         21    1    1    2  503  501 -0.22919605765E+02  0.69253186834E+02  0.24129762433E+03  0.25208303339E+03  0.00000000000E+00 0.  1.
<scales pt_clust_5="13000.00000" pt_clust_6="13000.00000" pt_clust_7="13000.00000" pt_clust_8="13000.00000" pt_clust_9="28.10108" pt_clust_10="72.22908"></scales>
<clustering>
<clus scale="   28.101">  2  9  1 -1</clus>
<clus scale="   72.229">  1 10  2 -1</clus>
<clus scale="   89.752">  7  8 -1 -1</clus>
<clus scale="   91.395">  5  6 -1 -1</clus>
<clus scale="  142.891">  1  7  2 -1</clus>
<clus scale="   28.101">  2  5  1 -1</clus>
</clustering>
</event>
<event>
10    2  0.2445576E-006  0.1450536E+03  0.7546771E-02  0.1225242E+00
          1   -1    0    0  502    0  0.00000000000E+00  0.00000000000E+00  0.51067533344E+03  0.51067533344E+03  0.00000000000E+00 0. -1.
         -1   -1    0    0    0  501 -0.00000000000E+00 -0.00000000000E+00 -0.17445250223E+03  0.17445250223E+03  0.00000000000E+00 0.  1.
         23    2    1    2    0    0  0.49176555006E+02 -0.14359279651E+02 -0.88208622738E+02  0.13746736192E+03  0.92152004830E+02 0.  0.
         23    2    1    2    0    0  0.12066761724E+01 -0.11135578970E+03  0.35010127772E+03  0.37869225559E+03  0.91844171416E+02 0.  0.
        -11    1    4    4    0    0 -0.13148387908E+02 -0.63319271314E+02  0.30326324287E+03  0.31008193223E+03  0.00000000000E+00 0. -1.
         11    1    4    4    0    0  0.14355064080E+02 -0.48036518383E+02  0.46838034849E+02  0.68610323361E+02  0.00000000000E+00 0.  1.
        -13    1    3    3    0    0  0.14280090087E+01  0.28622248206E+02 -0.61582313291E+02  0.67923881016E+02  0.00000000000E+00 0.  1.
         13    1    3    3    0    0  0.47748545997E+02 -0.42981527857E+02 -0.26626309447E+02  0.69543480906E+02  0.00000000000E+00 0. -1.
         21    1    1    2  502  503 -0.27682871653E+02  0.11290387114E+03  0.81455612367E+02  0.14194591325E+03  0.00000000000E+00 0.  1.
         21    1    1    2  503  501 -0.22700359525E+02  0.12811198209E+02 -0.71254361301E+01  0.27022304901E+02  0.00000000000E+00 0.  1.
<scales pt_clust_5="13000.00000" pt_clust_6="13000.00000" pt_clust_7="13000.00000" pt_clust_8="13000.00000" pt_clust_9="112.27284" pt_clust_10="26.06594"></scales>
<clustering>
<clus scale="   26.066">  2 10  1 -1</clus>
<clus scale="   91.844">  5  6 -1 -1</clus>
<clus scale="   92.152">  7  8 -1 -1</clus>
<clus scale="   97.986">  2  7  1 -1</clus>
<clus scale="  112.273">  2  9  1 -1</clus>
<clus scale="  145.054">  1  5  2 -1</clus>
</clustering>
</event>
<event>
10    2  0.2445576E-006  0.1194114E+03  0.7546771E-02  0.1244554E+00
         -1   -1    0    0    0  501 -0.00000000000E+00  0.00000000000E+00  0.55952332557E+03  0.55952332557E+03  0.00000000000E+00 0.  1.
          1   -1    0    0  502    0  0.00000000000E+00 -0.00000000000E+00 -0.14235625570E+03  0.14235625570E+03  0.00000000000E+00 0. -1.
         23    2    1    2    0    0 -0.56415391435E+02  0.19362500052E+02  0.41254458884E+03  0.42680575162E+03  0.91719730898E+02 0.  0.
         23    2    1    2    0    0  0.38329333905E+02 -0.47478932947E+02 -0.72410206540E+02  0.13078221608E+03  0.90207334074E+02 0.  0.
        -11    1    3    3    0    0 -0.78637373816E+02  0.30304723966E+02  0.33267174296E+03  0.34318027539E+03  0.00000000000E+00 0.  1.
         11    1    3    3    0    0  0.22221982381E+02 -0.10942223914E+02  0.79872845889E+02  0.83625476235E+02  0.00000000000E+00 0. -1.
        -13    1    4    4    0    0 -0.15244758605E+02  0.18197879795E+02 -0.11294586736E+02  0.26289412003E+02  0.00000000000E+00 0.  1.
         13    1    4    4    0    0  0.53574092509E+02 -0.65676812742E+02 -0.61115619803E+02  0.10449280408E+03  0.00000000000E+00 0. -1.
         21    1    1    2  502  503  0.86843091344E+01 -0.19006427805E+02 -0.24356538977E+02  0.32092094260E+02  0.00000000000E+00 0. -1.
         21    1    1    2  503  501  0.94017483963E+01  0.47122860700E+02  0.10138922654E+03  0.11219951930E+03  0.00000000000E+00 0.  1.
<scales pt_clust_5="13000.00000" pt_clust_6="13000.00000" pt_clust_7="13000.00000" pt_clust_8="13000.00000" pt_clust_9="20.89645" pt_clust_10="47.25291"></scales>
<clustering>
<clus scale="   20.896">  2  9  1 -1</clus>
<clus scale="   47.253">  1 10  2 -1</clus>
<clus scale="   90.207">  7  8 -1 -1</clus>
<clus scale="   91.720">  5  6 -1 -1</clus>
<clus scale="  118.254">  2  7  1 -1</clus>
<clus scale="   20.896">  2  5  1 -1</clus>
</clustering>
</event>
<event>
10    2  0.2445576E-006  0.1165642E+03  0.7546771E-02  0.1249781E+00
          1   -1    0    0  502    0  0.00000000000E+00  0.00000000000E+00  0.45035386595E+03  0.45035386595E+03  0.00000000000E+00 0. -1.
         -1   -1    0    0    0  501 -0.00000000000E+00 -0.00000000000E+00 -0.10122849083E+03  0.10122849083E+03  0.00000000000E+00 0.  1.
         23    2    1    2    0    0 -0.88130597557E+02  0.99927215142E+01  0.84794496875E+02  0.15162526534E+03  0.89068836750E+02 0.  0.
         23    2    1    2    0    0  0.56432902351E+02 -0.94410555253E+01  0.24946391020E+03  0.27188710705E+03  0.91741759793E+02 0.  0.
        -11    1    3    3    0    0 -0.55310872162E+02  0.44494622330E+02  0.25163941286E+02  0.75314593119E+02  0.00000000000E+00 0.  1.
         11    1    3    3    0    0 -0.32819725395E+02 -0.34501900816E+02  0.59630555589E+02  0.76310672221E+02  0.00000000000E+00 0. -1.
        -11    1    4    4    0    0 -0.53048002789E+01  0.25428093363E+02  0.23388373222E+02  0.34953466782E+02  0.00000000000E+00 0.  1.
         11    1    4    4    0    0  0.61737702630E+02 -0.34869148889E+02  0.22607553698E+03  0.23693364026E+03  0.00000000000E+00 0. -1.
         21    1    1    2  502  503  0.15301840997E+02  0.14998498039E+02  0.67485032265E+02  0.70804878794E+02  0.00000000000E+00 0.  1.
         21    1    1    2  503  501  0.16395854210E+02 -0.15550164028E+02 -0.52618064223E+02  0.57265105598E+02  0.00000000000E+00 0.  1.
<scales pt_clust_5="13000.00000" pt_clust_6="13000.00000" pt_clust_7="13000.00000" pt_clust_8="13000.00000" pt_clust_9="21.42665" pt_clust_10="22.60230"></scales>
<clustering>
<clus scale="   21.427">  1  9  2 -1</clus>
<clus scale="   22.602">  2 10  1 -1</clus>
<clus scale="   89.069">  5  6 -1 -1</clus>
<clus scale="   91.742">  7  8 -1 -1</clus>
<clus scale="  114.472">  2  5  1 -1</clus>
<clus scale="   21.427">  1  5  2 -1</clus>
</clustering>
</event>
<event>
10    2  0.2445576E-006  0.2261027E+03  0.7546771E-02  0.1129788E+00
         -3   -1    0    0    0  501 -0.00000000000E+00  0.00000000000E+00  0.18962719929E+03  0.18962719929E+03  0.00000000000E+00 0.  1.
          3   -1    0    0  502    0  0.00000000000E+00 -0.00000000000E+00 -0.38704766110E+03  0.38704766110E+03  0.00000000000E+00 0. -1.
         23    2    1    2    0    0  0.17844817571E+03  0.96195262398E+02 -0.48111462428E+02  0.22785796594E+03  0.92234808526E+02 0.  0.
         23    2    1    2    0    0 -0.20451378200E+03 -0.52783519357E+02 -0.77461069471E+02  0.24505598730E+03  0.97160859838E+02 0.  0.
        -11    1    4    4    0    0 -0.45570011615E+02  0.22173582450E+02 -0.41913114103E+02  0.65764753866E+02  0.00000000000E+00 0. -1.
         11    1    4    4    0    0 -0.15894377038E+03 -0.74957101807E+02 -0.35547955368E+02  0.17929123343E+03  0.00000000000E+00 0.  1.
        -11    1    3    3    0    0  0.72954063138E+02  0.27423250080E+01 -0.47173899097E+02  0.86920609931E+02  0.00000000000E+00 0.  1.
         11    1    3    3    0    0  0.10549411257E+03  0.93452937390E+02 -0.93756333107E+00  0.14093735601E+03  0.00000000000E+00 0. -1.
         21    1    1    2  502  503  0.25539264702E+02 -0.92023849424E+01 -0.62732127376E+02  0.68353915288E+02  0.00000000000E+00 0. -1.
         21    1    1    2  503  501  0.52634158566E+00 -0.34209358099E+02 -0.91158025363E+01  0.35406991865E+02  0.00000000000E+00 0.  1.
<scales pt_clust_5="13000.00000" pt_clust_6="13000.00000" pt_clust_7="13000.00000" pt_clust_8="13000.00000" pt_clust_9="27.14660" pt_clust_10="34.92202"></scales>
<clustering>
<clus scale="   27.147">  2  9  1 -1</clus>
<clus scale="   34.922">  1 10  2 -1</clus>
<clus scale="   92.235">  7  8 -1 -1</clus>
<clus scale="   97.161">  5  6 -1 -1</clus>
<clus scale="  224.030">  1  7  2 -1</clus>
<clus scale="   27.147">  2  5  1 -1</clus>
</clustering>
</event>
<event>
10    2  0.2445576E-006  0.2067376E+03  0.7546771E-02  0.1144407E+00
          1   -1    0    0  502    0  0.00000000000E+00  0.00000000000E+00  0.17186239850E+04  0.17186239850E+04  0.00000000000E+00 0. -1.
         -1   -1    0    0    0  501 -0.00000000000E+00 -0.00000000000E+00 -0.77448059341E+02  0.77448059341E+02  0.00000000000E+00 0.  1.
         23    2    1    2    0    0  0.97129737403E+02 -0.85676236080E+02  0.15794441689E+03  0.22348306497E+03  0.90684277484E+02 0.  0.
         23    2    1    2    0    0 -0.24028997825E+03 -0.35703447878E+02  0.11018612519E+04  0.11321690614E+04  0.93244598877E+02 0.  0.
        -11    1    3    3    0    0  0.69165536082E+02 -0.98994136590E+02  0.14786012364E+03  0.19090921042E+03  0.00000000000E+00 0. -1.
         11    1    3    3    0    0  0.27964201322E+02  0.13317900509E+02  0.10084293249E+02  0.32573854544E+02  0.00000000000E+00 0.  1.
        -13    1    4    4    0    0 -0.40807838180E+02 -0.40008845437E+02  0.17576991190E+03  0.18482707946E+03  0.00000000000E+00 0.  1.
         13    1    4    4    0    0 -0.19948214007E+03  0.43053975585E+01  0.92609134002E+03  0.94734198192E+03  0.00000000000E+00 0. -1.
         21    1    1    2  502  503  0.29768508202E+02  0.18442727517E+02  0.19999159184E+03  0.20303431997E+03  0.00000000000E+00 0.  1.
         21    1    1    2  503  501  0.11339173264E+03  0.10293695644E+03  0.18137866502E+03  0.23738559804E+03  0.00000000000E+00 0.  1.
<scales pt_clust_5="13000.00000" pt_clust_6="13000.00000" pt_clust_7="13000.00000" pt_clust_8="13000.00000" pt_clust_9="35.01854" pt_clust_10="157.90128"></scales>
<clustering>
<clus scale="   35.019">  1  9  2 -1</clus>
<clus scale="   90.684">  5  6 -1 -1</clus>
<clus scale="   93.245">  7  8 -1 -1</clus>
<clus scale="  157.901">  2 10  1 -1</clus>
<clus scale="  205.596">  2  5  1 -1</clus>
<clus scale="   35.019">  1  5  2 -1</clus>
</clustering>
</event>
<event>
10    2  0.2445576E-006  0.1028669E+03  0.7546771E-02  0.1279403E+00
          2   -1    0    0  502    0  0.00000000000E+00  0.00000000000E+00  0.18638623930E+03  0.18638623930E+03  0.00000000000E+00 0. -1.
         -2   -1    0    0    0  501 -0.00000000000E+00 -0.00000000000E+00 -0.25359272872E+03  0.25359272872E+03  0.00000000000E+00 0.  1.
         23    2    1    2    0    0 -0.23882915291E+02 -0.31560684332E+01 -0.59072043827E+01  0.93521374988E+02  0.90172047250E+02 0.  0.
         23    2    1    2    0    0  0.35792500911E+02 -0.84022626024E+01  0.67229032037E+02  0.12590480505E+03  0.99902833035E+02 0.  0.
        -11    1    3    3    0    0 -0.25394589166E+02 -0.44860927077E+02 -0.48238962567E+01  0.51775070374E+02  0.00000000000E+00 0. -1.
         11    1    3    3    0    0  0.15116738751E+01  0.41704858644E+02 -0.10833081261E+01  0.41746304614E+02  0.00000000000E+00 0.  1.
        -13    1    4    4    0    0  0.35037526216E+02 -0.46632062801E+02  0.13350119630E+02  0.59836470639E+02  0.00000000000E+00 0. -1.
         13    1    4    4    0    0  0.75497469471E+00  0.38229800199E+02  0.53878912407E+02  0.66068334413E+02  0.00000000000E+00 0.  1.
         21    1    1    2  502  503 -0.28339142204E+02  0.42869622495E+02  0.29066049947E+02  0.59040213187E+02  0.00000000000E+00 0.  1.
         21    1    1    2  503  501  0.16429556584E+02 -0.31311291459E+02 -0.15759436702E+03  0.16151257480E+03  0.00000000000E+00 0. -1.
<scales pt_clust_5="13000.00000" pt_clust_6="13000.00000" pt_clust_7="13000.00000" pt_clust_8="13000.00000" pt_clust_9="45.78663" pt_clust_10="35.35997"></scales>
<clustering>
<clus scale="   35.360">  2 10  1 -1</clus>
<clus scale="   45.787">  1  9  2 -1</clus>
<clus scale="   90.172">  5  6 -1 -1</clus>
<clus scale="   93.445">  2  5  1 -1</clus>
<clus scale="   99.903">  7  8 -1 -1</clus>
<clus scale="   45.787">  1  5  2 -1</clus>
</clustering>
</event>
<event>
10    2  0.2445576E-006  0.3247505E+03  0.7546771E-02  0.1074403E+00
          2   -1    0    0  503    0  0.00000000000E+00  0.00000000000E+00  0.25177003254E+04  0.25177003254E+04  0.00000000000E+00 0. -1.
         -2   -1    0    0    0  501 -0.00000000000E+00 -0.00000000000E+00 -0.82069279040E+02  0.82069279040E+02  0.00000000000E+00 0.  1.
         23    2    1    2    0    0  0.40138842971E+03  0.42246106958E+02  0.12572990354E+04  0.13236427908E+04  0.91279614468E+02 0.  0.
         23    2    1    2    0    0 -0.23810061508E+03 -0.61870854388E+02  0.93541324719E+03  0.97416885890E+03  0.11613404801E+03 0.  0.
        -11    1    3    3    0    0  0.15158822699E+03 -0.20063175723E+02  0.38881143068E+03  0.41779881548E+03  0.00000000000E+00 0.  1.
         11    1    3    3    0    0  0.24980020271E+03  0.62309282682E+02  0.86848760475E+03  0.90584397530E+03  0.00000000000E+00 0. -1.
        -13    1    4    4    0    0 -0.15996845718E+03 -0.78366361482E+02  0.48383843064E+03  0.51558784010E+03  0.00000000000E+00 0.  1.
         13    1    4    4    0    0 -0.78132157901E+02  0.16495507093E+02  0.45157481656E+03  0.45858101880E+03  0.00000000000E+00 0. -1.
         21    1    1    2  502  501 -0.21387824198E+02 -0.16947677306E+02  0.70988105307E+02  0.76052441677E+02  0.00000000000E+00 0.  1.
         21    1    1    2  503  502 -0.14189999043E+03  0.36572424736E+02  0.17193065843E+03  0.22590551309E+03  0.00000000000E+00 0.  1.
<scales pt_clust_5="13000.00000" pt_clust_6="13000.00000" pt_clust_7="13000.00000" pt_clust_8="13000.00000" pt_clust_9="27.28851" pt_clust_10="152.30827"></scales>
<clustering>
<clus scale="   27.289">  2  9  1 -1</clus>
<clus scale="   91.280">  5  6 -1 -1</clus>
<clus scale="  116.134">  7  8 -1 -1</clus>
<clus scale="  152.308">  2 10  1 -1</clus>
<clus scale="  316.714">  2  5  1 -1</clus>
<clus scale="  324.750">  1  5  2 -1</clus>
</clustering>
</event>
<event>
10    2  0.2445576E-006  0.2021670E+03  0.7546771E-02  0.1148290E+00
         -1   -1    0    0    0  501 -0.00000000000E+00  0.00000000000E+00  0.18287127198E+03  0.18287127198E+03  0.00000000000E+00 0.  1.
          1   -1    0    0  502    0  0.00000000000E+00 -0.00000000000E+00 -0.71501462360E+03  0.71501462360E+03  0.00000000000E+00 0. -1.
         23    2    1    2    0    0  0.71492013993E+02 -0.15404185739E+03 -0.52867865923E+02  0.20112100311E+03  0.93886339529E+02 0.  0.
         23    2    1    2    0    0 -0.17052815679E+03  0.11923756400E+03 -0.12780090295E+03  0.26026551376E+03  0.90042311904E+02 0.  0.
        -13    1    4    4    0    0 -0.64065478018E+02  0.75710171336E+02 -0.10224275233E+03  0.14244295673E+03  0.00000000000E+00 0.  1.
         13    1    4    4    0    0 -0.10646267877E+03  0.43527392662E+02 -0.25558150620E+02  0.11782255704E+03  0.00000000000E+00 0. -1.
        -13    1    3    3    0    0 -0.21809100822E+02 -0.19825873060E+02 -0.50100326721E+00  0.29478010881E+02  0.00000000000E+00 0. -1.
         13    1    3    3    0    0  0.93301114815E+02 -0.13421598433E+03 -0.52366862656E+02  0.17164299223E+03  0.00000000000E+00 0.  1.
         21    1    1    2  502  503  0.39733638180E+02 -0.20450415541E+02 -0.35261622030E+03  0.35543660520E+03  0.00000000000E+00 0. -1.
         21    1    1    2  503  501  0.59302504618E+02  0.55254708937E+02  0.11416375454E+01  0.81062773515E+02  0.00000000000E+00 0. -1.
<scales pt_clust_5="13000.00000" pt_clust_6="13000.00000" pt_clust_7="13000.00000" pt_clust_8="13000.00000" pt_clust_9="44.68760" pt_clust_10="82.86038"></scales>
<clustering>
<clus scale="   44.688">  2  9  1 -1</clus>
<clus scale="   82.860">  1 10  2 -1</clus>
<clus scale="   90.042">  5  6 -1 -1</clus>
<clus scale="   93.886">  7  8 -1 -1</clus>
<clus scale="  200.411">  2  5  1 -1</clus>
<clus scale="   44.688">  2  5  1 -1</clus>
</clustering>
</event>
<event>
10    2  0.2445576E-006  0.1078946E+03  0.7546771E-02  0.1265064E+00
         -2   -1    0    0    0  501 -0.00000000000E+00  0.00000000000E+00  0.45279521060E+02  0.45279521060E+02  0.00000000000E+00 0.  1.
          2   -1    0    0  502    0  0.00000000000E+00 -0.00000000000E+00 -0.60360872247E+03  0.60360872247E+03  0.00000000000E+00 0. -1.
         23    2    1    2    0    0  0.24768030445E+01  0.32933272215E+02 -0.16463707576E+03  0.19088870627E+03  0.90787645042E+02 0.  0.
         23    2    1    2    0    0  0.39833213841E+02 -0.77654862705E+02 -0.21704628152E+03  0.25142193885E+03  0.92124591635E+02 0.  0.
        -11    1    4    4    0    0  0.18721702184E+02 -0.14758662762E+02  0.64206943017E+00  0.23848113391E+02  0.00000000000E+00 0.  1.
         11    1    4    4    0    0  0.21111511658E+02 -0.62896199943E+02 -0.21768835096E+03  0.22757382546E+03  0.00000000000E+00 0. -1.
        -11    1    3    3    0    0  0.45201945901E+02  0.52495317156E+01 -0.83733890506E+02  0.95300251394E+02  0.00000000000E+00 0.  1.
         11    1    3    3    0    0 -0.42725142857E+02  0.27683740500E+02 -0.80903185256E+02  0.95588454871E+02  0.00000000000E+00 0. -1.
         21    1    1    2  502  503 -0.27923324367E+02  0.28865909001E+02 -0.18042150781E+03  0.18483742377E+03  0.00000000000E+00 0. -1.
         21    1    1    2  503  501 -0.14386692519E+02  0.15855681489E+02  0.37756636898E+01  0.21740174641E+02  0.00000000000E+00 0.  1.
<scales pt_clust_5="13000.00000" pt_clust_6="13000.00000" pt_clust_7="13000.00000" pt_clust_8="13000.00000" pt_clust_9="41.61442" pt_clust_10="21.40980"></scales>
<clustering>
<clus scale="   21.410">  1 10  2 -1</clus>
<clus scale="   41.614">  2  9  1 -1</clus>
<clus scale="   90.788">  7  8 -1 -1</clus>
<clus scale="   92.125">  5  6 -1 -1</clus>
<clus scale="  106.755">  1  7  2 -1</clus>
<clus scale="   41.614">  2  5  1 -1</clus>
</clustering>
</event>
<event>
10    2  0.2445576E-006  0.1439083E+03  0.7546771E-02  0.1210621E+00
          3   -1    0    0  502    0  0.00000000000E+00  0.00000000000E+00  0.76760611027E+03  0.76760611027E+03  0.00000000000E+00 0. -1.
         -3   -1    0    0    0  501 -0.00000000000E+00 -0.00000000000E+00 -0.59326722759E+02  0.59326722759E+02  0.00000000000E+00 0.  1.
         23    2    1    2    0    0 -0.95214579328E+02  0.34988831313E+02  0.13322494938E+03  0.19141062745E+03  0.92731368628E+02 0.  0.
         23    2    1    2    0    0  0.10086147476E+03  0.31122105501E+02  0.49750795858E+03  0.51896015001E+03  0.10326589902E+03 0.  0.
        -13    1    3    3    0    0 -0.30023257725E+02 -0.32051274262E+02  0.41492357097E+02  0.60417678569E+02  0.00000000000E+00 0. -1.
         13    1    3    3    0    0 -0.65191321602E+02  0.67040105574E+02  0.91732592286E+02  0.13099294888E+03  0.00000000000E+00 0.  1.
        -13    1    4    4    0    0  0.37186862707E+02  0.55885813682E+02  0.14356219835E+03  0.15848088757E+03  0.00000000000E+00 0.  1.
         13    1    4    4    0    0  0.63674612054E+02 -0.24763708181E+02  0.35394576023E+03  0.36047926244E+03  0.00000000000E+00 0. -1.
         21    1    1    2  502  503 -0.21834600244E+02 -0.35146169662E+02  0.69218603777E+02  0.80642532937E+02  0.00000000000E+00 0.  1.
         21    1    1    2  503  501  0.16187704811E+02 -0.30964767152E+02  0.83278757689E+01  0.35919522640E+02  0.00000000000E+00 0. -1.
<scales pt_clust_5="13000.00000" pt_clust_6="13000.00000" pt_clust_7="13000.00000" pt_clust_8="13000.00000" pt_clust_9="43.76748" pt_clust_10="34.94079"></scales>
<clustering>
<clus scale="   34.941">  2 10  1 -1</clus>
<clus scale="   43.767">  2  9  1 -1</clus>
<clus scale="   92.731">  5  6 -1 -1</clus>
<clus scale="  103.266">  7  8 -1 -1</clus>
<clus scale="  136.546">  2  5  1 -1</clus>
<clus scale="  143.908">  1  5  2 -1</clus>
</clustering>
</event>
<event>
10    2  0.2445576E-006  0.1129047E+03  0.7546771E-02  0.1256348E+00
          4   -1    0    0  502    0  0.00000000000E+00  0.00000000000E+00  0.27626988173E+03  0.27626988173E+03  0.00000000000E+00 0. -1.
         -4   -1    0    0    0  501 -0.00000000000E+00 -0.00000000000E+00 -0.10978972156E+03  0.10978972156E+03  0.00000000000E+00 0.  1.
         23    2    1    2    0    0  0.64695962786E+02 -0.27105711809E+02  0.14101916663E+01  0.11500770062E+03  0.91129003874E+02 0.  0.
         23    2    1    2    0    0 -0.36708943603E+02  0.43337486141E+02  0.74872617358E+02  0.12888120490E+03  0.88197346341E+02 0.  0.
        -11    1    3    3    0    0  0.23143693812E+02 -0.46403811229E+02 -0.29577422269E+02  0.59697304528E+02  0.00000000000E+00 0.  1.
         11    1    3    3    0    0  0.41552268974E+02  0.19298099420E+02  0.30987613935E+02  0.55310396089E+02  0.00000000000E+00 0. -1.
        -11    1    4    4    0    0 -0.61004261008E+02  0.10060608666E+02  0.32783556596E+02  0.69982121224E+02  0.00000000000E+00 0. -1.
         11    1    4    4    0    0  0.24295317406E+02  0.33276877475E+02  0.42089060762E+02  0.58899083678E+02  0.00000000000E+00 0.  1.
         21    1    1    2  502  503 -0.17188973330E+02  0.24752131068E+02  0.94860774975E+02  0.99532383802E+02  0.00000000000E+00 0. -1.
         21    1    1    2  503  501 -0.10798045853E+02 -0.40983905400E+02 -0.46634238323E+01  0.42638313967E+02  0.00000000000E+00 0.  1.
<scales pt_clust_5="13000.00000" pt_clust_6="13000.00000" pt_clust_7="13000.00000" pt_clust_8="13000.00000" pt_clust_9="30.13518" pt_clust_10="40.38221"></scales>
<clustering>
<clus scale="   30.135">  1  9  2 -1</clus>
<clus scale="   40.382">  2 10  1 -1</clus>
<clus scale="   88.197">  7  8 -1 -1</clus>
<clus scale="   91.129">  5  6 -1 -1</clus>
<clus scale="  110.552">  1  7  2 -1</clus>
<clus scale="   30.135">  1  5  2 -1</clus>
</clustering>
</event>
<event>
10    2  0.2445576E-006  0.1216037E+03  0.7546771E-02  0.1247431E+00
          1   -1    0    0  502    0  0.00000000000E+00  0.00000000000E+00  0.77188230050E+03  0.77188230050E+03  0.00000000000E+00 0. -1.
         -1   -1    0    0    0  501 -0.00000000000E+00 -0.00000000000E+00 -0.31083942387E+03  0.31083942387E+03  0.00000000000E+00 0.  1.
         23    2    1    2    0    0  0.61639107920E+01  0.92330256704E+01 -0.74146900733E+02  0.11772499507E+03  0.90764359832E+02 0.  0.
         23    2    1    2    0    0  0.54871936604E+02 -0.22428914633E+02  0.35478881464E+03  0.37582792013E+03  0.10889231798E+03 0.  0.
        -11    1    4    4    0    0 -0.92310772778E+01  0.31776445982E+02  0.16524471431E+03  0.16852528272E+03  0.00000000000E+00 0. -1.
         11    1    4    4    0    0  0.64103013882E+02 -0.54205360614E+02  0.18954410033E+03  0.20730263741E+03  0.00000000000E+00 0.  1.
        -13    1    3    3    0    0  0.28077855780E+02  0.39908216673E+02 -0.60285311803E+02  0.77558691082E+02  0.00000000000E+00 0.  1.
         13    1    3    3    0    0 -0.21913944988E+02 -0.30675191003E+02 -0.13861588930E+02  0.40166303983E+02  0.00000000000E+00 0. -1.
         21    1    1    2  502  503 -0.10730095789E+03 -0.28957015943E+02  0.37166403061E+03  0.38792545158E+03  0.00000000000E+00 0. -1.
         21    1    1    2  503  501  0.46265110495E+02  0.42152904905E+02 -0.19126306788E+03  0.20124335759E+03  0.00000000000E+00 0.  1.
<scales pt_clust_5="13000.00000" pt_clust_6="13000.00000" pt_clust_7="13000.00000" pt_clust_8="13000.00000" pt_clust_9="107.21008" pt_clust_10="62.58856"></scales>
<clustering>
<clus scale="   62.589">  2 10  1 -1</clus>
<clus scale="   90.764">  7  8 -1 -1</clus>
<clus scale="  107.210">  1  9  2 -1</clus>
<clus scale="  105.679">  2  7  1 -1</clus>
<clus scale="  108.892">  5  6 -1 -1</clus>
<clus scale="  107.210">  1  5  2 -1</clus>
</clustering>
</event>
<event>
10    2  0.2445576E-006  0.9671440E+02  0.7546771E-02  0.1288341E+00
          2   -1    0    0  502    0  0.00000000000E+00  0.00000000000E+00  0.22125347885E+03  0.22125347885E+03  0.00000000000E+00 0. -1.
         -2   -1    0    0    0  501 -0.00000000000E+00 -0.00000000000E+00 -0.10654508641E+03  0.10654508641E+03  0.00000000000E+00 0.  1.
         23    2    1    2    0    0  0.41107286390E+02  0.76644603283E+01 -0.38036816431E+02  0.10630609550E+03  0.90031292283E+02 0.  0.
         23    2    1    2    0    0  0.78183582296E+01 -0.18659510445E+02  0.72672497726E+02  0.11888946188E+03  0.91891828610E+02 0.  0.
        -13    1    3    3    0    0  0.41972893095E+02 -0.28301426203E+02  0.42321975742E+01  0.50799665119E+02  0.00000000000E+00 0. -1.
         13    1    3    3    0    0 -0.86560670436E+00  0.35965886531E+02 -0.42269014005E+02  0.55506430383E+02  0.00000000000E+00 0.  1.
        -13    1    4    4    0    0  0.35991969867E+02  0.11278539096E+01 -0.26141185965E+01  0.36104398144E+02  0.00000000000E+00 0. -1.
         13    1    4    4    0    0 -0.28173611637E+02 -0.19787364355E+02  0.75286616322E+02  0.82785063738E+02  0.00000000000E+00 0.  1.
         21    1    1    2  502  503 -0.19557624303E+02  0.15088420025E+02  0.64590150268E+02  0.69152357869E+02  0.00000000000E+00 0. -1.
         21    1    1    2  503  501 -0.29368020317E+02 -0.40933699086E+01  0.15482560874E+02  0.33450650005E+02  0.00000000000E+00 0.  1.
<scales pt_clust_5="13000.00000" pt_clust_6="13000.00000" pt_clust_7="13000.00000" pt_clust_8="13000.00000" pt_clust_9="24.70144" pt_clust_10="32.51211"></scales>
<clustering>
<clus scale="   24.701">  1  9  2 -1</clus>
<clus scale="   32.512">  1 10  2 -1</clus>
<clus scale="   90.031">  5  6 -1 -1</clus>
<clus scale="   91.892">  7  8 -1 -1</clus>
<clus scale="   94.948">  2  5  1 -1</clus>
<clus scale="   24.701">  1  5  2 -1</clus>
</clustering>
</event>
<event>
10    2  0.2445576E-006  0.1137904E+03  0.7546771E-02  0.1255320E+00
          1   -1    0    0  502    0  0.00000000000E+00  0.00000000000E+00  0.50687704545E+03  0.50687704545E+03  0.00000000000E+00 0. -1.
         -1   -1    0    0    0  501 -0.00000000000E+00 -0.00000000000E+00 -0.90671295945E+02  0.90671295945E+02  0.00000000000E+00 0.  1.
         23    2    1    2    0    0 -0.34318769743E+01 -0.49616466957E+02 -0.21211533667E+02  0.10520672696E+03  0.90249402567E+02 0.  0.
         23    2    1    2    0    0  0.70470229740E+00  0.39660231793E+02  0.21412868614E+03  0.23742764871E+03  0.94590504574E+02 0.  0.
        -13    1    4    4    0    0 -0.28559743149E+02 -0.16496652703E+02  0.38302989838E+02  0.50546191842E+02  0.00000000000E+00 0.  1.
         13    1    4    4    0    0  0.29264445447E+02  0.56156884496E+02  0.17582569630E+03  0.18688145687E+03  0.00000000000E+00 0. -1.
        -13    1    3    3    0    0  0.16027616984E+02  0.15981978740E+02  0.15618921313E+02  0.27500160974E+02  0.00000000000E+00 0. -1.
         13    1    3    3    0    0 -0.19459493958E+02 -0.65598445697E+02 -0.36830454979E+02  0.77706565984E+02  0.00000000000E+00 0.  1.
         21    1    1    2  502  503  0.29708610286E+02  0.33044990167E+02  0.21350351021E+03  0.21807870545E+03  0.00000000000E+00 0. -1.
         21    1    1    2  503  501 -0.26981435610E+02 -0.23088755002E+02  0.97850868269E+01  0.36835260272E+02  0.00000000000E+00 0.  1.
<scales pt_clust_5="13000.00000" pt_clust_6="13000.00000" pt_clust_7="13000.00000" pt_clust_8="13000.00000" pt_clust_9="43.39234" pt_clust_10="35.51181"></scales>
<clustering>
<clus scale="   35.512">  2 10  1 -1</clus>
<clus scale="   43.392">  1  9  2 -1</clus>
<clus scale="   90.249">  7  8 -1 -1</clus>
<clus scale="   94.591">  5  6 -1 -1</clus>
<clus scale="  110.208">  2  7  1 -1</clus>
<clus scale="   43.392">  1  5  2 -1</clus>
</clustering>
</event>
<event>
10    2  0.2445576E-006  0.9612590E+02  0.7546771E-02  0.1288738E+00
          1   -1    0    0  502    0  0.00000000000E+00  0.00000000000E+00  0.18831258025E+03  0.18831258025E+03  0.00000000000E+00 0. -1.
         -1   -1    0    0    0  501 -0.00000000000E+00 -0.00000000000E+00 -0.42649216777E+03  0.42649216777E+03  0.00000000000E+00 0.  1.
         23    2    1    2    0    0  0.28548238203E+02  0.71504944875E+01 -0.28635351162E+03  0.30181734437E+03  0.90715182148E+02 0.  0.
         23    2    1    2    0    0  0.33016683856E+02 -0.25333682651E+02 -0.53818311583E+02  0.11350910481E+03  0.90862584841E+02 0.  0.
        -11    1    4    4    0    0  0.35872690351E+02 -0.57133530127E+02 -0.30867138788E+02  0.74188074748E+02  0.00000000000E+00 0. -1.
         11    1    4    4    0    0 -0.28560064952E+01  0.31799847476E+02 -0.22951172794E+02  0.39321030063E+02  0.00000000000E+00 0.  1.
        -13    1    3    3    0    0  0.27187951828E+02  0.37305636975E+02 -0.25153526720E+03  0.25573596915E+03  0.00000000000E+00 0.  1.
         13    1    3    3    0    0  0.13602863746E+01 -0.30155142488E+02 -0.34818244418E+02  0.46081375216E+02  0.00000000000E+00 0. -1.
         21    1    1    2  502  503 -0.75488089601E+02 -0.17218860375E+02  0.13063681914E+03  0.15185822117E+03  0.00000000000E+00 0. -1.
         21    1    1    2  503  501  0.13923167543E+02  0.35402048539E+02 -0.28644583461E+02  0.47620077665E+02  0.00000000000E+00 0.  1.
<scales pt_clust_5="13000.00000" pt_clust_6="13000.00000" pt_clust_7="13000.00000" pt_clust_8="13000.00000" pt_clust_9="76.84581" pt_clust_10="38.04155"></scales>
<clustering>
<clus scale="   38.042">  2 10  1 -1</clus>
<clus scale="   76.846">  1  9  2 -1</clus>
<clus scale="   90.715">  7  8 -1 -1</clus>
<clus scale="   90.863">  5  6 -1 -1</clus>
<clus scale="   95.987">  2  7  1 -1</clus>
<clus scale="   76.846">  1  5  2 -1</clus>
</clustering>
</event>
<event>
10    2  0.2445576E-006  0.3452634E+03  0.7546771E-02  0.1064590E+00
          1   -1    0    0  502    0  0.00000000000E+00  0.00000000000E+00  0.57373798078E+03  0.57373798078E+03  0.00000000000E+00 0. -1.
         -1   -1    0    0    0  501 -0.00000000000E+00 -0.00000000000E+00 -0.70211843602E+03  0.70211843602E+03  0.00000000000E+00 0.  1.
         23    2    1    2    0    0  0.29883064542E+03 -0.23587791070E+03 -0.42015248132E+03  0.57422544272E+03  0.90931887206E+02 0.  0.
         23    2    1    2    0    0 -0.81695357439E+02  0.22903317610E+03  0.14930246409E+03  0.29963339163E+03  0.91425469174E+02 0.  0.
        -11    1    4    4    0    0  0.19503932079E+02  0.22393247829E+02  0.16919147196E+02  0.34177747976E+02  0.00000000000E+00 0.  1.
         11    1    4    4    0    0 -0.10119928952E+03  0.20663992827E+03  0.13238331689E+03  0.26545564365E+03  0.00000000000E+00 0. -1.
        -13    1    3    3    0    0  0.19253091273E+03 -0.10335932649E+03 -0.27124695449E+03  0.34831912530E+03  0.00000000000E+00 0.  1.
         13    1    3    3    0    0  0.10629973269E+03 -0.13251858421E+03 -0.14890552683E+03  0.22590631742E+03  0.00000000000E+00 0. -1.
         21    1    1    2  502  503 -0.23138317769E+03 -0.22503900492E+02  0.21863884550E+03  0.31913562198E+03  0.00000000000E+00 0. -1.
         21    1    1    2  503  501  0.14247889709E+02  0.29348635095E+02 -0.76169283508E+02  0.82861960472E+02  0.00000000000E+00 0. -1.
<scales pt_clust_5="13000.00000" pt_clust_6="13000.00000" pt_clust_7="13000.00000" pt_clust_8="13000.00000" pt_clust_9="231.11207" pt_clust_10="32.62430"></scales>
<clustering>
<clus scale="   32.624">  2 10  1 -1</clus>
<clus scale="   90.932">  7  8 -1 -1</clus>
<clus scale="   91.425">  5  6 -1 -1</clus>
<clus scale="  231.112">  1  9  2 -1</clus>
<clus scale="  345.133">  2  7  1 -1</clus>
<clus scale="  231.112">  1  5  2 -1</clus>
</clustering>
</event>
<event>
10    2  0.2445576E-006  0.2718854E+03  0.7546771E-02  0.1100303E+00
         -2   -1    0    0    0  501 -0.00000000000E+00  0.00000000000E+00  0.84279994892E+03  0.84279994892E+03  0.00000000000E+00 0.  1.
          2   -1    0    0  502    0  0.00000000000E+00 -0.00000000000E+00 -0.14491066725E+03  0.14491066725E+03  0.00000000000E+00 0. -1.
         23    2    1    2    0    0  0.25198832970E+03  0.92303486964E+01  0.49870858507E+03  0.56593957690E+03  0.89409363248E+02 0.  0.
         23    2    1    2    0    0 -0.26918354460E+03 -0.17819756297E+02  0.10403628123E+03  0.30326520170E+03  0.91481748743E+02 0.  0.
        -13    1    3    3    0    0  0.22948730049E+03 -0.20331825932E+02  0.42870782031E+03  0.48669107186E+03  0.00000000000E+00 0.  1.
         13    1    3    3    0    0  0.22501029211E+02  0.29562174628E+02  0.70000764761E+02  0.79248505042E+02  0.00000000000E+00 0. -1.
        -13    1    4    4    0    0 -0.23811109186E+03 -0.48700726797E+01  0.56081706790E+02  0.24467481994E+03  0.00000000000E+00 0. -1.
         13    1    4    4    0    0 -0.31072452733E+02 -0.12949683617E+02  0.47954574444E+02  0.58590381760E+02  0.00000000000E+00 0.  1.
         21    1    1    2  502  503  0.18009972758E+02  0.29376174134E+02  0.18543208048E+02  0.39130158321E+02  0.00000000000E+00 0.  1.
         21    1    1    2  503  501 -0.81475785800E+00 -0.20786766533E+02  0.76601207321E+02  0.79375679249E+02  0.00000000000E+00 0. -1.
<scales pt_clust_5="13000.00000" pt_clust_6="13000.00000" pt_clust_7="13000.00000" pt_clust_8="13000.00000" pt_clust_9="33.77544" pt_clust_10="20.80273"></scales>
<clustering>
<clus scale="   20.803">  1 10  2 -1</clus>
<clus scale="   33.775">  2  9  1 -1</clus>
<clus scale="   89.409">  5  6 -1 -1</clus>
<clus scale="   91.482">  7  8 -1 -1</clus>
<clus scale="  271.195">  1  5  2 -1</clus>
<clus scale="   33.775">  2  5  1 -1</clus>
</clustering>
</event>
<event>
10    2  0.2445576E-006  0.1272833E+03  0.7546771E-02  0.1232216E+00
          3   -1    0    0  502    0  0.00000000000E+00  0.00000000000E+00  0.35038735922E+03  0.35038735922E+03  0.00000000000E+00 0. -1.
         -3   -1    0    0    0  501 -0.00000000000E+00 -0.00000000000E+00 -0.11060470572E+03  0.11060470572E+03  0.00000000000E+00 0.  1.
         23    2    1    2    0    0 -0.98497529044E+02  0.16978377233E+02  0.95713770983E+02  0.16694945416E+03  0.93386111205E+02 0.  0.
         23    2    1    2    0    0  0.71498555440E+02 -0.20459111011E+01  0.12711359896E+03  0.17190879662E+03  0.90986472247E+02 0.  0.
        -11    1    3    3    0    0 -0.68594978673E+01  0.38572763345E+02  0.12023046801E+02  0.40981269349E+02  0.00000000000E+00 0. -1.
         11    1    3    3    0    0 -0.91638031176E+02 -0.21594386112E+02  0.83690724182E+02  0.12596818481E+03  0.00000000000E+00 0.  1.
        -13    1    4    4    0    0  0.90947964209E+02  0.80813190086E+01  0.86606364009E+02  0.12584713822E+03  0.00000000000E+00 0. -1.
         13    1    4    4    0    0 -0.19449408769E+02 -0.10127230110E+02  0.40507234956E+02  0.46061658404E+02  0.00000000000E+00 0.  1.
         21    1    1    2  502  503  0.30319135497E+02  0.81230495078E+01  0.63081769452E+02  0.70459517085E+02  0.00000000000E+00 0.  1.
         21    1    1    2  503  501 -0.33201618941E+01 -0.23055515640E+02 -0.46126485899E+02  0.51674297071E+02  0.00000000000E+00 0.  1.
<scales pt_clust_5="13000.00000" pt_clust_6="13000.00000" pt_clust_7="13000.00000" pt_clust_8="13000.00000" pt_clust_9="30.86656" pt_clust_10="23.29335"></scales>
<clustering>
<clus scale="   23.293">  2 10  1 -1</clus>
<clus scale="   30.867">  1  9  2 -1</clus>
<clus scale="   90.986">  7  8 -1 -1</clus>
<clus scale="   93.386">  5  6 -1 -1</clus>
<clus scale="  125.533">  1  7  2 -1</clus>
<clus scale="   30.867">  1  5  2 -1</clus>
</clustering>
</event>
<event>
10    2  0.2445576E-006  0.1204741E+03  0.7546771E-02  0.1243267E+00
         -2   -1    0    0    0  501 -0.00000000000E+00  0.00000000000E+00  0.19038517420E+03  0.19038517420E+03  0.00000000000E+00 0.  1.
          2   -1    0    0  502    0  0.00000000000E+00 -0.00000000000E+00 -0.47582463865E+03  0.47582463865E+03  0.00000000000E+00 0. -1.
         23    2    1    2    0    0  0.26480170499E+02 -0.65790483264E+02  0.33047982759E+02  0.12207513497E+03  0.93704761331E+02 0.  0.
         23    2    1    2    0    0 -0.37948799638E+02  0.84258705445E+02  0.15537852132E+02  0.13044127336E+03  0.90740619960E+02 0.  0.
        -11    1    3    3    0    0  0.52583031094E+02 -0.73395912314E+02  0.24044267330E+02  0.93434800235E+02  0.00000000000E+00 0. -1.
         11    1    3    3    0    0 -0.26102860595E+02  0.76054290505E+01  0.90037154291E+01  0.28640334737E+02  0.00000000000E+00 0.  1.
        -11    1    4    4    0    0  0.63101240110E+00  0.57588894637E+02  0.46687176435E+02  0.74138865689E+02  0.00000000000E+00 0.  1.
         11    1    4    4    0    0 -0.38579812039E+02  0.26669810808E+02 -0.31149324303E+02  0.56302407675E+02  0.00000000000E+00 0. -1.
         21    1    1    2  502  503  0.27720934046E+02 -0.40531173737E+02 -0.36731116990E+03  0.37057890086E+03  0.00000000000E+00 0. -1.
         21    1    1    2  503  501 -0.16252304907E+02  0.22062951556E+02  0.33285870556E+02  0.43114503648E+02  0.00000000000E+00 0.  1.
<scales pt_clust_5="13000.00000" pt_clust_6="13000.00000" pt_clust_7="13000.00000" pt_clust_8="13000.00000" pt_clust_9="48.81022" pt_clust_10="27.40276"></scales>
<clustering>
<clus scale="   27.403">  1 10  2 -1</clus>
<clus scale="   48.810">  2  9  1 -1</clus>
<clus scale="   90.741">  7  8 -1 -1</clus>
<clus scale="   93.705">  5  6 -1 -1</clus>
<clus scale="  118.183">  2  7  1 -1</clus>
<clus scale="   48.810">  2  5  1 -1</clus>
</clustering>
</event>
<event>
10    2  0.2445576E-006  0.1769337E+03  0.7546771E-02  0.1170830E+00
          2   -1    0    0  502    0  0.00000000000E+00  0.00000000000E+00  0.24897087613E+03  0.24897087613E+03  0.00000000000E+00 0. -1.
         -2   -1    0    0    0  501 -0.00000000000E+00 -0.00000000000E+00 -0.59079335927E+03  0.59079335927E+03  0.00000000000E+00 0.  1.
         23    2    1    2    0    0  0.58972815121E+02 -0.65892554271E+02 -0.34525010497E+03  0.36779450624E+03  0.90860014327E+02 0.  0.
         23    2    1    2    0    0 -0.84280708842E+02  0.15801646785E+03 -0.28161591288E+02  0.20269151379E+03  0.90655019414E+02 0.  0.
        -13    1    3    3    0    0 -0.71656129032E+01 -0.55365633306E+02 -0.20352174785E+03  0.21103980953E+03  0.00000000000E+00 0.  1.
         13    1    3    3    0    0  0.66138428024E+02 -0.10526920965E+02 -0.14172835712E+03  0.15675469671E+03  0.00000000000E+00 0. -1.
        -13    1    4    4    0    0 -0.27659117670E+02  0.11077623291E+03  0.18155571662E+02  0.11561152776E+03  0.00000000000E+00 0. -1.
         13    1    4    4    0    0 -0.56621591171E+02  0.47240234938E+02 -0.46317162950E+02  0.87079986033E+02  0.00000000000E+00 0.  1.
         21    1    1    2  502  503  0.28658803542E+02  0.31657799490E+01  0.12946464824E+03  0.13263651204E+03  0.00000000000E+00 0. -1.
         21    1    1    2  503  501 -0.33509098210E+01 -0.95289693530E+02 -0.97875435119E+02  0.13664170333E+03  0.00000000000E+00 0. -1.
<scales pt_clust_5="13000.00000" pt_clust_6="13000.00000" pt_clust_7="13000.00000" pt_clust_8="13000.00000" pt_clust_9="28.83313" pt_clust_10="94.77908"></scales>
<clustering>
<clus scale="   28.833">  1  9  2 -1</clus>
<clus scale="   90.655">  7  8 -1 -1</clus>
<clus scale="   90.860">  5  6 -1 -1</clus>
<clus scale="   94.779">  2 10  1 -1</clus>
<clus scale="  176.829">  1  7  2 -1</clus>
<clus scale="   28.833">  1  5  2 -1</clus>
</clustering>
</event>
<event>
10    2  0.2445576E-006  0.1410316E+03  0.7546771E-02  0.1212216E+00
         -1   -1    0    0    0  501 -0.00000000000E+00  0.00000000000E+00  0.73557288611E+02  0.73557288611E+02  0.00000000000E+00 0.  1.
          1   -1    0    0  502    0  0.00000000000E+00 -0.00000000000E+00 -0.79994541351E+03  0.79994541351E+03  0.00000000000E+00 0. -1.
         23    2    1    2    0    0 -0.11621750925E+03  0.45925671426E+02 -0.48642963073E+02  0.16195396511E+03  0.90814493365E+02 0.  0.
         23    2    1    2    0    0  0.74877481709E+02 -0.19163354085E+02 -0.57778611487E+03  0.59015577623E+03  0.92049846631E+02 0.  0.
        -11    1    4    4    0    0 -0.84035897464E+00  0.29343791963E+02 -0.11300429621E+03  0.11675502256E+03  0.00000000000E+00 0.  1.
         11    1    4    4    0    0  0.75717840683E+02 -0.48507146047E+02 -0.46478181866E+03  0.47340075367E+03  0.00000000000E+00 0. -1.
        -11    1    3    3    0    0 -0.53628287291E+02 -0.25457793743E+02 -0.22481514852E+02  0.63478429171E+02  0.00000000000E+00 0.  1.
         11    1    3    3    0    0 -0.62589221964E+02  0.71383465169E+02 -0.26161448221E+02  0.98475535939E+02  0.00000000000E+00 0. -1.
         21    1    1    2  502  503  0.32077697697E+02 -0.64523475776E+01 -0.92080356175E+02  0.97721049278E+02  0.00000000000E+00 0. -1.
         21    1    1    2  503  501  0.92623298485E+01 -0.20309969764E+02 -0.78786907789E+01  0.23671911508E+02  0.00000000000E+00 0.  1.
<scales pt_clust_5="13000.00000" pt_clust_6="13000.00000" pt_clust_7="13000.00000" pt_clust_8="13000.00000" pt_clust_9="33.29133" pt_clust_10="22.32231"></scales>
<clustering>
<clus scale="   22.322">  1 10  2 -1</clus>
<clus scale="   33.291">  2  9  1 -1</clus>
<clus scale="   90.814">  7  8 -1 -1</clus>
<clus scale="   92.050">  5  6 -1 -1</clus>
<clus scale="  140.228">  1  7  2 -1</clus>
<clus scale="   33.291">  2  5  1 -1</clus>
</clustering>
</event>
<event>
10    2  0.2445576E-006  0.2152004E+03  0.7546771E-02  0.1138384E+00
         -2   -1    0    0    0  501 -0.00000000000E+00  0.00000000000E+00  0.34292616758E+03  0.34292616758E+03  0.00000000000E+00 0. -1.
          2   -1    0    0  502    0  0.00000000000E+00 -0.00000000000E+00 -0.27188666610E+03  0.27188666610E+03  0.00000000000E+00 0.  1.
         23    2    1    2    0    0 -0.21265581890E+03  0.73092404700E+02  0.99007294699E+02  0.25886722292E+03  0.81515628949E+02 0.  0.
         23    2    1    2    0    0  0.17159941085E+03  0.63617991269E+01  0.35608012644E+02  0.19827277606E+03  0.92505853160E+02 0.  0.
        -13    1    4    4    0    0  0.48283962887E+02  0.44320164923E+02  0.18615083320E+02  0.68133247523E+02  0.00000000000E+00 0. -1.
         13    1    4    4    0    0  0.12331544796E+03 -0.37958365797E+02  0.16992929323E+02  0.13013952854E+03  0.00000000000E+00 0.  1.
        -13    1    3    3    0    0 -0.14301009844E+03  0.85622561271E+02  0.83483707218E+02  0.18642060140E+03  0.00000000000E+00 0. -1.
         13    1    3    3    0    0 -0.69645720462E+02 -0.12530156571E+02  0.15523587481E+02  0.72446621527E+02  0.00000000000E+00 0.  1.
         21    1    1    2  502  503  0.17923377719E+02 -0.81185942715E+02 -0.89990312552E+02  0.12251800323E+03  0.00000000000E+00 0.  1.
         21    1    1    2  503  501  0.23133030331E+02  0.17317388882E+01  0.26414506685E+02  0.35154831464E+02  0.00000000000E+00 0. -1.
<scales pt_clust_5="13000.00000" pt_clust_6="13000.00000" pt_clust_7="13000.00000" pt_clust_8="13000.00000" pt_clust_9="83.32120" pt_clust_10="23.19776"></scales>
<clustering>
<clus scale="   23.198">  1 10  2 -1</clus>
<clus scale="   81.516">  7  8 -1 -1</clus>
<clus scale="   83.321">  2  9  1 -1</clus>
<clus scale="   92.506">  5  6 -1 -1</clus>
<clus scale="  210.710">  1  7  2 -1</clus>
<clus scale="   83.321">  2  5  1 -1</clus>
</clustering>
</event>
<event>
10    2  0.2445576E-006  0.1343991E+03  0.7546771E-02  0.1239859E+00
         -2   -1    0    0    0  501 -0.00000000000E+00  0.00000000000E+00  0.58449577532E+02  0.58449577532E+02  0.00000000000E+00 0.  1.
          2   -1    0    0  502    0  0.00000000000E+00 -0.00000000000E+00 -0.16866773953E+04  0.16866773953E+04  0.00000000000E+00 0. -1.
         23    2    1    2    0    0  0.32776270020E+02 -0.77256834053E+02 -0.24741179901E+03  0.27448370517E+03  0.84177216798E+02 0.  0.
         23    2    1    2    0    0 -0.62896751569E+02 -0.82530134473E+02 -0.73518988628E+03  0.74824240358E+03  0.92710847154E+02 0.  0.
        -13    1    4    4    0    0 -0.54605939485E+01 -0.80060043462E+02 -0.47958427385E+03  0.48625148264E+03  0.00000000000E+00 0.  1.
         13    1    4    4    0    0 -0.57436157620E+02 -0.24700910110E+01 -0.25560561242E+03  0.26199092094E+03  0.00000000000E+00 0. -1.
        -13    1    3    3    0    0  0.55483793150E+02 -0.33788227676E+02 -0.17808815158E+03  0.18956657238E+03  0.00000000000E+00 0. -1.
         13    1    3    3    0    0 -0.22707523130E+02 -0.43468606378E+02 -0.69323647430E+02  0.84917132783E+02  0.00000000000E+00 0.  1.
         21    1    1    2  502  503  0.54082280573E+02  0.76721050612E+02 -0.62697017095E+03  0.63395789130E+03  0.00000000000E+00 0. -1.
         21    1    1    2  503  501 -0.23961799024E+02  0.83065917914E+02 -0.18655961508E+02  0.88442972763E+02  0.00000000000E+00 0. -1.
<scales pt_clust_5="13000.00000" pt_clust_6="13000.00000" pt_clust_7="13000.00000" pt_clust_8="13000.00000" pt_clust_9="97.30265" pt_clust_10="86.45296"></scales>
<clustering>
<clus scale="   84.177">  7  8 -1 -1</clus>
<clus scale="   86.453">  1 10  2 -1</clus>
<clus scale="   91.207">  1  7  2 -1</clus>
<clus scale="   92.711">  5  6 -1 -1</clus>
<clus scale="   97.303">  2  9  1 -1</clus>
<clus scale="   97.303">  2  5  1 -1</clus>
</clustering>
</event>
<event>
10    2  0.2445576E-006  0.1926091E+03  0.7546771E-02  0.1179941E+00
          3   -1    0    0  502    0  0.00000000000E+00  0.00000000000E+00  0.99755913180E+03  0.99755913180E+03  0.00000000000E+00 0. -1.
         -3   -1    0    0    0  501 -0.00000000000E+00 -0.00000000000E+00 -0.20354231967E+03  0.20354231967E+03  0.00000000000E+00 0.  1.
         23    2    1    2    0    0  0.14867168421E+03 -0.12308645953E+03  0.24654965265E+03  0.32595427038E+03  0.90586472218E+02 0.  0.
         23    2    1    2    0    0 -0.11144715962E+02  0.63418535644E+02  0.25212376576E+03  0.27568049174E+03  0.91034196360E+02 0.  0.
        -13    1    4    4    0    0  0.24586012216E+02  0.43355376161E+02  0.54504395870E+02  0.73857225834E+02  0.00000000000E+00 0.  1.
         13    1    4    4    0    0 -0.35730728177E+02  0.20063159483E+02  0.19761936989E+03  0.20182326590E+03  0.00000000000E+00 0. -1.
        -13    1    3    3    0    0  0.92860762919E+02 -0.12643702086E+03  0.17245363647E+03  0.23313021740E+03  0.00000000000E+00 0. -1.
         13    1    3    3    0    0  0.55810921287E+02  0.33505613340E+01  0.74096016180E+02  0.92824052971E+02  0.00000000000E+00 0.  1.
         21    1    1    2  502  503 -0.64251702212E+02 -0.92120260320E+02  0.39021112574E+03  0.40605313230E+03  0.00000000000E+00 0. -1.
         21    1    1    2  503  501 -0.73275266033E+02  0.15178818421E+03 -0.94867732023E+02  0.19341355706E+03  0.00000000000E+00 0.  1.
<scales pt_clust_5="13000.00000" pt_clust_6="13000.00000" pt_clust_7="13000.00000" pt_clust_8="13000.00000" pt_clust_9="90.95001" pt_clust_10="169.97752"></scales>
<clustering>
<clus scale="   90.586">  7  8 -1 -1</clus>
<clus scale="   91.034">  5  6 -1 -1</clus>
<clus scale="  111.505">  1  5  2 -1</clus>
<clus scale="   90.950">  1  9  2 -1</clus>
<clus scale="  169.978">  2 10  1 -1</clus>
<clus scale="  111.505">  1  5  2 -1</clus>
</clustering>
</event>
<event>
10    2  0.2445576E-006  0.1194582E+03  0.7546771E-02  0.1245440E+00
          2   -1    0    0  502    0  0.00000000000E+00  0.00000000000E+00  0.48625504666E+03  0.48625504666E+03  0.00000000000E+00 0. -1.
         -2   -1    0    0    0  501 -0.00000000000E+00 -0.00000000000E+00 -0.54829037763E+02  0.54829037763E+02  0.00000000000E+00 0.  1.
         23    2    1    2    0    0  0.44064761808E+02 -0.78123174388E+02  0.18712134924E+03  0.22880936854E+03  0.96407438401E+02 0.  0.
         23    2    1    2    0    0 -0.62722193157E+02  0.18805682305E+02  0.17560399940E+03  0.20883245336E+03  0.92122211072E+02 0.  0.
        -11    1    3    3    0    0 -0.16492076730E+02 -0.27031930916E+02  0.12262224235E+03  0.12664489016E+03  0.00000000000E+00 0. -1.
         11    1    3    3    0    0  0.60556838538E+02 -0.51091243471E+02  0.64499106894E+02  0.10216447838E+03  0.00000000000E+00 0.  1.
        -13    1    4    4    0    0 -0.86215778499E+02  0.21359958357E+02  0.12964381937E+03  0.15715256340E+03  0.00000000000E+00 0. -1.
         13    1    4    4    0    0  0.23493585342E+02 -0.25542760514E+01  0.45960180025E+02  0.51679889960E+02  0.00000000000E+00 0.  1.
         21    1    1    2  502  503  0.23220549091E+02  0.19582827256E+02  0.51742719357E+02  0.59999916916E+02  0.00000000000E+00 0. -1.
         21    1    1    2  503  501 -0.45631177417E+01  0.39734664826E+02  0.16957940905E+02  0.43442345610E+02  0.00000000000E+00 0. -1.
<scales pt_clust_5="13000.00000" pt_clust_6="13000.00000" pt_clust_7="13000.00000" pt_clust_8="13000.00000" pt_clust_9="30.37566" pt_clust_10="41.21335"></scales>
<clustering>
<clus scale="   30.376">  1  9  2 -1</clus>
<clus scale="   41.213">  2 10  1 -1</clus>
<clus scale="   92.122">  7  8 -1 -1</clus>
<clus scale="   96.407">  5  6 -1 -1</clus>
<clus scale="  116.027">  1  7  2 -1</clus>
<clus scale="   30.376">  1  5  2 -1</clus>
</clustering>
</event>
<event>
10    2  0.2445576E-006  0.1019501E+03  0.7546771E-02  0.1276958E+00
         -2   -1    0    0    0  501 -0.00000000000E+00  0.00000000000E+00  0.43828110459E+02  0.43828110459E+02  0.00000000000E+00 0.  1.
          2   -1    0    0  502    0  0.00000000000E+00 -0.00000000000E+00 -0.69603937255E+03  0.69603937255E+03  0.00000000000E+00 0. -1.
         23    2    1    2    0    0  0.52339116093E+02  0.19893697070E+01 -0.13620895482E+03  0.17139505861E+03  0.89889076517E+02 0.  0.
         23    2    1    2    0    0 -0.19465484911E+02 -0.19368075184E+02 -0.25640058824E+03  0.27359431451E+03  0.91425159815E+02 0.  0.
        -11    1    3    3    0    0 -0.18300496190E+02  0.19878699627E+02 -0.60786439678E+02  0.66521140312E+02  0.00000000000E+00 0. -1.
         11    1    3    3    0    0  0.70639612283E+02 -0.17889329920E+02 -0.75422515139E+02  0.10487391829E+03  0.00000000000E+00 0.  1.
        -13    1    4    4    0    0  0.14101768392E+02 -0.44280769293E+02 -0.81991726166E+02  0.94245899436E+02  0.00000000000E+00 0.  1.
         13    1    4    4    0    0 -0.33567253303E+02  0.24912694109E+02 -0.17440886207E+03  0.17934841508E+03  0.00000000000E+00 0. -1.
         21    1    1    2  502  503 -0.57320246474E+02  0.22072090621E+02 -0.26270704106E+03  0.26979210008E+03  0.00000000000E+00 0. -1.
         21    1    1    2  503  501  0.24446615292E+02 -0.46933851441E+01  0.31053220258E+01  0.25086009811E+02  0.00000000000E+00 0. -1.
<scales pt_clust_5="13000.00000" pt_clust_6="13000.00000" pt_clust_7="13000.00000" pt_clust_8="13000.00000" pt_clust_9="58.50625" pt_clust_10="24.89307"></scales>
<clustering>
<clus scale="   24.893">  1 10  2 -1</clus>
<clus scale="   58.506">  2  9  1 -1</clus>
<clus scale="   89.889">  5  6 -1 -1</clus>
<clus scale="   91.425">  7  8 -1 -1</clus>
<clus scale="  100.575">  1  5  2 -1</clus>
<clus scale="   58.506">  2  5  1 -1</clus>
</clustering>
</event>
<event>
10    2  0.2445576E-006  0.9280838E+02  0.7546771E-02  0.1296339E+00
          2   -1    0    0  502    0  0.00000000000E+00  0.00000000000E+00  0.88803028439E+02  0.88803028439E+02  0.00000000000E+00 0. -1.
         -2   -1    0    0    0  501 -0.00000000000E+00 -0.00000000000E+00 -0.30987133510E+03  0.30987133510E+03  0.00000000000E+00 0.  1.
         23    2    1    2    0    0 -0.27623663724E+02 -0.10120485737E+02 -0.69435526709E+02  0.11908750756E+03  0.92168601262E+02 0.  0.
         23    2    1    2    0    0 -0.34100129707E+02  0.15612351703E+02 -0.35968805900E+02  0.10603288343E+03  0.92426473479E+02 0.  0.
        -11    1    3    3    0    0 -0.49325196281E+02  0.19691995725E+02 -0.61699802174E+02  0.81410166885E+02  0.00000000000E+00 0.  1.
         11    1    3    3    0    0  0.21701532558E+02 -0.29812481462E+02 -0.77357245340E+01  0.37677340675E+02  0.00000000000E+00 0. -1.
        -13    1    4    4    0    0 -0.42950168828E+02 -0.22549634954E+02 -0.44624612867E+02  0.65913269624E+02  0.00000000000E+00 0.  1.
         13    1    4    4    0    0  0.88500391210E+01  0.38161986657E+02  0.86558069671E+01  0.40119613810E+02  0.00000000000E+00 0. -1.
         21    1    1    2  502  503  0.38719373810E+02 -0.35149236758E+02 -0.36035131168E+00  0.52295206339E+02  0.00000000000E+00 0.  1.
         21    1    1    2  503  501  0.23004419621E+02  0.29657370793E+02 -0.11530362274E+03  0.12125876620E+03  0.00000000000E+00 0. -1.
<scales pt_clust_5="13000.00000" pt_clust_6="13000.00000" pt_clust_7="13000.00000" pt_clust_8="13000.00000" pt_clust_9="52.14944" pt_clust_10="37.53349"></scales>
<clustering>
<clus scale="   37.533">  2 10  1 -1</clus>
<clus scale="   52.149">  1  9  2 -1</clus>
<clus scale="   92.169">  5  6 -1 -1</clus>
<clus scale="   92.426">  7  8 -1 -1</clus>
<clus scale="   92.552">  2  5  1 -1</clus>
<clus scale="   52.149">  1  5  2 -1</clus>
</clustering>
</event>
<event>
10    2  0.2445576E-006  0.2044420E+03  0.7546771E-02  0.1146145E+00
         -2   -1    0    0    0  501 -0.00000000000E+00  0.00000000000E+00  0.29622522049E+03  0.29622522049E+03  0.00000000000E+00 0.  1.
          2   -1    0    0  502    0  0.00000000000E+00 -0.00000000000E+00 -0.64345393331E+03  0.64345393331E+03  0.00000000000E+00 0. -1.
         23    2    1    2    0    0  0.12656945869E+03 -0.16324706924E+03  0.11275076823E+03  0.25165710292E+03  0.89157883698E+02 0.  0.
         23    2    1    2    0    0 -0.33313963555E+02  0.14524341521E+03 -0.60270019143E+02  0.18435515167E+03  0.90271129989E+02 0.  0.
        -11    1    3    3    0    0  0.13174409406E+03 -0.13878795587E+03  0.73231237330E+02  0.20489367276E+03  0.00000000000E+00 0.  1.
         11    1    3    3    0    0 -0.51746353763E+01 -0.24459113372E+02  0.39519530896E+02  0.46763430161E+02  0.00000000000E+00 0. -1.
        -11    1    4    4    0    0  0.22524890328E+02  0.49802148827E+02  0.67187387752E+01  0.55070556224E+02  0.00000000000E+00 0.  1.
         11    1    4    4    0    0 -0.55838853883E+02  0.95441266383E+02 -0.66988757919E+02  0.12928459544E+03  0.00000000000E+00 0. -1.
         21    1    1    2  502  503 -0.11601874749E+03  0.11772829098E+02 -0.44097257515E+03  0.45613129832E+03  0.00000000000E+00 0. -1.
         21    1    1    2  503  501  0.22763252359E+02  0.62308249331E+01  0.41263113242E+02  0.47535600888E+02  0.00000000000E+00 0.  1.
<scales pt_clust_5="13000.00000" pt_clust_6="13000.00000" pt_clust_7="13000.00000" pt_clust_8="13000.00000" pt_clust_9="115.95213" pt_clust_10="23.60061"></scales>
<clustering>
<clus scale="   23.601">  1 10  2 -1</clus>
<clus scale="   89.158">  5  6 -1 -1</clus>
<clus scale="   90.271">  7  8 -1 -1</clus>
<clus scale="  115.952">  2  9  1 -1</clus>
<clus scale="  203.953">  1  5  2 -1</clus>
<clus scale="  115.952">  2  5  1 -1</clus>
</clustering>
</event>
<event>
10    2  0.2445576E-006  0.1163668E+03  0.7546771E-02  0.1250369E+00
         -3   -1    0    0    0  501 -0.00000000000E+00  0.00000000000E+00  0.37231736844E+03  0.37231736844E+03  0.00000000000E+00 0.  1.
          3   -1    0    0  502    0  0.00000000000E+00 -0.00000000000E+00 -0.23900404209E+03  0.23900404209E+03  0.00000000000E+00 0. -1.
         23    2    1    2    0    0  0.48998361264E+02 -0.55491640842E+02  0.56007377730E+02  0.13149324415E+03  0.93131548294E+02 0.  0.
         23    2    1    2    0    0 -0.65832082201E+02  0.45634386392E+02  0.13408631565E+02  0.12107268653E+03  0.89791111785E+02 0.  0.
        -11    1    3    3    0    0  0.78309052963E-01 -0.48831979497E+02  0.65010656232E+02  0.81307771938E+02  0.00000000000E+00 0.  1.
         11    1    3    3    0    0  0.48920052211E+02 -0.66596613454E+01 -0.90032785018E+01  0.50185472214E+02  0.00000000000E+00 0. -1.
        -13    1    4    4    0    0 -0.58184089167E+02 -0.71889845051E+01 -0.15130658715E+02  0.60547556215E+02  0.00000000000E+00 0.  1.
         13    1    4    4    0    0 -0.76479930339E+01  0.52823370897E+02  0.28539290280E+02  0.60525130319E+02  0.00000000000E+00 0. -1.
         21    1    1    2  502  503  0.16988078961E+02 -0.31620138010E+02 -0.14315653944E+03  0.14758801692E+03  0.00000000000E+00 0. -1.
         21    1    1    2  503  501 -0.15435802355E+00  0.41477392460E+02  0.20705385649E+03  0.21116746293E+03  0.00000000000E+00 0.  1.
<scales pt_clust_5="13000.00000" pt_clust_6="13000.00000" pt_clust_7="13000.00000" pt_clust_8="13000.00000" pt_clust_9="35.89468" pt_clust_10="40.78338"></scales>
<clustering>
<clus scale="   35.895">  2  9  1 -1</clus>
<clus scale="   40.783">  1 10  2 -1</clus>
<clus scale="   89.791">  7  8 -1 -1</clus>
<clus scale="   93.132">  5  6 -1 -1</clus>
<clus scale="  113.711">  2  7  1 -1</clus>
<clus scale="   35.895">  2  5  1 -1</clus>
</clustering>
</event>
<event>
10    2  0.2445576E-006  0.9370669E+02  0.7546771E-02  0.1294794E+00
         -1   -1    0    0    0  501 -0.00000000000E+00  0.00000000000E+00  0.14519578643E+03  0.14519578643E+03  0.00000000000E+00 0.  1.
          1   -1    0    0  502    0  0.00000000000E+00 -0.00000000000E+00 -0.13440368441E+03  0.13440368441E+03  0.00000000000E+00 0. -1.
         23    2    1    2    0    0 -0.11470310184E+02  0.27390369203E+00  0.50327588830E+02  0.10322986334E+03  0.89397401800E+02 0.  0.
         23    2    1    2    0    0 -0.49230559474E+01  0.52017255780E+02 -0.41337650297E+02  0.11050716969E+03  0.88164629197E+02 0.  0.
        -11    1    3    3    0    0  0.46460457919E+01  0.34015874201E+02 -0.67550607656E+01  0.34989945486E+02  0.00000000000E+00 0. -1.
         11    1    3    3    0    0 -0.16116355976E+02 -0.33741970509E+02  0.57082649595E+02  0.68239917853E+02  0.00000000000E+00 0.  1.
        -13    1    4    4    0    0 -0.13981171200E+02  0.24047435182E+02  0.25344755919E+02  0.37631222935E+02  0.00000000000E+00 0.  1.
         13    1    4    4    0    0  0.90581152528E+01  0.27969820597E+02 -0.66682406217E+02  0.72875946752E+02  0.00000000000E+00 0. -1.
         21    1    1    2  502  503  0.55491534261E+01 -0.20329783559E+02 -0.17135980058E+02  0.27161277876E+02  0.00000000000E+00 0.  1.
         21    1    1    2  503  501  0.10844212705E+02 -0.31961375912E+02  0.18938143552E+02  0.38701159938E+02  0.00000000000E+00 0.  1.
<scales pt_clust_5="13000.00000" pt_clust_6="13000.00000" pt_clust_7="13000.00000" pt_clust_8="13000.00000" pt_clust_9="21.07352" pt_clust_10="35.60276"></scales>
<clustering>
<clus scale="   21.074">  2  9  1 -1</clus>
<clus scale="   35.603">  1 10  2 -1</clus>
<clus scale="   88.165">  7  8 -1 -1</clus>
<clus scale="   89.397">  5  6 -1 -1</clus>
<clus scale="   92.531">  2  7  1 -1</clus>
<clus scale="   21.074">  2  5  1 -1</clus>
</clustering>
</event>
<event>
10    2  0.2445576E-006  0.1936683E+03  0.7546771E-02  0.1155801E+00
          1   -1    0    0  502    0  0.00000000000E+00  0.00000000000E+00  0.65241086011E+03  0.65241086011E+03  0.00000000000E+00 0. -1.
         -1   -1    0    0    0  501 -0.00000000000E+00 -0.00000000000E+00 -0.52476439954E+03  0.52476439954E+03  0.00000000000E+00 0.  1.
         23    2    1    2    0    0 -0.18086109955E+03  0.10244716085E+02 -0.36949435727E+03  0.42309574986E+03  0.98327218805E+02 0.  0.
         23    2    1    2    0    0  0.17310474779E+03  0.59327501265E+02 -0.17885163797E+02  0.20595954547E+03  0.92814056971E+02 0.  0.
        -11    1    4    4    0    0  0.47840411835E+02  0.49541295767E+02 -0.38086970557E+02  0.78699824123E+02  0.00000000000E+00 0.  1.
         11    1    4    4    0    0  0.12526433596E+03  0.97862054981E+01  0.20201806759E+02  0.12725972135E+03  0.00000000000E+00 0. -1.
        -11    1    3    3    0    0 -0.10630394942E+03 -0.13982988092E+02 -0.29908835522E+03  0.31772613655E+03  0.00000000000E+00 0.  1.
         11    1    3    3    0    0 -0.74557150125E+02  0.24227704176E+02 -0.70406002051E+02  0.10536961331E+03  0.00000000000E+00 0. -1.
         21    1    1    2  502  503 -0.15073617990E+02 -0.65799127813E+02  0.52007360511E+03  0.52443616763E+03  0.00000000000E+00 0. -1.
         21    1    1    2  503  501  0.22829969745E+02 -0.37730895376E+01 -0.50476234708E+01  0.23683796696E+02  0.00000000000E+00 0. -1.
<scales pt_clust_5="13000.00000" pt_clust_6="13000.00000" pt_clust_7="13000.00000" pt_clust_8="13000.00000" pt_clust_9="67.49763" pt_clust_10="23.13966"></scales>
<clustering>
<clus scale="   23.140">  2 10  1 -1</clus>
<clus scale="   67.498">  1  9  2 -1</clus>
<clus scale="   92.814">  5  6 -1 -1</clus>
<clus scale="   98.327">  7  8 -1 -1</clus>
<clus scale="  190.928">  1  5  2 -1</clus>
<clus scale="   67.498">  1  5  2 -1</clus>
</clustering>
</event>
<event>
10    2  0.2445576E-006  0.1378633E+03  0.7546771E-02  0.1217402E+00
          2   -1    0    0  502    0  0.00000000000E+00  0.00000000000E+00  0.69122882082E+03  0.69122882082E+03  0.00000000000E+00 0. -1.
         -2   -1    0    0    0  501 -0.00000000000E+00 -0.00000000000E+00 -0.57305973841E+02  0.57305973841E+02  0.00000000000E+00 0.  1.
         23    2    1    2    0    0 -0.27178043446E+01  0.93136622838E+02  0.96087925586E+02  0.16493536907E+03  0.96379300430E+02 0.  0.
         23    2    1    2    0    0 -0.30921984901E+02 -0.11027190750E+03  0.34147865840E+03  0.37161467539E+03  0.91508087525E+02 0.  0.
        -11    1    4    4    0    0 -0.58227873851E+02 -0.88724767122E+02  0.29537536475E+03  0.31386171429E+03  0.00000000000E+00 0.  1.
         11    1    4    4    0    0  0.27305888950E+02 -0.21547140379E+02  0.46103293650E+02  0.57752961095E+02  0.00000000000E+00 0. -1.
        -11    1    3    3    0    0  0.16588206512E+02  0.60156722638E+02  0.10815017556E+03  0.12486176495E+03  0.00000000000E+00 0. -1.
         11    1    3    3    0    0 -0.19306010856E+02  0.32979900201E+02 -0.12062249970E+02  0.40073604115E+02  0.00000000000E+00 0.  1.
         21    1    1    2  502  503  0.48952376261E+01  0.20794107700E+02  0.17420844546E+03  0.17551336341E+03  0.00000000000E+00 0. -1.
         21    1    1    2  503  501  0.28744551620E+02 -0.36588230365E+01  0.22147817533E+02  0.36471386802E+02  0.00000000000E+00 0. -1.
<scales pt_clust_5="13000.00000" pt_clust_6="13000.00000" pt_clust_7="13000.00000" pt_clust_8="13000.00000" pt_clust_9="21.36254" pt_clust_10="29.12805"></scales>
<clustering>
<clus scale="   21.363">  1  9  2 -1</clus>
<clus scale="   29.128">  2 10  1 -1</clus>
<clus scale="   91.508">  5  6 -1 -1</clus>
<clus scale="   96.379">  7  8 -1 -1</clus>
<clus scale="  134.503">  1  5  2 -1</clus>
<clus scale="   21.363">  1  5  2 -1</clus>
</clustering>
</event>
<event>
10    2  0.2445576E-006  0.1063501E+03  0.7546771E-02  0.1268116E+00
         -2   -1    0    0    0  501 -0.00000000000E+00  0.00000000000E+00  0.67226953509E+02  0.67226953509E+02  0.00000000000E+00 0.  1.
          2   -1    0    0  502    0  0.00000000000E+00 -0.00000000000E+00 -0.58500992900E+03  0.58500992900E+03  0.00000000000E+00 0. -1.
         23    2    1    2    0    0 -0.48107124512E+02 -0.28519538249E+02 -0.55143071265E+02  0.12311608170E+03  0.94811137398E+02 0.  0.
         23    2    1    2    0    0  0.18687576458E+01  0.42160775374E+02 -0.11163050206E+03  0.15151472292E+03  0.93350517059E+02 0.  0.
        -11    1    4    4    0    0 -0.32608980344E+02  0.33635983275E+02 -0.16004425257E+02  0.49506227868E+02  0.00000000000E+00 0.  1.
         11    1    4    4    0    0  0.34477737990E+02  0.85247920991E+01 -0.95626076805E+02  0.10200849505E+03  0.00000000000E+00 0. -1.
        -11    1    3    3    0    0 -0.75925771060E+02 -0.25862188430E+02 -0.50512635120E+02  0.94789776919E+02  0.00000000000E+00 0.  1.
         11    1    3    3    0    0  0.27818646549E+02 -0.26573498190E+01 -0.46304361454E+01  0.28326304785E+02  0.00000000000E+00 0. -1.
         21    1    1    2  502  503  0.50838106976E+02  0.16017019708E+02 -0.34220112808E+03  0.34632740304E+03  0.00000000000E+00 0. -1.
         21    1    1    2  503  501 -0.45997401096E+01 -0.29658256833E+02 -0.88082740809E+01  0.31278674840E+02  0.00000000000E+00 0.  1.
<scales pt_clust_5="13000.00000" pt_clust_6="13000.00000" pt_clust_7="13000.00000" pt_clust_8="13000.00000" pt_clust_9="52.82084" pt_clust_10="30.01283"></scales>
<clustering>
<clus scale="   30.013">  1 10  2 -1</clus>
<clus scale="   52.821">  2  9  1 -1</clus>
<clus scale="   93.351">  5  6 -1 -1</clus>
<clus scale="   94.811">  7  8 -1 -1</clus>
<clus scale="  105.050">  2  5  1 -1</clus>
<clus scale="   52.821">  2  5  1 -1</clus>
</clustering>
</event>
<event>
10    2  0.2445576E-006  0.1975351E+03  0.7546771E-02  0.1152331E+00
         -3   -1    0    0    0  501 -0.00000000000E+00  0.00000000000E+00  0.26828053372E+03  0.26828053372E+03  0.00000000000E+00 0.  1.
          3   -1    0    0  502    0  0.00000000000E+00 -0.00000000000E+00 -0.68873100381E+03  0.68873100381E+03  0.00000000000E+00 0. -1.
         23    2    1    2    0    0  0.18036676953E+02  0.20953249867E+03 -0.48210570962E+02  0.23275469870E+03  0.87300062435E+02 0.  0.
         23    2    1    2    0    0 -0.55900115573E+02 -0.82599048895E+02 -0.28604656664E+03  0.31669292214E+03  0.92327367810E+02 0.  0.
        -11    1    4    4    0    0  0.21085224006E+02  0.31136907701E+00 -0.29078586319E+02  0.35920019549E+02  0.00000000000E+00 0. -1.
         11    1    4    4    0    0 -0.76985339579E+02 -0.82910417972E+02 -0.25696798032E+03  0.28077290259E+03  0.00000000000E+00 0.  1.
        -11    1    3    3    0    0 -0.42922203742E+01  0.17442134191E+03 -0.76423882012E+01  0.17464144344E+03  0.00000000000E+00 0.  1.
         11    1    3    3    0    0  0.22328897327E+02  0.35111156764E+02 -0.40568182761E+02  0.58113255266E+02  0.00000000000E+00 0. -1.
         21    1    1    2  502  503  0.24063133778E+01 -0.13096440926E+03 -0.22712235072E+03  0.26218701156E+03  0.00000000000E+00 0. -1.
         21    1    1    2  503  501  0.35457125242E+02  0.40309594887E+01  0.14092901822E+03  0.14537690512E+03  0.00000000000E+00 0.  1.
<scales pt_clust_5="13000.00000" pt_clust_6="13000.00000" pt_clust_7="13000.00000" pt_clust_8="13000.00000" pt_clust_9="130.60796" pt_clust_10="35.68552"></scales>
<clustering>
<clus scale="   35.686">  1 10  2 -1</clus>
<clus scale="   87.300">  7  8 -1 -1</clus>
<clus scale="   92.327">  5  6 -1 -1</clus>
<clus scale="  130.608">  2  9  1 -1</clus>
<clus scale="  195.236">  1  7  2 -1</clus>
<clus scale="  130.608">  2  5  1 -1</clus>
</clustering>
</event>
<event>
10    2  0.2445576E-006  0.1830872E+03  0.7546771E-02  0.1165292E+00
         -1   -1    0    0    0  501 -0.00000000000E+00  0.00000000000E+00  0.20833542462E+03  0.20833542462E+03  0.00000000000E+00 0.  1.
          1   -1    0    0  502    0  0.00000000000E+00 -0.00000000000E+00 -0.57598007734E+03  0.57598007734E+03  0.00000000000E+00 0. -1.
         23    2    1    2    0    0 -0.32324610897E+02  0.15355929556E+03 -0.11406404371E+02  0.18250228379E+03  0.92475076669E+02 0.  0.
         23    2    1    2    0    0  0.15031986810E+02 -0.15376782786E+03 -0.81579602571E+02  0.19595373664E+03  0.88725023726E+02 0.  0.
        -11    1    3    3    0    0  0.12174359479E+02  0.16922856956E+02  0.26662689003E+02  0.33845193177E+02  0.00000000000E+00 0.  1.
         11    1    3    3    0    0 -0.44498970376E+02  0.13663643860E+03 -0.38069093375E+02  0.14865709061E+03  0.00000000000E+00 0. -1.
        -13    1    4    4    0    0  0.27161831497E+02 -0.11248934461E+03 -0.15010568235E+02  0.11669162309E+03  0.00000000000E+00 0.  1.
         13    1    4    4    0    0 -0.12129844687E+02 -0.41278483247E+02 -0.66569034335E+02  0.79262113545E+02  0.00000000000E+00 0. -1.
         21    1    1    2  502  503  0.64551174444E+02 -0.89525373401E+01 -0.32776594566E+03  0.33418186244E+03  0.00000000000E+00 0.  1.
         21    1    1    2  503  501 -0.47258550357E+02  0.91610696416E+01  0.53107299887E+02  0.71677619102E+02  0.00000000000E+00 0. -1.
<scales pt_clust_5="13000.00000" pt_clust_6="13000.00000" pt_clust_7="13000.00000" pt_clust_8="13000.00000" pt_clust_9="64.11245" pt_clust_10="48.13830"></scales>
<clustering>
<clus scale="   48.138">  1 10  2 -1</clus>
<clus scale="   64.112">  2  9  1 -1</clus>
<clus scale="   88.725">  7  8 -1 -1</clus>
<clus scale="   92.475">  5  6 -1 -1</clus>
<clus scale="  181.222">  2  7  1 -1</clus>
<clus scale="   64.112">  2  5  1 -1</clus>
</clustering>
</event>
<event>
10    2  0.2445576E-006  0.1011346E+03  0.7546771E-02  0.1280304E+00
          2   -1    0    0  502    0  0.00000000000E+00  0.00000000000E+00  0.54254758958E+03  0.54254758958E+03  0.00000000000E+00 0. -1.
         -2   -1    0    0    0  501 -0.00000000000E+00 -0.00000000000E+00 -0.51388224200E+02  0.51388224200E+02  0.00000000000E+00 0.  1.
         23    2    1    2    0    0  0.20605443843E+02  0.64716578910E+02  0.12506974721E+03  0.16731613308E+03  0.87974012175E+02 0.  0.
         23    2    1    2    0    0  0.22228416071E+02 -0.10209421464E+02  0.24449988938E+03  0.26268495371E+03  0.92870093309E+02 0.  0.
        -11    1    4    4    0    0  0.24244960926E+02 -0.47026779135E+02  0.18730836923E+03  0.19463751250E+03  0.00000000000E+00 0.  1.
         11    1    4    4    0    0 -0.20165448552E+01  0.36817357671E+02  0.57191520146E+02  0.68047441213E+02  0.00000000000E+00 0. -1.
        -13    1    3    3    0    0  0.49182545133E+02  0.51090152278E+02  0.11304930530E+03  0.13345138378E+03  0.00000000000E+00 0. -1.
         13    1    3    3    0    0 -0.28577101290E+02  0.13626426632E+02  0.12020441916E+02  0.33864749294E+02  0.00000000000E+00 0.  1.
         21    1    1    2  502  503 -0.42114759014E+02 -0.32945149732E+02  0.13016461097E+03  0.14071908814E+03  0.00000000000E+00 0.  1.
         21    1    1    2  503  501 -0.71910089961E+00 -0.21562007713E+02 -0.85748821870E+01  0.23215638851E+02  0.00000000000E+00 0.  1.
<scales pt_clust_5="13000.00000" pt_clust_6="13000.00000" pt_clust_7="13000.00000" pt_clust_8="13000.00000" pt_clust_9="55.58390" pt_clust_10="21.57400"></scales>
<clustering>
<clus scale="   21.574">  2 10  1 -1</clus>
<clus scale="   55.584">  1  9  2 -1</clus>
<clus scale="   87.974">  7  8 -1 -1</clus>
<clus scale="   92.870">  5  6 -1 -1</clus>
<clus scale="   96.658">  2  7  1 -1</clus>
<clus scale="   55.584">  1  5  2 -1</clus>
</clustering>
</event>
<event>
10    2  0.2445576E-006  0.1021149E+03  0.7546771E-02  0.1276376E+00
         -1   -1    0    0    0  501 -0.00000000000E+00  0.00000000000E+00  0.35666516968E+02  0.35666516968E+02  0.00000000000E+00 0.  1.
          1   -1    0    0  502    0  0.00000000000E+00 -0.00000000000E+00 -0.56678776566E+03  0.56678776566E+03  0.00000000000E+00 0. -1.
         23    2    1    2    0    0 -0.33696101043E+02 -0.37760236548E+01 -0.12079304682E+03  0.15625224162E+03  0.93134941187E+02 0.  0.
         23    2    1    2    0    0  0.54302876083E+02  0.41585511810E+01 -0.25133160788E+03  0.27317335516E+03  0.92141244583E+02 0.  0.
        -11    1    3    3    0    0 -0.36778401537E+01  0.42555390809E+02 -0.64875667275E+02  0.77674577562E+02  0.00000000000E+00 0.  1.
         11    1    3    3    0    0 -0.30018260889E+02 -0.46331414464E+02 -0.55917379545E+02  0.78577664054E+02  0.00000000000E+00 0. -1.
        -13    1    4    4    0    0 -0.21096096649E+02 -0.74290874697E+01 -0.11309436471E+03  0.11528474298E+03  0.00000000000E+00 0.  1.
         13    1    4    4    0    0  0.75398972732E+02  0.11587638651E+02 -0.13823724316E+03  0.15788861218E+03  0.00000000000E+00 0. -1.
         21    1    1    2  502  503 -0.17957213435E+02 -0.21318613436E+02 -0.14511849375E+03  0.14777118129E+03  0.00000000000E+00 0. -1.
         21    1    1    2  503  501 -0.26495616057E+01  0.20936085909E+02 -0.13878100243E+02  0.25257504553E+02  0.00000000000E+00 0.  1.
<scales pt_clust_5="13000.00000" pt_clust_6="13000.00000" pt_clust_7="13000.00000" pt_clust_8="13000.00000" pt_clust_9="27.24942" pt_clust_10="21.10308"></scales>
<clustering>
<clus scale="   21.103">  1 10  2 -1</clus>
<clus scale="   27.249">  2  9  1 -1</clus>
<clus scale="   92.141">  7  8 -1 -1</clus>
<clus scale="   93.135">  5  6 -1 -1</clus>
<clus scale="  101.209">  2  7  1 -1</clus>
<clus scale="   27.249">  2  5  1 -1</clus>
</clustering>
</event>
<event>
10    2  0.2445576E-006  0.1320871E+03  0.7546771E-02  0.1235083E+00
          3   -1    0    0  502    0  0.00000000000E+00  0.00000000000E+00  0.32390635896E+03  0.32390635896E+03  0.00000000000E+00 0. -1.
         -3   -1    0    0    0  501 -0.00000000000E+00 -0.00000000000E+00 -0.92715879683E+02  0.92715879683E+02  0.00000000000E+00 0.  1.
         23    2    1    2    0    0  0.21965283170E+01 -0.31502366376E+02  0.40439999079E+02  0.13031306521E+03  0.11978680067E+03 0.  0.
         23    2    1    2    0    0  0.91373871516E+00  0.84921114094E+02  0.66401893543E+02  0.14050084831E+03  0.90104641240E+02 0.  0.
        -11    1    3    3    0    0  0.13723241672E+02 -0.75611930669E+02  0.15672451648E+02  0.78429058149E+02  0.00000000000E+00 0. -1.
         11    1    3    3    0    0 -0.11526713355E+02  0.44109564293E+02  0.24767547430E+02  0.51884007060E+02  0.00000000000E+00 0.  1.
        -13    1    4    4    0    0  0.38406000431E+02  0.76192001087E+02  0.45866468963E+02  0.96870918618E+02  0.00000000000E+00 0.  1.
         13    1    4    4    0    0 -0.37492261716E+02  0.87291130066E+01  0.20535424580E+02  0.43629929695E+02  0.00000000000E+00 0. -1.
         21    1    1    2  502  503 -0.54712868591E+01 -0.21435927005E+02  0.10716541275E+03  0.10942513256E+03  0.00000000000E+00 0. -1.
         21    1    1    2  503  501  0.23610198269E+01 -0.31982820713E+02  0.17183173908E+02  0.36383192561E+02  0.00000000000E+00 0.  1.
<scales pt_clust_5="13000.00000" pt_clust_6="13000.00000" pt_clust_7="13000.00000" pt_clust_8="13000.00000" pt_clust_9="22.12315" pt_clust_10="34.68636"></scales>
<clustering>
<clus scale="   22.123">  1  9  2 -1</clus>
<clus scale="   34.686">  1 10  2 -1</clus>
<clus scale="   90.105">  7  8 -1 -1</clus>
<clus scale="  105.910">  1  7  2 -1</clus>
<clus scale="  119.787">  5  6 -1 -1</clus>
<clus scale="   22.123">  1  5  2 -1</clus>
</clustering>
</event>
<event>
10    2  0.2445576E-006  0.3115738E+03  0.7546771E-02  0.1080103E+00
         -1   -1    0    0    0  501 -0.00000000000E+00  0.00000000000E+00  0.15433617171E+03  0.15433617171E+03  0.00000000000E+00 0.  1.
          1   -1    0    0  502    0  0.00000000000E+00 -0.00000000000E+00 -0.10438800134E+04  0.10438800134E+04  0.00000000000E+00 0. -1.
         23    2    1    2    0    0 -0.15153653205E+02 -0.27120669882E+03 -0.21553274252E+03  0.35799758742E+03  0.89023608147E+02 0.  0.
         23    2    1    2    0    0  0.85825718833E+02  0.31278428495E+03 -0.62492874164E+03  0.71153945344E+03  0.10272486918E+03 0.  0.
        -11    1    3    3    0    0 -0.49356497423E+02 -0.12305132519E+03 -0.84022554467E+02  0.15696331459E+03  0.00000000000E+00 0.  1.
         11    1    3    3    0    0  0.34202844217E+02 -0.14815537363E+03 -0.13151018805E+03  0.20103427282E+03  0.00000000000E+00 0. -1.
        -13    1    4    4    0    0  0.76333715678E+02  0.28305125009E+03 -0.61031962829E+03  0.67707820449E+03  0.00000000000E+00 0. -1.
         13    1    4    4    0    0  0.94920031552E+01  0.29733034866E+02 -0.14609113354E+02  0.34461248951E+02  0.00000000000E+00 0.  1.
         21    1    1    2  502  503 -0.30377357793E+02 -0.24349375877E+02 -0.70016672849E+02  0.80112486223E+02  0.00000000000E+00 0. -1.
         21    1    1    2  503  501 -0.40294707835E+02 -0.17228210254E+02  0.20934315368E+02  0.48566657987E+02  0.00000000000E+00 0. -1.
<scales pt_clust_5="13000.00000" pt_clust_6="13000.00000" pt_clust_7="13000.00000" pt_clust_8="13000.00000" pt_clust_9="38.93168" pt_clust_10="44.35831"></scales>
<clustering>
<clus scale="   38.932">  2  9  1 -1</clus>
<clus scale="   44.358">  1 10  2 -1</clus>
<clus scale="   89.024">  5  6 -1 -1</clus>
<clus scale="  102.725">  7  8 -1 -1</clus>
<clus scale="  307.329">  1  5  2 -1</clus>
<clus scale="   38.932">  2  5  1 -1</clus>
</clustering>
</event>
<event>
10    2  0.2445576E-006  0.1040812E+03  0.7546771E-02  0.1272128E+00
         -1   -1    0    0    0  501 -0.00000000000E+00  0.00000000000E+00  0.25375368099E+03  0.25375368099E+03  0.00000000000E+00 0.  1.
          1   -1    0    0  502    0  0.00000000000E+00 -0.00000000000E+00 -0.16930693531E+03  0.16930693531E+03  0.00000000000E+00 0. -1.
         23    2    1    2    0    0 -0.39262738686E+02  0.58851418130E+02  0.88556769188E+02  0.14618387070E+03  0.92316686560E+02 0.  0.
         23    2    1    2    0    0 -0.19889885966E+02 -0.51289690738E+01 -0.38033471660E+02  0.10231725770E+03  0.92738138701E+02 0.  0.
        -11    1    4    4    0    0 -0.73835915478E+01 -0.35315996584E+02 -0.54785065309E+02  0.65598326349E+02  0.00000000000E+00 0. -1.
         11    1    4    4    0    0 -0.12506294418E+02  0.30187027510E+02  0.16751593649E+02  0.36718931353E+02  0.00000000000E+00 0.  1.
        -11    1    3    3    0    0 -0.31989910465E+02 -0.14803322276E+02  0.67943705555E+01  0.35897857780E+02  0.00000000000E+00 0. -1.
         11    1    3    3    0    0 -0.72728282210E+01  0.73654740406E+02  0.81762398633E+02  0.11028601292E+03  0.00000000000E+00 0.  1.
         21    1    1    2  502  503  0.27735059338E+02 -0.63677856160E+02 -0.49216488348E+02  0.85125587263E+02  0.00000000000E+00 0. -1.
         21    1    1    2  503  501  0.31417565314E+02  0.99554071033E+01  0.83139936502E+02  0.89433900633E+02  0.00000000000E+00 0.  1.
<scales pt_clust_5="13000.00000" pt_clust_6="13000.00000" pt_clust_7="13000.00000" pt_clust_8="13000.00000" pt_clust_9="69.91065" pt_clust_10="32.95715"></scales>
<clustering>
<clus scale="   32.957">  1 10  2 -1</clus>
<clus scale="   69.911">  2  9  1 -1</clus>
<clus scale="   92.317">  7  8 -1 -1</clus>
<clus scale="   92.738">  5  6 -1 -1</clus>
<clus scale="  103.706">  1  7  2 -1</clus>
<clus scale="   69.911">  2  5  1 -1</clus>
</clustering>
</event>
<event>
10    2  0.2445576E-006  0.1098296E+03  0.7546771E-02  0.1261581E+00
         -1   -1    0    0    0  501 -0.00000000000E+00  0.00000000000E+00  0.10925574648E+03  0.10925574648E+03  0.00000000000E+00 0.  1.
          1   -1    0    0  502    0  0.00000000000E+00 -0.00000000000E+00 -0.41227750764E+03  0.41227750764E+03  0.00000000000E+00 0. -1.
         23    2    1    2    0    0  0.61141640245E+02 -0.23208016014E+02  0.27869910887E+02  0.11424526787E+03  0.89433422830E+02 0.  0.
         23    2    1    2    0    0 -0.18707453574E+02  0.67938418240E+02 -0.10622342178E+03  0.15675419736E+03  0.91229740572E+02 0.  0.
        -13    1    3    3    0    0  0.45371977483E+02 -0.56931363024E+02  0.12028676209E+02  0.73786756860E+02  0.00000000000E+00 0.  1.
         13    1    3    3    0    0  0.15769662762E+02  0.33723347010E+02  0.15841234678E+02  0.40458511012E+02  0.00000000000E+00 0. -1.
        -13    1    4    4    0    0 -0.14740395276E+02  0.22828358338E+02 -0.10806841342E+03  0.11143246913E+03  0.00000000000E+00 0. -1.
         13    1    4    4    0    0 -0.39670582978E+01  0.45110059901E+02  0.18449916429E+01  0.45321728233E+02  0.00000000000E+00 0.  1.
         21    1    1    2  502  503 -0.26019098985E+02  0.26612752139E+01 -0.18431465083E+03  0.18616113023E+03  0.00000000000E+00 0.  1.
         21    1    1    2  503  501 -0.16415087686E+02 -0.47391677439E+02 -0.40353599449E+02  0.64372658658E+02  0.00000000000E+00 0.  1.
<scales pt_clust_5="13000.00000" pt_clust_6="13000.00000" pt_clust_7="13000.00000" pt_clust_8="13000.00000" pt_clust_9="26.15484" pt_clust_10="51.87146"></scales>
<clustering>
<clus scale="   26.155">  2  9  1 -1</clus>
<clus scale="   51.871">  2 10  1 -1</clus>
<clus scale="   89.433">  5  6 -1 -1</clus>
<clus scale="   91.230">  7  8 -1 -1</clus>
<clus scale="  108.342">  1  5  2 -1</clus>
<clus scale="   26.155">  2  5  1 -1</clus>
</clustering>
</event>
<event>
10    2  0.2445576E-006  0.1207991E+03  0.7546771E-02  0.1242585E+00
         -2   -1    0    0    0  501 -0.00000000000E+00  0.00000000000E+00  0.13211312213E+03  0.13211312213E+03  0.00000000000E+00 0.  1.
          2   -1    0    0  502    0  0.00000000000E+00 -0.00000000000E+00 -0.95844222387E+03  0.95844222387E+03  0.00000000000E+00 0. -1.
         23    2    1    2    0    0 -0.26197219258E+02  0.52001889311E+02  0.70405520911E+02  0.12940182501E+03  0.91637351295E+02 0.  0.
         23    2    1    2    0    0 -0.53846549399E+01 -0.97997372450E+02 -0.48341108120E+03  0.50217647051E+03  0.94140610742E+02 0.  0.
        -13    1    3    3    0    0 -0.56908214809E+02  0.19767026752E+02  0.23319237045E+02  0.64599280768E+02  0.00000000000E+00 0.  1.
         13    1    3    3    0    0  0.30710995551E+02  0.32234862559E+02  0.47086283866E+02  0.64802544242E+02  0.00000000000E+00 0. -1.
        -13    1    4    4    0    0  0.42135090932E+02 -0.25743472716E+02 -0.18675953581E+03  0.19317664583E+03  0.00000000000E+00 0. -1.
         13    1    4    4    0    0 -0.47519745872E+02 -0.72253899734E+02 -0.29665154539E+03  0.30899982468E+03  0.00000000000E+00 0.  1.
         21    1    1    2  502  503  0.58610080424E+02  0.40162062153E+02 -0.42357101212E+03  0.42948869027E+03  0.00000000000E+00 0. -1.
         21    1    1    2  503  501 -0.27028206226E+02  0.58334209864E+01  0.10247470671E+02  0.29488360201E+02  0.00000000000E+00 0.  1.
<scales pt_clust_5="13000.00000" pt_clust_6="13000.00000" pt_clust_7="13000.00000" pt_clust_8="13000.00000" pt_clust_9="70.55139" pt_clust_10="27.65055"></scales>
<clustering>
<clus scale="   27.651">  1 10  2 -1</clus>
<clus scale="   70.551">  2  9  1 -1</clus>
<clus scale="   91.637">  5  6 -1 -1</clus>
<clus scale="   94.141">  7  8 -1 -1</clus>
<clus scale="  118.859">  1  5  2 -1</clus>
<clus scale="   70.551">  2  5  1 -1</clus>
</clustering>
</event>
<event>
10    2  0.2445576E-006  0.2013375E+03  0.7546771E-02  0.1148792E+00
         -1   -1    0    0    0  501 -0.00000000000E+00  0.00000000000E+00  0.59743069187E+02  0.59743069187E+02  0.00000000000E+00 0.  1.
          1   -1    0    0  502    0  0.00000000000E+00 -0.00000000000E+00 -0.97862626248E+03  0.97862626248E+03  0.00000000000E+00 0. -1.
         23    2    1    2    0    0 -0.21532727891E+02  0.17063547327E+03 -0.27455987063E+03  0.33641666888E+03  0.90625214110E+02 0.  0.
         23    2    1    2    0    0  0.15809907718E+02 -0.17862675530E+03 -0.53557143951E+03  0.57231651254E+03  0.92476769015E+02 0.  0.
        -11    1    4    4    0    0  0.22209920063E-01 -0.82331329262E+02 -0.12057985298E+03  0.14600667524E+03  0.00000000000E+00 0.  1.
         11    1    4    4    0    0  0.15787697798E+02 -0.96295426042E+02 -0.41499158653E+03  0.42630983729E+03  0.00000000000E+00 0. -1.
        -13    1    3    3    0    0  0.31173614781E+02  0.73468230707E+02 -0.14977464274E+03  0.16971098606E+03  0.00000000000E+00 0.  1.
         13    1    3    3    0    0 -0.52706342672E+02  0.97167242563E+02 -0.12478522789E+03  0.16670568282E+03  0.00000000000E+00 0. -1.
         21    1    1    2  502  503  0.20032019666E+02 -0.79511880879E+01 -0.10584563348E+03  0.10801759732E+03  0.00000000000E+00 0.  1.
         21    1    1    2  503  501 -0.14309199493E+02  0.15942470122E+02 -0.29062496729E+01  0.21618552932E+02  0.00000000000E+00 0. -1.
<scales pt_clust_5="13000.00000" pt_clust_6="13000.00000" pt_clust_7="13000.00000" pt_clust_8="13000.00000" pt_clust_9="21.13992" pt_clust_10="21.42231"></scales>
<clustering>
<clus scale="   21.422">  1 10  2 -1</clus>
<clus scale="   21.140">  2  9  1 -1</clus>
<clus scale="   90.625">  7  8 -1 -1</clus>
<clus scale="   92.477">  5  6 -1 -1</clus>
<clus scale="  200.494">  1  7  2 -1</clus>
<clus scale="   21.140">  2  5  1 -1</clus>
</clustering>
</event>
<event>
10    2  0.2445576E-006  0.1395329E+03  0.7546771E-02  0.1214220E+00
          1   -1    0    0  502    0  0.00000000000E+00  0.00000000000E+00  0.22428624467E+03  0.22428624467E+03  0.00000000000E+00 0. -1.
         -1   -1    0    0    0  501 -0.00000000000E+00 -0.00000000000E+00 -0.31615067364E+03  0.31615067364E+03  0.00000000000E+00 0.  1.
         23    2    1    2    0    0 -0.56097252832E+02 -0.14543155897E+03 -0.35231138809E+02  0.18268683251E+03  0.88521215041E+02 0.  0.
         23    2    1    2    0    0 -0.29276735485E+01  0.10050250174E+03  0.32587917182E+02  0.13864236030E+03  0.89724063636E+02 0.  0.
        -11    1    4    4    0    0 -0.41468666722E+02  0.28501539667E+02  0.26185480647E+02  0.56724487479E+02  0.00000000000E+00 0. -1.
         11    1    4    4    0    0  0.38540993173E+02  0.72000962070E+02  0.64024365353E+01  0.81917872820E+02  0.00000000000E+00 0.  1.
        -13    1    3    3    0    0 -0.43244283413E+02 -0.42343765768E+02  0.21612093398E+02  0.64266205180E+02  0.00000000000E+00 0.  1.
         13    1    3    3    0    0 -0.12852969419E+02 -0.10308779320E+03 -0.56843232207E+02  0.11842062733E+03  0.00000000000E+00 0. -1.
         21    1    1    2  502  503  0.73782225244E+01 -0.32121175711E+02  0.45107266718E+02  0.55864779669E+02  0.00000000000E+00 0. -1.
         21    1    1    2  503  501  0.51646703856E+02  0.77050232945E+02 -0.13432847406E+03  0.16324294582E+03  0.00000000000E+00 0.  1.
<scales pt_clust_5="13000.00000" pt_clust_6="13000.00000" pt_clust_7="13000.00000" pt_clust_8="13000.00000" pt_clust_9="32.95767" pt_clust_10="90.90261"></scales>
<clustering>
<clus scale="   32.958">  1  9  2 -1</clus>
<clus scale="   88.521">  7  8 -1 -1</clus>
<clus scale="   89.724">  5  6 -1 -1</clus>
<clus scale="   90.903">  2 10  1 -1</clus>
<clus scale="  138.763">  2  7  1 -1</clus>
<clus scale="   32.958">  1  5  2 -1</clus>
</clustering>
</event>
<event>
10    2  0.2445576E-006  0.1787376E+03  0.7546771E-02  0.1170272E+00
          1   -1    0    0  503    0  0.00000000000E+00  0.00000000000E+00  0.23062545175E+03  0.23062545175E+03  0.00000000000E+00 0. -1.
         -1   -1    0    0    0  501 -0.00000000000E+00 -0.00000000000E+00 -0.56354116064E+03  0.56354116064E+03  0.00000000000E+00 0.  1.
         23    2    1    2    0    0 -0.39220673110E+02 -0.12731218515E+03 -0.41898455445E+02  0.16673976057E+03  0.91104409882E+02 0.  0.
         23    2    1    2    0    0 -0.21235923768E+02  0.16801152537E+03  0.10077074463E+03  0.21300056215E+03  0.80843425123E+02 0.  0.
        -13    1    4    4    0    0 -0.47425124879E+02  0.62379082178E+02  0.49615247217E+02  0.92746779565E+02  0.00000000000E+00 0.  1.
         13    1    4    4    0    0  0.26189201111E+02  0.10563244319E+03  0.51155497417E+02  0.12025378258E+03  0.00000000000E+00 0. -1.
        -13    1    3    3    0    0 -0.40602422988E+02 -0.48628971044E+02  0.20200838511E+02  0.66493664764E+02  0.00000000000E+00 0. -1.
         13    1    3    3    0    0  0.13817498783E+01 -0.78683214105E+02 -0.62099293956E+02  0.10024609581E+03  0.00000000000E+00 0.  1.
         21    1    1    2  502  501 -0.12568436786E+02 -0.22404113828E+02 -0.14090536031E+02  0.29299370732E+02  0.00000000000E+00 0. -1.
         21    1    1    2  503  502  0.73025033663E+02 -0.18295226393E+02 -0.37769746205E+03  0.38512691894E+03  0.00000000000E+00 0.  1.
<scales pt_clust_5="13000.00000" pt_clust_6="13000.00000" pt_clust_7="13000.00000" pt_clust_8="13000.00000" pt_clust_9="25.68871" pt_clust_10="72.65869"></scales>
<clustering>
<clus scale="   25.689">  2  9  1 -1</clus>
<clus scale="   72.659">  2 10  1 -1</clus>
<clus scale="   80.843">  5  6 -1 -1</clus>
<clus scale="   91.104">  7  8 -1 -1</clus>
<clus scale="  173.732">  1  5  2 -1</clus>
<clus scale="  173.732">  1  5  2 -1</clus>
</clustering>
</event>
<event>
10    2  0.2445576E-006  0.2201305E+03  0.7546771E-02  0.1133988E+00
          2   -1    0    0  502    0  0.00000000000E+00  0.00000000000E+00  0.12332169419E+04  0.12332169419E+04  0.00000000000E+00 0. -1.
         -2   -1    0    0    0  501 -0.00000000000E+00 -0.00000000000E+00 -0.59381916843E+02  0.59381916843E+02  0.00000000000E+00 0.  1.
         23    2    1    2    0    0 -0.16219322708E+03 -0.15517171757E+03  0.61399983157E+03  0.66035624856E+03  0.93218437019E+02 0.  0.
         23    2    1    2    0    0  0.12421473524E+03  0.12979643799E+03  0.53274654468E+03  0.56948242272E+03  0.90636268416E+02 0.  0.
        -13    1    3    3    0    0 -0.16393419340E+01 -0.50359379390E+02  0.10567590224E+03  0.11707327128E+03  0.00000000000E+00 0.  1.
         13    1    3    3    0    0 -0.16055388515E+03 -0.10481233818E+03  0.50832392933E+03  0.54328297728E+03  0.00000000000E+00 0. -1.
        -13    1    4    4    0    0  0.49294189023E+02  0.34759506121E+02  0.31165001891E+03  0.31743326011E+03  0.00000000000E+00 0. -1.
         13    1    4    4    0    0  0.74920546214E+02  0.95036931871E+02  0.22109652576E+03  0.25204916260E+03  0.00000000000E+00 0.  1.
         21    1    1    2  502  503  0.17398622931E+02  0.29886893621E+02  0.22316787318E+02  0.41157957753E+02  0.00000000000E+00 0.  1.
         21    1    1    2  503  501  0.20579868915E+02 -0.45116140397E+01  0.47718614733E+01  0.21602229693E+02  0.00000000000E+00 0.  1.
<scales pt_clust_5="13000.00000" pt_clust_6="13000.00000" pt_clust_7="13000.00000" pt_clust_8="13000.00000" pt_clust_9="35.96699" pt_clust_10="21.06859"></scales>
<clustering>
<clus scale="   21.069">  2 10  1 -1</clus>
<clus scale="   35.967">  2  9  1 -1</clus>
<clus scale="   90.636">  7  8 -1 -1</clus>
<clus scale="   93.218">  5  6 -1 -1</clus>
<clus scale="  219.050">  1  7  2 -1</clus>
<clus scale="  219.050">  1  5  2 -1</clus>
</clustering>
</event>
<event>
10    2  0.2445576E-006  0.1406107E+03  0.7546771E-02  0.1213341E+00
          2   -1    0    0  502    0  0.00000000000E+00  0.00000000000E+00  0.21014153751E+03  0.21014153751E+03  0.00000000000E+00 0. -1.
         -2   -1    0    0    0  501 -0.00000000000E+00 -0.00000000000E+00 -0.15411027054E+03  0.15411027054E+03  0.00000000000E+00 0.  1.
         23    2    1    2    0    0 -0.24346807373E+02 -0.94136693730E+02 -0.24908250520E+02  0.13626852577E+03  0.92164017039E+02 0.  0.
         23    2    1    2    0    0  0.24389226848E+02  0.10941887780E+03  0.84329148290E+02  0.16579063679E+03  0.88361783551E+02 0.  0.
        -13    1    3    3    0    0  0.44454172108E+01 -0.48400496413E+02  0.31681270712E+02  0.58017865362E+02  0.00000000000E+00 0. -1.
         13    1    3    3    0    0 -0.28792224584E+02 -0.45736197317E+02 -0.56589521232E+02  0.78250660412E+02  0.00000000000E+00 0.  1.
        -13    1    4    4    0    0 -0.61477475117E+01  0.95823590210E+02  0.90328202462E+02  0.13182996397E+03  0.00000000000E+00 0.  1.
         13    1    4    4    0    0  0.30536974360E+02  0.13595287586E+02 -0.59990541719E+01  0.33960672823E+02  0.00000000000E+00 0. -1.
         21    1    1    2  502  503  0.19837400447E+02 -0.77630574894E+01  0.20950845165E+02  0.29878511195E+02  0.00000000000E+00 0.  1.
         21    1    1    2  503  501 -0.19879819922E+02 -0.75191265768E+01 -0.24340475967E+02  0.32314134290E+02  0.00000000000E+00 0.  1.
<scales pt_clust_5="13000.00000" pt_clust_6="13000.00000" pt_clust_7="13000.00000" pt_clust_8="13000.00000" pt_clust_9="20.74871" pt_clust_10="21.25428"></scales>
<clustering>
<clus scale="   21.254">  2 10  1 -1</clus>
<clus scale="   20.749">  1  9  2 -1</clus>
<clus scale="   88.362">  7  8 -1 -1</clus>
<clus scale="   92.164">  5  6 -1 -1</clus>
<clus scale="  138.148">  1  7  2 -1</clus>
<clus scale="   20.749">  1  5  2 -1</clus>
</clustering>
</event>
<event>
10    2  0.2445576E-006  0.9921480E+02  0.7546771E-02  0.1288145E+00
          3   -1    0    0  502    0  0.00000000000E+00  0.00000000000E+00  0.95036439429E+02  0.95036439429E+02  0.00000000000E+00 0. -1.
         -3   -1    0    0    0  501 -0.00000000000E+00 -0.00000000000E+00 -0.26863231077E+03  0.26863231077E+03  0.00000000000E+00 0.  1.
         23    2    1    2    0    0 -0.20336362612E+02 -0.33914421968E+02 -0.18841515647E+03  0.21345184064E+03  0.92182760987E+02 0.  0.
         23    2    1    2    0    0  0.15902682897E+02  0.22690530883E+02 -0.59816291735E+01  0.85146712779E+02  0.80289646247E+02 0.  0.
        -11    1    4    4    0    0 -0.26175082245E+02  0.26462971211E+02  0.12177622226E+02  0.39162715163E+02  0.00000000000E+00 0.  1.
         11    1    4    4    0    0  0.42077765142E+02 -0.37724403284E+01 -0.18159251400E+02  0.45983997616E+02  0.00000000000E+00 0. -1.
        -11    1    3    3    0    0 -0.38013292851E+02 -0.53825909663E+02 -0.16616095417E+03  0.17875038930E+03  0.00000000000E+00 0.  1.
         11    1    3    3    0    0  0.17676930240E+02  0.19911487695E+02 -0.22254202295E+02  0.34701451335E+02  0.00000000000E+00 0. -1.
         21    1    1    2  502  503  0.20272034338E+02 -0.57765180179E+01  0.32746488516E+02  0.38944268471E+02  0.00000000000E+00 0.  1.
         21    1    1    2  503  501 -0.15838354624E+02  0.17000409103E+02 -0.11945574217E+02  0.26125928314E+02  0.00000000000E+00 0.  1.
<scales pt_clust_5="13000.00000" pt_clust_6="13000.00000" pt_clust_7="13000.00000" pt_clust_8="13000.00000" pt_clust_9="21.07898" pt_clust_10="21.11389"></scales>
<clustering>
<clus scale="   21.079">  1  9  2 -1</clus>
<clus scale="   21.114">  1 10  2 -1</clus>
<clus scale="   80.290">  5  6 -1 -1</clus>
<clus scale="   88.274">  1  5  2 -1</clus>
<clus scale="   92.183">  7  8 -1 -1</clus>
<clus scale="   21.079">  1  5  2 -1</clus>
</clustering>
</event>
<event>
10    2  0.2445576E-006  0.1017514E+03  0.7546771E-02  0.1283267E+00
         -1   -1    0    0    0  501 -0.00000000000E+00  0.00000000000E+00  0.36935563672E+02  0.36935563672E+02  0.00000000000E+00 0.  1.
          1   -1    0    0  502    0  0.00000000000E+00 -0.00000000000E+00 -0.69629534991E+03  0.69629534991E+03  0.00000000000E+00 0. -1.
         23    2    1    2    0    0 -0.18834129680E+02 -0.43981191271E+02 -0.13355149192E+03  0.16333906813E+03  0.80960364113E+02 0.  0.
         23    2    1    2    0    0  0.10715417168E+02  0.36255946093E+02 -0.36695314585E+03  0.38071241799E+03  0.94117055682E+02 0.  0.
        -11    1    3    3    0    0  0.97784418038E-01 -0.22740921225E+02  0.38131425300E+01  0.23058601777E+02  0.00000000000E+00 0.  1.
         11    1    3    3    0    0 -0.18931914098E+02 -0.21240270046E+02 -0.13736463445E+03  0.14028046635E+03  0.00000000000E+00 0. -1.
        -13    1    4    4    0    0 -0.25654233814E+01  0.66919058709E+02 -0.21785689376E+03  0.22791745868E+03  0.00000000000E+00 0. -1.
         13    1    4    4    0    0  0.13280840549E+02 -0.30663112616E+02 -0.14909625210E+03  0.15279495931E+03  0.00000000000E+00 0.  1.
         21    1    1    2  502  503  0.16088270501E+02 -0.13938177508E+02 -0.16412751607E+03  0.16550210504E+03  0.00000000000E+00 0. -1.
         21    1    1    2  503  501 -0.79695579888E+01  0.21663422686E+02  0.52723676034E+01  0.23677322424E+02  0.00000000000E+00 0.  1.
<scales pt_clust_5="13000.00000" pt_clust_6="13000.00000" pt_clust_7="13000.00000" pt_clust_8="13000.00000" pt_clust_9="21.28627" pt_clust_10="22.76087"></scales>
<clustering>
<clus scale="   21.286">  2  9  1 -1</clus>
<clus scale="   22.761">  1 10  2 -1</clus>
<clus scale="   80.960">  5  6 -1 -1</clus>
<clus scale="   89.721">  1  5  2 -1</clus>
<clus scale="   94.117">  7  8 -1 -1</clus>
<clus scale="   21.286">  2  5  1 -1</clus>
</clustering>
</event>
<event>
10    2  0.2445576E-006  0.1356098E+03  0.7546771E-02  0.1219554E+00
         -1   -1    0    0    0  501 -0.00000000000E+00  0.00000000000E+00  0.25625227508E+03  0.25625227508E+03  0.00000000000E+00 0.  1.
          1   -1    0    0  502    0  0.00000000000E+00 -0.00000000000E+00 -0.25465605483E+03  0.25465605483E+03  0.00000000000E+00 0. -1.
         23    2    1    2    0    0  0.10490082025E+03 -0.62376003391E+02  0.15997666714E+03  0.22051437482E+03  0.90217002743E+02 0.  0.
         23    2    1    2    0    0 -0.11302226393E+03  0.15389060503E+02 -0.15951142411E+03  0.21551298434E+03  0.89392934114E+02 0.  0.
        -11    1    3    3    0    0  0.40352987435E+02  0.21431546983E+02  0.54691448359E+02  0.71265905766E+02  0.00000000000E+00 0.  1.
         11    1    3    3    0    0  0.64547832819E+02 -0.83807550374E+02  0.10528521878E+03  0.14924846906E+03  0.00000000000E+00 0. -1.
        -13    1    4    4    0    0 -0.99309711878E+02 -0.19130769369E+02 -0.84426539345E+02  0.13174310515E+03  0.00000000000E+00 0. -1.
         13    1    4    4    0    0 -0.13712552051E+02  0.34519829873E+02 -0.75084884764E+02  0.83769879182E+02  0.00000000000E+00 0.  1.
         21    1    1    2  502  503  0.30356779559E+02  0.30443207283E+02 -0.11380707875E+02  0.44472951854E+02  0.00000000000E+00 0.  1.
         21    1    1    2  503  501 -0.22235335885E+02  0.16543735605E+02  0.12511685089E+02  0.30408018900E+02  0.00000000000E+00 0.  1.
<scales pt_clust_5="13000.00000" pt_clust_6="13000.00000" pt_clust_7="13000.00000" pt_clust_8="13000.00000" pt_clust_9="42.75497" pt_clust_10="27.71471"></scales>
<clustering>
<clus scale="   27.715">  1 10  2 -1</clus>
<clus scale="   42.755">  2  9  1 -1</clus>
<clus scale="   89.393">  7  8 -1 -1</clus>
<clus scale="   90.217">  5  6 -1 -1</clus>
<clus scale="  135.063">  2  7  1 -1</clus>
<clus scale="   42.755">  2  5  1 -1</clus>
</clustering>
</event>
<event>
10    2  0.2445576E-006  0.1353741E+03  0.7546771E-02  0.1221100E+00
         -4   -1    0    0    0  501 -0.00000000000E+00  0.00000000000E+00  0.27378557509E+03  0.27378557509E+03  0.00000000000E+00 0.  1.
          4   -1    0    0  502    0  0.00000000000E+00 -0.00000000000E+00 -0.20760359317E+03  0.20760359317E+03  0.00000000000E+00 0. -1.
         23    2    1    2    0    0  0.21137484299E+02 -0.46780786782E+02  0.11321305063E+03  0.15172469378E+03  0.86993980329E+02 0.  0.
         23    2    1    2    0    0  0.33407014107E+02  0.97980889038E+02 -0.88194688025E+02  0.16466104598E+03  0.92836813055E+02 0.  0.
        -11    1    4    4    0    0  0.49183453264E+02  0.39507571056E+02 -0.71549542577E+01  0.63490578955E+02  0.00000000000E+00 0.  1.
         11    1    4    4    0    0 -0.15776439157E+02  0.58473317983E+02 -0.81039733767E+02  0.10117046702E+03  0.00000000000E+00 0. -1.
        -11    1    3    3    0    0  0.17118168879E+02 -0.70642746852E+02  0.63844854057E+02  0.96744998724E+02  0.00000000000E+00 0.  1.
         11    1    3    3    0    0  0.40193154203E+01  0.23861960070E+02  0.49368196575E+02  0.54979695051E+02  0.00000000000E+00 0. -1.
         21    1    1    2  502  503 -0.41594853170E+02  0.37301071301E+02 -0.16894675535E+02  0.58368928308E+02  0.00000000000E+00 0. -1.
         21    1    1    2  503  501 -0.12949645236E+02 -0.88501173557E+02  0.58058294848E+02  0.10663450020E+03  0.00000000000E+00 0.  1.
<scales pt_clust_5="13000.00000" pt_clust_6="13000.00000" pt_clust_7="13000.00000" pt_clust_8="13000.00000" pt_clust_9="55.87040" pt_clust_10="85.28998"></scales>
<clustering>
<clus scale="   55.870">  2  9  1 -1</clus>
<clus scale="   85.290">  1 10  2 -1</clus>
<clus scale="   86.994">  7  8 -1 -1</clus>
<clus scale="   92.837">  5  6 -1 -1</clus>
<clus scale="  131.436">  1  7  2 -1</clus>
<clus scale="   55.870">  2  5  1 -1</clus>
</clustering>
</event>
<event>
10    2  0.2445576E-006  0.1064838E+03  0.7546771E-02  0.1275093E+00
         -1   -1    0    0    0  501 -0.00000000000E+00  0.00000000000E+00  0.13857895837E+03  0.13857895837E+03  0.00000000000E+00 0.  1.
          1   -1    0    0  502    0  0.00000000000E+00 -0.00000000000E+00 -0.16334247576E+03  0.16334247576E+03  0.00000000000E+00 0. -1.
         23    2    1    2    0    0  0.27372348567E+01 -0.10608365727E+02 -0.12094735855E+01  0.90473846751E+02  0.89799912257E+02 0.  0.
         23    2    1    2    0    0  0.36539900574E+02 -0.61701619214E+01 -0.62056748985E+02  0.12751094218E+03  0.10504648994E+03 0.  0.
        -11    1    3    3    0    0  0.77636376582E+01 -0.29968840196E+02  0.36455658144E+02  0.47826984674E+02  0.00000000000E+00 0.  1.
         11    1    3    3    0    0 -0.50264028015E+01  0.19360474469E+02 -0.37665131729E+02  0.42646862076E+02  0.00000000000E+00 0. -1.
        -13    1    4    4    0    0  0.52381666075E+02  0.37070769064E+02 -0.45106705035E+02  0.78439120972E+02  0.00000000000E+00 0. -1.
         13    1    4    4    0    0 -0.15841765501E+02 -0.43240930985E+02 -0.16950043951E+02  0.49071821207E+02  0.00000000000E+00 0.  1.
         21    1    1    2  502  503 -0.12908977252E+02  0.23029676341E+02 -0.10118541521E+02  0.28273531236E+02  0.00000000000E+00 0. -1.
         21    1    1    2  503  501 -0.26368158178E+02 -0.62511486922E+01  0.48621246697E+02  0.55663113963E+02  0.00000000000E+00 0.  1.
<scales pt_clust_5="13000.00000" pt_clust_6="13000.00000" pt_clust_7="13000.00000" pt_clust_8="13000.00000" pt_clust_9="26.40090" pt_clust_10="27.28311"></scales>
<clustering>
<clus scale="   26.401">  2  9  1 -1</clus>
<clus scale="   27.283">  1 10  2 -1</clus>
<clus scale="   89.800">  5  6 -1 -1</clus>
<clus scale="   91.477">  1  5  2 -1</clus>
<clus scale="  105.046">  7  8 -1 -1</clus>
<clus scale="   26.401">  2  5  1 -1</clus>
</clustering>
</event>
<event>
10    2  0.2445576E-006  0.1323818E+03  0.7546771E-02  0.1225198E+00
         -1   -1    0    0    0  501 -0.00000000000E+00  0.00000000000E+00  0.83746127749E+02  0.83746127749E+02  0.00000000000E+00 0.  1.
          1   -1    0    0  502    0  0.00000000000E+00 -0.00000000000E+00 -0.38510169247E+03  0.38510169247E+03  0.00000000000E+00 0. -1.
         23    2    1    2    0    0 -0.18202157302E+02 -0.94897169019E+02 -0.39032308495E+02  0.13499878005E+03  0.85815839391E+02 0.  0.
         23    2    1    2    0    0  0.17234794067E+02  0.10700354245E+03 -0.22298577523E+03  0.26403083465E+03  0.90790029581E+02 0.  0.
        -11    1    3    3    0    0  0.26648622630E+02 -0.23905923382E+02  0.10749706596E+02  0.37379117870E+02  0.00000000000E+00 0.  1.
         11    1    3    3    0    0 -0.44850779932E+02 -0.70991245638E+02 -0.49782015091E+02  0.97619662181E+02  0.00000000000E+00 0. -1.
        -11    1    4    4    0    0  0.52683644282E+02  0.74700105310E+02 -0.16640500332E+03  0.18985862434E+03  0.00000000000E+00 0.  1.
         11    1    4    4    0    0 -0.35448850215E+02  0.32303437136E+02 -0.56580771905E+02  0.74172210307E+02  0.00000000000E+00 0. -1.
         21    1    1    2  502  503  0.18388823203E+02 -0.24608756555E+02 -0.37235074369E+02  0.48272046583E+02  0.00000000000E+00 0. -1.
         21    1    1    2  503  501 -0.17421459968E+02  0.12502383128E+02 -0.21024066340E+01  0.21546158937E+02  0.00000000000E+00 0.  1.
<scales pt_clust_5="13000.00000" pt_clust_6="13000.00000" pt_clust_7="13000.00000" pt_clust_8="13000.00000" pt_clust_9="29.20028" pt_clust_10="21.44334"></scales>
<clustering>
<clus scale="   21.443">  1 10  2 -1</clus>
<clus scale="   29.200">  2  9  1 -1</clus>
<clus scale="   85.816">  5  6 -1 -1</clus>
<clus scale="   90.790">  7  8 -1 -1</clus>
<clus scale="  129.021">  1  5  2 -1</clus>
<clus scale="   29.200">  2  5  1 -1</clus>
</clustering>
</event>
<event>
10    2  0.2445576E-006  0.1105759E+03  0.7546771E-02  0.1266727E+00
         -2   -1    0    0    0  501 -0.00000000000E+00  0.00000000000E+00  0.72613310338E+02  0.72613310338E+02  0.00000000000E+00 0.  1.
          2   -1    0    0  502    0  0.00000000000E+00 -0.00000000000E+00 -0.33496073335E+03  0.33496073335E+03  0.00000000000E+00 0. -1.
         23    2    1    2    0    0  0.10364838915E+02  0.52545939124E+02 -0.21419954370E+02  0.10083887662E+03  0.82711299034E+02 0.  0.
         23    2    1    2    0    0 -0.17939749454E+02 -0.36504484190E+02 -0.91008707899E+02  0.14066292775E+03  0.99242442292E+02 0.  0.
        -11    1    4    4    0    0 -0.59135610122E+02 -0.26230962337E+02 -0.57964630741E+02  0.86861856914E+02  0.00000000000E+00 0.  1.
         11    1    4    4    0    0  0.41195860668E+02 -0.10273521852E+02 -0.33044077158E+02  0.53801070832E+02  0.00000000000E+00 0. -1.
        -13    1    3    3    0    0 -0.36428615192E+02  0.20897529686E+02 -0.75555709426E+01  0.42671271413E+02  0.00000000000E+00 0.  1.
         13    1    3    3    0    0  0.46793454107E+02  0.31648409438E+02 -0.13864383427E+02  0.58167605203E+02  0.00000000000E+00 0. -1.
         21    1    1    2  502  503 -0.21445791938E+02 -0.42119701964E+01 -0.12249210698E+03  0.12442660068E+03  0.00000000000E+00 0. -1.
         21    1    1    2  503  501  0.29020702477E+02 -0.11829484737E+02 -0.27426653765E+02  0.41645638645E+02  0.00000000000E+00 0.  1.
<scales pt_clust_5="13000.00000" pt_clust_6="13000.00000" pt_clust_7="13000.00000" pt_clust_8="13000.00000" pt_clust_9="21.85550" pt_clust_10="28.42343"></scales>
<clustering>
<clus scale="   21.855">  2  9  1 -1</clus>
<clus scale="   28.423">  2 10  1 -1</clus>
<clus scale="   82.711">  7  8 -1 -1</clus>
<clus scale="   96.016">  1  7  2 -1</clus>
<clus scale="   99.242">  5  6 -1 -1</clus>
<clus scale="   21.855">  2  5  1 -1</clus>
</clustering>
</event>
<event>
10    2  0.2445576E-006  0.4023649E+03  0.7546771E-02  0.1042977E+00
         -1   -1    0    0    0  501 -0.00000000000E+00  0.00000000000E+00  0.17527389359E+03  0.17527389359E+03  0.00000000000E+00 0.  1.
          1   -1    0    0  502    0  0.00000000000E+00 -0.00000000000E+00 -0.14505438521E+04  0.14505438521E+04  0.00000000000E+00 0. -1.
         23    2    1    2    0    0 -0.35270090706E+03 -0.80649269373E+02 -0.48691633403E+03  0.61326999821E+03  0.90057425370E+02 0.  0.
         23    2    1    2    0    0  0.41438595612E+03  0.98967650969E+02 -0.60558484214E+03  0.74597393274E+03  0.90740237680E+02 0.  0.
        -11    1    3    3    0    0 -0.27761040509E+02 -0.31860677607E+02 -0.77832501720E+02  0.88564532810E+02  0.00000000000E+00 0.  1.
         11    1    3    3    0    0 -0.32493986656E+03 -0.48788591766E+02 -0.40908383231E+03  0.52470546540E+03  0.00000000000E+00 0. -1.
        -13    1    4    4    0    0  0.26922788666E+03  0.87190072406E+02 -0.33369448142E+03  0.43753602207E+03  0.00000000000E+00 0. -1.
         13    1    4    4    0    0  0.14515806946E+03  0.11777578563E+02 -0.27189036072E+03  0.30843791067E+03  0.00000000000E+00 0.  1.
         21    1    1    2  502  503 -0.36862594730E+02 -0.50548437890E+02 -0.20900427925E+03  0.21816687239E+03  0.00000000000E+00 0. -1.
         21    1    1    2  503  501 -0.24822454323E+02  0.32230056294E+02  0.26235496918E+02  0.48406942331E+02  0.00000000000E+00 0.  1.
<scales pt_clust_5="13000.00000" pt_clust_6="13000.00000" pt_clust_7="13000.00000" pt_clust_8="13000.00000" pt_clust_9="62.19636" pt_clust_10="40.68084"></scales>
<clustering>
<clus scale="   40.681">  1 10  2 -1</clus>
<clus scale="   62.196">  2  9  1 -1</clus>
<clus scale="   90.057">  5  6 -1 -1</clus>
<clus scale="   90.740">  7  8 -1 -1</clus>
<clus scale="  402.211">  1  5  2 -1</clus>
<clus scale="   62.196">  2  5  1 -1</clus>
</clustering>
</event>
<event>
10    2  0.2445576E-006  0.1161943E+03  0.7546771E-02  0.1253519E+00
         -2   -1    0    0    0  501 -0.00000000000E+00  0.00000000000E+00  0.68452409381E+02  0.68452409381E+02  0.00000000000E+00 0.  1.
          2   -1    0    0  502    0  0.00000000000E+00 -0.00000000000E+00 -0.42489591984E+03  0.42489591984E+03  0.00000000000E+00 0. -1.
         23    2    1    2    0    0  0.29762976752E+01  0.60455268061E+02 -0.10735221363E+03  0.15758664524E+03  0.98210769276E+02 0.  0.
         23    2    1    2    0    0 -0.33671705450E+02 -0.55578402511E+02 -0.14861661078E+03  0.18428599383E+03  0.87473927248E+02 0.  0.
        -11    1    4    4    0    0  0.10624010053E+02 -0.55762832101E+02 -0.47959836214E+02  0.74313585052E+02  0.00000000000E+00 0.  1.
         11    1    4    4    0    0 -0.44295715503E+02  0.18442958985E+00 -0.10065677457E+03  0.10997240878E+03  0.00000000000E+00 0. -1.
        -13    1    3    3    0    0  0.46899999034E+02  0.53048543593E+02 -0.67053675235E+02  0.97518989172E+02  0.00000000000E+00 0.  1.
         13    1    3    3    0    0 -0.43923701359E+02  0.74067244682E+01 -0.40298538393E+02  0.60067656064E+02  0.00000000000E+00 0. -1.
         21    1    1    2  502  503 -0.21569122203E+02 -0.10380048465E+01 -0.96536951775E+02  0.98922634138E+02  0.00000000000E+00 0. -1.
         21    1    1    2  503  501  0.52264529978E+02 -0.38388607031E+01 -0.39377342725E+01  0.52553056015E+02  0.00000000000E+00 0.  1.
<scales pt_clust_5="13000.00000" pt_clust_6="13000.00000" pt_clust_7="13000.00000" pt_clust_8="13000.00000" pt_clust_9="21.59408" pt_clust_10="50.55526"></scales>
<clustering>
<clus scale="   21.594">  2  9  1 -1</clus>
<clus scale="   50.555">  1 10  2 -1</clus>
<clus scale="   87.474">  5  6 -1 -1</clus>
<clus scale="   98.211">  7  8 -1 -1</clus>
<clus scale="  107.273">  2  5  1 -1</clus>
<clus scale="   21.594">  2  5  1 -1</clus>
</clustering>
</event>
<event>
10    2  0.2445576E-006  0.1062236E+03  0.7546771E-02  0.1268014E+00
         -4   -1    0    0    0  501 -0.00000000000E+00  0.00000000000E+00  0.20198682968E+03  0.20198682968E+03  0.00000000000E+00 0.  1.
          4   -1    0    0  502    0  0.00000000000E+00 -0.00000000000E+00 -0.16378811524E+03  0.16378811524E+03  0.00000000000E+00 0. -1.
         23    2    1    2    0    0  0.20786817642E+02 -0.35570537101E+02  0.13380227952E+03  0.16685280352E+03  0.90771433500E+02 0.  0.
         23    2    1    2    0    0 -0.22732645802E+02  0.24278832182E+02 -0.93513945751E+02  0.13496337463E+03  0.91455013882E+02 0.  0.
        -11    1    4    4    0    0 -0.25789562450E+02  0.57673447296E+02 -0.53760712404E+02  0.82955061645E+02  0.00000000000E+00 0. -1.
         11    1    4    4    0    0  0.30569166481E+01 -0.33394615114E+02 -0.39753233347E+02  0.52008312985E+02  0.00000000000E+00 0.  1.
        -11    1    3    3    0    0  0.11470687285E+02 -0.61835942667E+02  0.12060397255E+03  0.13601683230E+03  0.00000000000E+00 0.  1.
         11    1    3    3    0    0  0.93161303570E+01  0.26265405566E+02  0.13198306966E+02  0.30835971221E+02  0.00000000000E+00 0. -1.
         21    1    1    2  502  503 -0.42918265282E+01  0.32901317926E+02 -0.16692331366E+02  0.37142299641E+02  0.00000000000E+00 0. -1.
         21    1    1    2  503  501  0.62376546878E+01 -0.21609613006E+02  0.14602712038E+02  0.26816467126E+02  0.00000000000E+00 0. -1.
<scales pt_clust_5="13000.00000" pt_clust_6="13000.00000" pt_clust_7="13000.00000" pt_clust_8="13000.00000" pt_clust_9="31.92647" pt_clust_10="22.49186"></scales>
<clustering>
<clus scale="   22.492">  1 10  2 -1</clus>
<clus scale="   31.926">  2  9  1 -1</clus>
<clus scale="   90.771">  7  8 -1 -1</clus>
<clus scale="   91.455">  5  6 -1 -1</clus>
<clus scale="  105.636">  1  7  2 -1</clus>
<clus scale="   31.926">  2  5  1 -1</clus>
</clustering>
</event>
<event>
10    2  0.2445576E-006  0.9944517E+02  0.7546771E-02  0.1282281E+00
          1   -1    0    0  502    0  0.00000000000E+00  0.00000000000E+00  0.19710239082E+03  0.19710239082E+03  0.00000000000E+00 0. -1.
         -1   -1    0    0    0  501 -0.00000000000E+00 -0.00000000000E+00 -0.11382387400E+03  0.11382387400E+03  0.00000000000E+00 0.  1.
         23    2    1    2    0    0  0.25662572323E+02 -0.37965554317E+01  0.38871212637E+02  0.10255359487E+03  0.91286840218E+02 0.  0.
         23    2    1    2    0    0 -0.33930721853E+02 -0.42511334589E+02  0.30841587304E+02  0.11199946281E+03  0.92920227660E+02 0.  0.
        -11    1    4    4    0    0  0.11359071217E+02 -0.58046442774E+02  0.10953362283E+02  0.60153089388E+02  0.00000000000E+00 0. -1.
         11    1    4    4    0    0 -0.45289793070E+02  0.15535108185E+02  0.19888225021E+02  0.51846373423E+02  0.00000000000E+00 0.  1.
        -11    1    3    3    0    0  0.15498434539E+02 -0.45661659549E+02  0.34416555783E+02  0.59242619269E+02  0.00000000000E+00 0.  1.
         11    1    3    3    0    0  0.10164137784E+02  0.41865104117E+02  0.44546568537E+01  0.43310975598E+02  0.00000000000E+00 0. -1.
         21    1    1    2  502  503  0.25091252844E+02  0.31586109321E+02  0.43295966330E+02  0.59175957717E+02  0.00000000000E+00 0. -1.
         21    1    1    2  503  501 -0.16823103315E+02  0.14721780700E+02 -0.29730249448E+02  0.37197249419E+02  0.00000000000E+00 0.  1.
<scales pt_clust_5="13000.00000" pt_clust_6="13000.00000" pt_clust_7="13000.00000" pt_clust_8="13000.00000" pt_clust_9="40.50442" pt_clust_10="22.35504"></scales>
<clustering>
<clus scale="   22.355">  2 10  1 -1</clus>
<clus scale="   40.504">  1  9  2 -1</clus>
<clus scale="   91.287">  7  8 -1 -1</clus>
<clus scale="   92.920">  5  6 -1 -1</clus>
<clus scale="   97.921">  2  7  1 -1</clus>
<clus scale="   40.504">  1  5  2 -1</clus>
</clustering>
</event>
<event>
10    2  0.2445576E-006  0.2911329E+03  0.7546771E-02  0.1089990E+00
         -2   -1    0    0    0  501 -0.00000000000E+00  0.00000000000E+00  0.48240524260E+03  0.48240524260E+03  0.00000000000E+00 0.  1.
          2   -1    0    0  502    0  0.00000000000E+00 -0.00000000000E+00 -0.37392610760E+03  0.37392610760E+03  0.00000000000E+00 0. -1.
         23    2    1    2    0    0  0.10633659538E+03 -0.25599128346E+03 -0.14450350609E+02  0.29060499880E+03  0.86043268002E+02 0.  0.
         23    2    1    2    0    0 -0.48836179425E+02  0.27144902787E+03 -0.70990297820E+02  0.29923761961E+03  0.91836721709E+02 0.  0.
        -11    1    4    4    0    0 -0.27018081166E+02  0.21943237275E+02 -0.28957505985E+02  0.45277141306E+02  0.00000000000E+00 0.  1.
         11    1    4    4    0    0 -0.21818098259E+02  0.24950579059E+03 -0.42032791835E+02  0.25396047830E+03  0.00000000000E+00 0. -1.
        -13    1    3    3    0    0  0.10650708675E+03 -0.19031310076E+03  0.15045409745E+02  0.21860741114E+03  0.00000000000E+00 0.  1.
         13    1    3    3    0    0 -0.17049137395E+00 -0.65678182698E+02 -0.29495760353E+02  0.71997587659E+02  0.00000000000E+00 0. -1.
         21    1    1    2  502  503  0.52983068437E+01  0.28840176021E+02 -0.22415306405E+02  0.36908993072E+02  0.00000000000E+00 0.  1.
         21    1    1    2  503  501 -0.62798722795E+02 -0.44297920428E+02  0.21633508983E+03  0.22957973872E+03  0.00000000000E+00 0. -1.
<scales pt_clust_5="13000.00000" pt_clust_6="13000.00000" pt_clust_7="13000.00000" pt_clust_8="13000.00000" pt_clust_9="29.32282" pt_clust_10="76.44836"></scales>
<clustering>
<clus scale="   29.323">  2  9  1 -1</clus>
<clus scale="   76.448">  1 10  2 -1</clus>
<clus scale="   86.043">  7  8 -1 -1</clus>
<clus scale="   91.837">  5  6 -1 -1</clus>
<clus scale="  289.358">  1  7  2 -1</clus>
<clus scale="   29.323">  2  5  1 -1</clus>
</clustering>
</event>
<event>
10    2  0.2445576E-006  0.9528473E+02  0.7546771E-02  0.1292531E+00
          1   -1    0    0  502    0  0.00000000000E+00  0.00000000000E+00  0.84910038645E+02  0.84910038645E+02  0.00000000000E+00 0. -1.
         -1   -1    0    0    0  501 -0.00000000000E+00 -0.00000000000E+00 -0.23332141363E+03  0.23332141363E+03  0.00000000000E+00 0.  1.
         23    2    1    2    0    0  0.59066705392E+01 -0.35308607437E+02 -0.61931253726E+02  0.11755306204E+03  0.93282665542E+02 0.  0.
         23    2    1    2    0    0  0.39843721670E+02 -0.17184984704E+02 -0.56721562817E+02  0.11467135242E+03  0.89718100301E+02 0.  0.
        -13    1    4    4    0    0  0.66463392526E+02 -0.26309186268E+02 -0.39241533872E+02  0.81544183169E+02  0.00000000000E+00 0. -1.
         13    1    4    4    0    0 -0.26619670856E+02  0.91242015635E+01 -0.17480028946E+02  0.33127169251E+02  0.00000000000E+00 0.  1.
        -13    1    3    3    0    0 -0.12797657185E+02  0.24507312173E+02  0.23861639915E+01  0.27750354195E+02  0.00000000000E+00 0.  1.
         13    1    3    3    0    0  0.18704327724E+02 -0.59815919609E+02 -0.64317417717E+02  0.89802707844E+02  0.00000000000E+00 0. -1.
         21    1    1    2  502  503 -0.22032388919E+02  0.51837099712E+02 -0.15887517817E+02  0.58522852720E+02  0.00000000000E+00 0.  1.
         21    1    1    2  503  501 -0.23718003290E+02  0.65649242867E+00 -0.13871040625E+02  0.27484185096E+02  0.00000000000E+00 0. -1.
<scales pt_clust_5="13000.00000" pt_clust_6="13000.00000" pt_clust_7="13000.00000" pt_clust_8="13000.00000" pt_clust_9="58.17658" pt_clust_10="23.72709"></scales>
<clustering>
<clus scale="   23.727">  2 10  1 -1</clus>
<clus scale="   58.177">  1  9  2 -1</clus>
<clus scale="   89.718">  5  6 -1 -1</clus>
<clus scale="   91.798">  1  5  2 -1</clus>
<clus scale="   93.283">  7  8 -1 -1</clus>
<clus scale="   58.177">  1  5  2 -1</clus>
</clustering>
</event>
<event>
10    2  0.2445576E-006  0.1109020E+03  0.7546771E-02  0.1260635E+00
         -1   -1    0    0    0  501 -0.00000000000E+00  0.00000000000E+00  0.70394279280E+02  0.70394279280E+02  0.00000000000E+00 0.  1.
          1   -1    0    0  502    0  0.00000000000E+00 -0.00000000000E+00 -0.31704597589E+03  0.31704597589E+03  0.00000000000E+00 0. -1.
         23    2    1    2    0    0  0.11593921641E+02 -0.72401031758E+02 -0.58138828642E+02  0.12976324676E+03  0.89900213550E+02 0.  0.
         23    2    1    2    0    0  0.11128404687E+02  0.54464485867E+02 -0.11109183058E+03  0.15068689741E+03  0.85293168645E+02 0.  0.
        -11    1    4    4    0    0  0.39277291965E+02  0.32949950607E+02 -0.23886771401E+02  0.56559550538E+02  0.00000000000E+00 0. -1.
         11    1    4    4    0    0 -0.28148887278E+02  0.21514535260E+02 -0.87205059183E+02  0.94127346874E+02  0.00000000000E+00 0.  1.
        -13    1    3    3    0    0  0.37189884077E+02 -0.17647869371E+01 -0.35127829592E+02  0.51187560622E+02  0.00000000000E+00 0.  1.
         13    1    3    3    0    0 -0.25595962437E+02 -0.70636244820E+02 -0.23010999050E+02  0.78575686142E+02  0.00000000000E+00 0. -1.
         21    1    1    2  502  503  0.23622199750E+02  0.19015273910E+01 -0.34283617192E+02  0.41677218420E+02  0.00000000000E+00 0. -1.
         21    1    1    2  503  501 -0.46344526077E+02  0.16035018500E+02 -0.43137420194E+02  0.65312892576E+02  0.00000000000E+00 0.  1.
<scales pt_clust_5="13000.00000" pt_clust_6="13000.00000" pt_clust_7="13000.00000" pt_clust_8="13000.00000" pt_clust_9="23.69861" pt_clust_10="44.86141"></scales>
<clustering>
<clus scale="   23.699">  2  9  1 -1</clus>
<clus scale="   44.861">  2 10  1 -1</clus>
<clus scale="   85.293">  5  6 -1 -1</clus>
<clus scale="   89.900">  7  8 -1 -1</clus>
<clus scale="  107.201">  2  5  1 -1</clus>
<clus scale="   23.699">  2  5  1 -1</clus>
</clustering>
</event>
<event>
10    2  0.2445576E-006  0.1511442E+03  0.7546771E-02  0.1203226E+00
          2   -1    0    0  502    0  0.00000000000E+00  0.00000000000E+00  0.22955468285E+03  0.22955468285E+03  0.00000000000E+00 0. -1.
         -2   -1    0    0    0  501 -0.00000000000E+00 -0.00000000000E+00 -0.67140119938E+03  0.67140119938E+03  0.00000000000E+00 0.  1.
         23    2    1    2    0    0 -0.10359431588E+03  0.78429757171E+01 -0.35658421937E+03  0.37752041988E+03  0.67646636099E+02 0.  0.
         23    2    1    2    0    0  0.54006039082E+02 -0.27773285316E+01  0.91478932473E+02  0.14011369531E+03  0.91318600053E+02 0.  0.
        -11    1    3    3    0    0 -0.83130137776E+02 -0.16735444811E+02 -0.19251901443E+03  0.21036697896E+03  0.00000000000E+00 0.  1.
         11    1    3    3    0    0 -0.20464178105E+02  0.24578420528E+02 -0.16406520494E+03  0.16715344092E+03  0.00000000000E+00 0. -1.
        -13    1    4    4    0    0 -0.74176578222E+01  0.30969525813E+02  0.11708433538E+02  0.33929641799E+02  0.00000000000E+00 0.  1.
         13    1    4    4    0    0  0.61423696905E+02 -0.33746854345E+02  0.79770498935E+02  0.10618405351E+03  0.00000000000E+00 0. -1.
         21    1    1    2  502  503  0.78540263059E+02  0.17649366831E+02  0.86127432519E+02  0.11788981170E+03  0.00000000000E+00 0. -1.
         21    1    1    2  503  501 -0.28951986261E+02 -0.22715014017E+02 -0.26286866216E+03  0.26543195534E+03  0.00000000000E+00 0. -1.
<scales pt_clust_5="13000.00000" pt_clust_6="13000.00000" pt_clust_7="13000.00000" pt_clust_8="13000.00000" pt_clust_9="79.20555" pt_clust_10="36.79931"></scales>
<clustering>
<clus scale="   36.799">  2 10  1 -1</clus>
<clus scale="   67.647">  5  6 -1 -1</clus>
<clus scale="   79.206">  1  9  2 -1</clus>
<clus scale="   91.319">  7  8 -1 -1</clus>
<clus scale="  138.136">  2  5  1 -1</clus>
<clus scale="   79.206">  1  5  2 -1</clus>
</clustering>
</event>
<event>
10    2  0.2445576E-006  0.1392140E+03  0.7546771E-02  0.1214433E+00
         -2   -1    0    0    0  501 -0.00000000000E+00  0.00000000000E+00  0.18578107629E+03  0.18578107629E+03  0.00000000000E+00 0.  1.
          2   -1    0    0  502    0  0.00000000000E+00 -0.00000000000E+00 -0.45341973656E+03  0.45341973656E+03  0.00000000000E+00 0. -1.
         23    2    1    2    0    0 -0.61931707043E+02  0.50319497704E+02  0.12066563624E+03  0.17050224586E+03  0.90239857523E+02 0.  0.
         23    2    1    2    0    0  0.11373529857E+03 -0.52379869735E+02 -0.27598497861E+03  0.31615711966E+03  0.90045805033E+02 0.  0.
        -11    1    3    3    0    0 -0.37471368131E+02  0.23147715505E+02  0.12607262078E+03  0.13354484593E+03  0.00000000000E+00 0.  1.
         11    1    3    3    0    0 -0.24460338912E+02  0.27171782199E+02 -0.54069845422E+01  0.36957399927E+02  0.00000000000E+00 0. -1.
        -13    1    4    4    0    0  0.23595525550E+02  0.21564113532E+02 -0.29535169266E+02  0.43521098814E+02  0.00000000000E+00 0.  1.
         13    1    4    4    0    0  0.90139773020E+02 -0.73943983267E+02 -0.24644980934E+03  0.27263602085E+03  0.00000000000E+00 0. -1.
         21    1    1    2  502  503 -0.20774054547E+02 -0.98435026455E+00 -0.11887548907E+03  0.12068103492E+03  0.00000000000E+00 0. -1.
         21    1    1    2  503  501 -0.31029536980E+02  0.30447222951E+01  0.65561711659E+01  0.31860412417E+02  0.00000000000E+00 0.  1.
<scales pt_clust_5="13000.00000" pt_clust_6="13000.00000" pt_clust_7="13000.00000" pt_clust_8="13000.00000" pt_clust_9="20.79736" pt_clust_10="31.95913"></scales>
<clustering>
<clus scale="   20.797">  2  9  1 -1</clus>
<clus scale="   31.959">  1 10  2 -1</clus>
<clus scale="   90.046">  7  8 -1 -1</clus>
<clus scale="   90.240">  5  6 -1 -1</clus>
<clus scale="  139.088">  2  7  1 -1</clus>
<clus scale="   20.797">  2  5  1 -1</clus>
</clustering>
</event>
<event>
10    2  0.2445576E-006  0.1038423E+03  0.7546771E-02  0.1272881E+00
          1   -1    0    0  502    0  0.00000000000E+00  0.00000000000E+00  0.15864183148E+03  0.15864183148E+03  0.00000000000E+00 0. -1.
         -1   -1    0    0    0  501 -0.00000000000E+00 -0.00000000000E+00 -0.41442709829E+03  0.41442709829E+03  0.00000000000E+00 0.  1.
         23    2    1    2    0    0 -0.68065755806E+02  0.48636518264E+02 -0.26083159371E+03  0.28807781106E+03  0.89203401987E+02 0.  0.
         23    2    1    2    0    0 -0.29783573270E+02 -0.36288957197E+02 -0.63097517711E+02  0.11972233942E+03  0.90267337197E+02 0.  0.
        -11    1    4    4    0    0 -0.18323245034E+02  0.22947771230E+02 -0.49994249998E+02  0.57980742888E+02  0.00000000000E+00 0.  1.
         11    1    4    4    0    0 -0.11460328236E+02 -0.59236728427E+02 -0.13103267713E+02  0.61741596536E+02  0.00000000000E+00 0. -1.
        -11    1    3    3    0    0 -0.88783338508E+02  0.48814180775E+02 -0.22321144523E+03  0.24512987317E+03  0.00000000000E+00 0.  1.
         11    1    3    3    0    0  0.20717582702E+02 -0.17766251108E+00 -0.37620148484E+02  0.42947937889E+02  0.00000000000E+00 0. -1.
         21    1    1    2  502  503  0.67959372321E+02 -0.18548827344E+02  0.99234916395E+02  0.12169677035E+03  0.00000000000E+00 0. -1.
         21    1    1    2  503  501  0.29889956755E+02  0.62012662770E+01 -0.31091071785E+02  0.43572008939E+02  0.00000000000E+00 0. -1.
<scales pt_clust_5="13000.00000" pt_clust_6="13000.00000" pt_clust_7="13000.00000" pt_clust_8="13000.00000" pt_clust_9="71.25662" pt_clust_10="30.52647"></scales>
<clustering>
<clus scale="   30.526">  2 10  1 -1</clus>
<clus scale="   71.257">  1  9  2 -1</clus>
<clus scale="   89.203">  7  8 -1 -1</clus>
<clus scale="   90.267">  5  6 -1 -1</clus>
<clus scale="  102.919">  2  7  1 -1</clus>
<clus scale="   71.257">  1  5  2 -1</clus>
</clustering>
</event>
<event>
10    2  0.2445576E-006  0.1053183E+03  0.7546771E-02  0.1275347E+00
         -1   -1    0    0    0  501 -0.00000000000E+00  0.00000000000E+00  0.36318332894E+02  0.36318332894E+02  0.00000000000E+00 0.  1.
          1   -1    0    0  502    0  0.00000000000E+00 -0.00000000000E+00 -0.55401310093E+03  0.55401310093E+03  0.00000000000E+00 0. -1.
         23    2    1    2    0    0 -0.32156317384E+02 -0.43574099742E+01 -0.17253484748E+03  0.19786356267E+03  0.91261711967E+02 0.  0.
         23    2    1    2    0    0  0.88717944486E+01  0.79088604628E+01 -0.23932252459E+03  0.26073855594E+03  0.10280109419E+03 0.  0.
        -11    1    4    4    0    0 -0.14155377006E+02  0.49675775217E+02 -0.16052897018E+03  0.16863453860E+03  0.00000000000E+00 0.  1.
         11    1    4    4    0    0  0.23027171454E+02 -0.41766914754E+02 -0.78793554406E+02  0.92104017334E+02  0.00000000000E+00 0. -1.
        -13    1    3    3    0    0  0.24455932663E+02  0.22008480599E+02 -0.76916471841E+02  0.83657692421E+02  0.00000000000E+00 0.  1.
         13    1    3    3    0    0 -0.56612250048E+02 -0.26365890574E+02 -0.95618375635E+02  0.11420587025E+03  0.00000000000E+00 0. -1.
         21    1    1    2  502  503  0.15541260876E+02  0.18488137713E+02 -0.10564248557E+03  0.10836824620E+03  0.00000000000E+00 0. -1.
         21    1    1    2  503  501  0.77432620597E+01 -0.22039588201E+02 -0.19491039491E+00  0.23361069014E+02  0.00000000000E+00 0. -1.
<scales pt_clust_5="13000.00000" pt_clust_6="13000.00000" pt_clust_7="13000.00000" pt_clust_8="13000.00000" pt_clust_9="23.52355" pt_clust_10="23.36026"></scales>
<clustering>
<clus scale="   23.360">  1 10  2 -1</clus>
<clus scale="   23.524">  2  9  1 -1</clus>
<clus scale="   91.262">  7  8 -1 -1</clus>
<clus scale="   94.088">  1  7  2 -1</clus>
<clus scale="  102.801">  5  6 -1 -1</clus>
<clus scale="   23.524">  2  5  1 -1</clus>
</clustering>
</event>
<event>
10    2  0.2445576E-006  0.1329493E+03  0.7546771E-02  0.1237527E+00
          1   -1    0    0  502    0  0.00000000000E+00  0.00000000000E+00  0.30230715893E+03  0.30230715893E+03  0.00000000000E+00 0. -1.
         -1   -1    0    0    0  501 -0.00000000000E+00 -0.00000000000E+00 -0.81319631957E+02  0.81319631957E+02  0.00000000000E+00 0.  1.
         23    2    1    2    0    0  0.28296688314E+02 -0.63133278368E+02  0.13296186133E+03  0.19615140052E+03  0.12653063642E+03 0.  0.
         23    2    1    2    0    0 -0.13473850153E+02  0.20112893853E+02  0.97174712963E+02  0.13463091814E+03  0.89980476446E+02 0.  0.
        -11    1    4    4    0    0  0.36774351073E+02 -0.10044815200E+01  0.52768438835E+02  0.64326277811E+02  0.00000000000E+00 0.  1.
         11    1    4    4    0    0 -0.50248201227E+02  0.21117375373E+02  0.44406274127E+02  0.70304640324E+02  0.00000000000E+00 0. -1.
        -11    1    3    3    0    0 -0.25688587590E+02  0.26426372029E+02  0.52795541331E+02  0.64386534737E+02  0.00000000000E+00 0.  1.
         11    1    3    3    0    0  0.53985275904E+02 -0.89559650397E+02  0.80166319998E+02  0.13176486579E+03  0.00000000000E+00 0. -1.
         21    1    1    2  502  503 -0.34093524887E+01  0.25885888081E+02  0.65916758497E+01  0.26928666447E+02  0.00000000000E+00 0.  1.
         21    1    1    2  503  501 -0.11413485672E+02  0.17134496434E+02 -0.15740723171E+02  0.25915805779E+02  0.00000000000E+00 0.  1.
<scales pt_clust_5="13000.00000" pt_clust_6="13000.00000" pt_clust_7="13000.00000" pt_clust_8="13000.00000" pt_clust_9="29.25542" pt_clust_10="20.58783"></scales>
<clustering>
<clus scale="   20.588">  2 10  1 -1</clus>
<clus scale="   29.255">  2  9  1 -1</clus>
<clus scale="   89.980">  5  6 -1 -1</clus>
<clus scale="   98.803">  1  5  2 -1</clus>
<clus scale="  126.531">  7  8 -1 -1</clus>
<clus scale="   98.803">  1  5  2 -1</clus>
</clustering>
</event>
<event>
10    2  0.2445576E-006  0.1856587E+03  0.7546771E-02  0.1162594E+00
         -1   -1    0    0    0  501 -0.00000000000E+00  0.00000000000E+00  0.11218547793E+03  0.11218547793E+03  0.00000000000E+00 0.  1.
          1   -1    0    0  502    0  0.00000000000E+00 -0.00000000000E+00 -0.79258917876E+03  0.79258917876E+03  0.00000000000E+00 0. -1.
         23    2    1    2    0    0  0.57263333960E+02  0.19867164449E+03 -0.85776537202E+02  0.24150384726E+03  0.90647571222E+02 0.  0.
         23    2    1    2    0    0 -0.45903706483E+02 -0.76873889351E+02 -0.42019877460E+03  0.43880386876E+03  0.89247296514E+02 0.  0.
        -11    1    4    4    0    0 -0.22357631771E+02 -0.91147366692E+02 -0.36811327566E+03  0.37988825972E+03  0.00000000000E+00 0.  1.
         11    1    4    4    0    0 -0.23546074711E+02  0.14273477341E+02 -0.52085498937E+02  0.58915609045E+02  0.00000000000E+00 0. -1.
        -11    1    3    3    0    0  0.60372297434E+02  0.13252144716E+03 -0.17980173149E+02  0.14673116534E+03  0.00000000000E+00 0.  1.
         11    1    3    3    0    0 -0.31089634741E+01  0.66150197328E+02 -0.67796364053E+02  0.94772681925E+02  0.00000000000E+00 0. -1.
         21    1    1    2  502  503 -0.22460208255E+02 -0.91168577711E+02 -0.16616196125E+03  0.19085588249E+03  0.00000000000E+00 0. -1.
         21    1    1    2  503  501  0.11100580777E+02 -0.30629177428E+02 -0.82664277807E+01  0.33611058177E+02  0.00000000000E+00 0. -1.
<scales pt_clust_5="13000.00000" pt_clust_6="13000.00000" pt_clust_7="13000.00000" pt_clust_8="13000.00000" pt_clust_9="97.28089" pt_clust_10="32.57866"></scales>
<clustering>
<clus scale="   32.579">  1 10  2 -1</clus>
<clus scale="   89.247">  5  6 -1 -1</clus>
<clus scale="   90.648">  7  8 -1 -1</clus>
<clus scale="   97.281">  2  9  1 -1</clus>
<clus scale="  184.979">  2  5  1 -1</clus>
<clus scale="   97.281">  2  5  1 -1</clus>
</clustering>
</event>
<event>
10    2  0.2445576E-006  0.1568136E+03  0.7546771E-02  0.1194496E+00
         -1   -1    0    0    0  501 -0.00000000000E+00  0.00000000000E+00  0.64482874132E+03  0.64482874132E+03  0.00000000000E+00 0.  1.
          1   -1    0    0  502    0  0.00000000000E+00 -0.00000000000E+00 -0.32552552194E+03  0.32552552194E+03  0.00000000000E+00 0. -1.
         23    2    1    2    0    0  0.65230731363E+02 -0.15236334176E+03  0.35127129546E+03  0.39870100389E+03  0.90007395596E+02 0.  0.
         23    2    1    2    0    0 -0.19199053393E+02  0.77159496674E+02 -0.19967908035E+03  0.23773087873E+03  0.10159746058E+03 0.  0.
        -11    1    3    3    0    0 -0.15630503302E+02 -0.15099109985E+02  0.90869299744E+02  0.93431929188E+02  0.00000000000E+00 0.  1.
         11    1    3    3    0    0  0.80861234666E+02 -0.13726423177E+03  0.26040199571E+03  0.30526907470E+03  0.00000000000E+00 0. -1.
        -13    1    4    4    0    0 -0.32404405051E+02 -0.97262685892E+01 -0.96158801272E+02  0.10193704346E+03  0.00000000000E+00 0.  1.
         13    1    4    4    0    0  0.13205351658E+02  0.86885765263E+02 -0.10352027908E+03  0.13579383527E+03  0.00000000000E+00 0. -1.
         21    1    1    2  502  503  0.16005023682E+02  0.44080105193E+02 -0.71131757840E+02  0.85199433275E+02  0.00000000000E+00 0. -1.
         21    1    1    2  503  501 -0.62036701652E+02  0.31123739890E+02  0.23884276211E+03  0.24872294737E+03  0.00000000000E+00 0.  1.
<scales pt_clust_5="13000.00000" pt_clust_6="13000.00000" pt_clust_7="13000.00000" pt_clust_8="13000.00000" pt_clust_9="46.89580" pt_clust_10="69.52163"></scales>
<clustering>
<clus scale="   46.896">  2  9  1 -1</clus>
<clus scale="   69.522">  1 10  2 -1</clus>
<clus scale="   90.007">  5  6 -1 -1</clus>
<clus scale="  101.597">  7  8 -1 -1</clus>
<clus scale="  149.565">  1  5  2 -1</clus>
<clus scale="   46.896">  2  5  1 -1</clus>
</clustering>
</event>
<event>
10    2  0.2445576E-006  0.1569502E+03  0.7546771E-02  0.1200044E+00
          1   -1    0    0  502    0  0.00000000000E+00  0.00000000000E+00  0.13101654298E+03  0.13101654298E+03  0.00000000000E+00 0. -1.
         -1   -1    0    0    0  501 -0.00000000000E+00 -0.00000000000E+00 -0.34129563102E+03  0.34129563102E+03  0.00000000000E+00 0.  1.
         23    2    1    2    0    0 -0.21627320913E+02 -0.11924999194E+03 -0.18810666207E+03  0.24004523936E+03  0.86886702309E+02 0.  0.
         23    2    1    2    0    0  0.49907119267E+02  0.62437807759E+02  0.10192724505E+02  0.14562742372E+03  0.12130232691E+03 0.  0.
        -11    1    3    3    0    0 -0.64591611019E+00 -0.97387508172E+02 -0.74920618883E+02  0.12287328062E+03  0.00000000000E+00 0.  1.
         11    1    3    3    0    0 -0.20981404803E+02 -0.21862483766E+02 -0.11318604319E+03  0.11717195874E+03  0.00000000000E+00 0. -1.
        -13    1    4    4    0    0  0.13255620576E+02  0.79446930140E+02  0.45029046478E+02  0.92277522789E+02  0.00000000000E+00 0. -1.
         13    1    4    4    0    0  0.36651498691E+02 -0.17009122380E+02 -0.34836321972E+02  0.53349900928E+02  0.00000000000E+00 0.  1.
         21    1    1    2  502  503 -0.24286066092E+02  0.34260162163E+02  0.55336159756E+01  0.42357910990E+02  0.00000000000E+00 0. -1.
         21    1    1    2  503  501 -0.39937322615E+01  0.22552022016E+02 -0.37898766453E+02  0.44281599938E+02  0.00000000000E+00 0. -1.
<scales pt_clust_5="13000.00000" pt_clust_6="13000.00000" pt_clust_7="13000.00000" pt_clust_8="13000.00000" pt_clust_9="43.26912" pt_clust_10="22.90292"></scales>
<clustering>
<clus scale="   22.903">  2 10  1 -1</clus>
<clus scale="   43.269">  1  9  2 -1</clus>
<clus scale="   86.887">  5  6 -1 -1</clus>
<clus scale="  121.302">  7  8 -1 -1</clus>
<clus scale="  132.168">  2  5  1 -1</clus>
<clus scale="   43.269">  1  5  2 -1</clus>
</clustering>
</event>
<event>
10    2  0.2445576E-006  0.1700318E+03  0.7546771E-02  0.1178520E+00
          1   -1    0    0  502    0  0.00000000000E+00  0.00000000000E+00  0.13565333005E+04  0.13565333005E+04  0.00000000000E+00 0. -1.
         -1   -1    0    0    0  501 -0.00000000000E+00 -0.00000000000E+00 -0.10131745166E+03  0.10131745166E+03  0.00000000000E+00 0.  1.
         23    2    1    2    0    0 -0.73795410735E+02 -0.12192859252E+03  0.62390301162E+03  0.64631747071E+03  0.90326965608E+02 0.  0.
         23    2    1    2    0    0  0.71829404944E+02  0.11434758603E+03  0.44837508249E+03  0.47784831110E+03  0.95204831729E+02 0.  0.
        -11    1    4    4    0    0  0.46927635150E+01  0.75161888524E+02  0.31115915753E+03  0.32014270698E+03  0.00000000000E+00 0. -1.
         11    1    4    4    0    0  0.67136641429E+02  0.39185697504E+02  0.13721592496E+03  0.15770560413E+03  0.00000000000E+00 0.  1.
        -13    1    3    3    0    0 -0.94875253375E+02 -0.93228051655E+02  0.48238199817E+03  0.50038502724E+03  0.00000000000E+00 0. -1.
         13    1    3    3    0    0  0.21079842640E+02 -0.28700540865E+02  0.14152101345E+03  0.14593244348E+03  0.00000000000E+00 0.  1.
         21    1    1    2  502  503 -0.14840026821E+02 -0.30546532257E+02  0.25132222040E+03  0.25360633962E+03  0.00000000000E+00 0.  1.
         21    1    1    2  503  501  0.16806032613E+02  0.38127538749E+02 -0.68384465700E+02  0.80078630685E+02  0.00000000000E+00 0.  1.
<scales pt_clust_5="13000.00000" pt_clust_6="13000.00000" pt_clust_7="13000.00000" pt_clust_8="13000.00000" pt_clust_9="33.96052" pt_clust_10="41.48743"></scales>
<clustering>
<clus scale="   33.961">  1  9  2 -1</clus>
<clus scale="   41.487">  2 10  1 -1</clus>
<clus scale="   90.327">  7  8 -1 -1</clus>
<clus scale="   95.205">  5  6 -1 -1</clus>
<clus scale="  167.349">  2  7  1 -1</clus>
<clus scale="   33.961">  1  5  2 -1</clus>
</clustering>
</event>
<event>
10    2  0.2445576E-006  0.1553099E+03  0.7546771E-02  0.1194110E+00
          2   -1    0    0  502    0  0.00000000000E+00  0.00000000000E+00  0.32674985136E+03  0.32674985136E+03  0.00000000000E+00 0. -1.
         -2   -1    0    0    0  501 -0.00000000000E+00 -0.00000000000E+00 -0.23313704548E+03  0.23313704548E+03  0.00000000000E+00 0.  1.
         23    2    1    2    0    0  0.16359562441E+03  0.51815468160E+02  0.13079949799E+03  0.23498732289E+03  0.93070737502E+02 0.  0.
         23    2    1    2    0    0 -0.92540333460E+02  0.11844335575E+02  0.69691415299E+02  0.14912472147E+03  0.93151959636E+02 0.  0.
        -11    1    4    4    0    0  0.69619845111E+01  0.27838295918E+02  0.27901743916E+02  0.40024333367E+02  0.00000000000E+00 0.  1.
         11    1    4    4    0    0 -0.99502317972E+02 -0.15993960343E+02  0.41789671383E+02  0.10910038810E+03  0.00000000000E+00 0. -1.
        -11    1    3    3    0    0  0.12026999296E+03  0.57877279361E+02  0.48921198677E+02  0.14215461425E+03  0.00000000000E+00 0.  1.
         11    1    3    3    0    0  0.43325631453E+02 -0.60618112011E+01  0.81878299314E+02  0.92832708645E+02  0.00000000000E+00 0. -1.
         21    1    1    2  502  503 -0.67404613779E+02 -0.86847085634E+02 -0.64853716061E+02  0.12763934632E+03  0.00000000000E+00 0.  1.
         21    1    1    2  503  501 -0.36506771700E+01  0.23187281899E+02 -0.42024391347E+02  0.48135506165E+02  0.00000000000E+00 0.  1.
<scales pt_clust_5="13000.00000" pt_clust_6="13000.00000" pt_clust_7="13000.00000" pt_clust_8="13000.00000" pt_clust_9="102.08205" pt_clust_10="23.47291"></scales>
<clustering>
<clus scale="   23.473">  2 10  1 -1</clus>
<clus scale="   93.071">  7  8 -1 -1</clus>
<clus scale="   93.152">  5  6 -1 -1</clus>
<clus scale="  102.082">  2  9  1 -1</clus>
<clus scale="  155.261">  2  7  1 -1</clus>
<clus scale="  155.310">  1  5  2 -1</clus>
</clustering>
</event>
<event>
10    2  0.2445576E-006  0.2057324E+03  0.7546771E-02  0.1145144E+00
         -1   -1    0    0    0  501 -0.00000000000E+00  0.00000000000E+00  0.29981857573E+03  0.29981857573E+03  0.00000000000E+00 0.  1.
          1   -1    0    0  502    0  0.00000000000E+00 -0.00000000000E+00 -0.39619504154E+03  0.39619504154E+03  0.00000000000E+00 0. -1.
         23    2    1    2    0    0  0.16049004122E+03  0.36596077673E+02  0.82651005150E+02  0.20504916154E+03  0.90097967600E+02 0.  0.
         23    2    1    2    0    0 -0.19246143495E+03  0.16918816721E+02 -0.76224622767E+02  0.22708015446E+03  0.91801705497E+02 0.  0.
        -11    1    3    3    0    0  0.10670464318E+02  0.34365910969E+02  0.51334507772E+01  0.36348685841E+02  0.00000000000E+00 0.  1.
         11    1    3    3    0    0  0.14981957690E+03  0.22301667042E+01  0.77517554373E+02  0.16870047570E+03  0.00000000000E+00 0. -1.
        -13    1    4    4    0    0 -0.15198043563E+02 -0.18966246375E+02 -0.33249458081E+02  0.41185258193E+02  0.00000000000E+00 0. -1.
         13    1    4    4    0    0 -0.17726339138E+03  0.35885063096E+02 -0.42975164686E+02  0.18589489627E+03  0.00000000000E+00 0.  1.
         21    1    1    2  502  503 -0.90448068131E+01 -0.21559329274E+02 -0.17408822121E+03  0.17565113713E+03  0.00000000000E+00 0. -1.
         21    1    1    2  503  501  0.41016200539E+02 -0.31955565119E+02  0.71285373012E+02  0.88233164140E+02  0.00000000000E+00 0.  1.
<scales pt_clust_5="13000.00000" pt_clust_6="13000.00000" pt_clust_7="13000.00000" pt_clust_8="13000.00000" pt_clust_9="23.37976" pt_clust_10="52.23634"></scales>
<clustering>
<clus scale="   23.380">  2  9  1 -1</clus>
<clus scale="   52.236">  1 10  2 -1</clus>
<clus scale="   90.098">  5  6 -1 -1</clus>
<clus scale="   91.802">  7  8 -1 -1</clus>
<clus scale="  204.978">  1  5  2 -1</clus>
<clus scale="   23.380">  2  5  1 -1</clus>
</clustering>
</event>
<event>
10    2  0.2445576E-006  0.9970294E+02  0.7546771E-02  0.1282800E+00
         -1   -1    0    0    0  501 -0.00000000000E+00  0.00000000000E+00  0.22324403446E+03  0.22324403446E+03  0.00000000000E+00 0.  1.
          1   -1    0    0  502    0  0.00000000000E+00 -0.00000000000E+00 -0.40278805025E+03  0.40278805025E+03  0.00000000000E+00 0. -1.
         23    2    1    2    0    0  0.96830737994E+01 -0.59503893329E+01  0.15275950284E+03  0.17806848237E+03  0.90795097089E+02 0.  0.
         23    2    1    2    0    0 -0.37118554522E+02  0.38419204076E+02 -0.23887874905E+03  0.26238217973E+03  0.94485602928E+02 0.  0.
        -11    1    4    4    0    0  0.22251145182E+02  0.22647820880E+02 -0.26681011505E+02  0.41471841380E+02  0.00000000000E+00 0.  1.
         11    1    4    4    0    0 -0.59369699703E+02  0.15771383196E+02 -0.21219773755E+03  0.22091033835E+03  0.00000000000E+00 0. -1.
        -11    1    3    3    0    0 -0.33354571666E+02  0.20348443515E+02  0.85448497887E+02  0.93957609568E+02  0.00000000000E+00 0. -1.
         11    1    3    3    0    0  0.43037645465E+02 -0.26298832848E+02  0.67311004949E+02  0.84110872802E+02  0.00000000000E+00 0.  1.
         21    1    1    2  502  503  0.19882539259E+02 -0.11396905627E+02 -0.13576632304E+03  0.13768696125E+03  0.00000000000E+00 0. -1.
         21    1    1    2  503  501  0.75529414633E+01 -0.21071909116E+02  0.42341553474E+02  0.47894461362E+02  0.00000000000E+00 0.  1.
<scales pt_clust_5="13000.00000" pt_clust_6="13000.00000" pt_clust_7="13000.00000" pt_clust_8="13000.00000" pt_clust_9="23.00930" pt_clust_10="22.38464"></scales>
<clustering>
<clus scale="   22.385">  1 10  2 -1</clus>
<clus scale="   23.009">  2  9  1 -1</clus>
<clus scale="   90.795">  7  8 -1 -1</clus>
<clus scale="   94.486">  5  6 -1 -1</clus>
<clus scale="   96.213">  1  7  2 -1</clus>
<clus scale="   23.009">  2  5  1 -1</clus>
</clustering>
</event>
<event>
10    2  0.2445576E-006  0.1082750E+03  0.7546771E-02  0.1263943E+00
         -1   -1    0    0    0  501 -0.00000000000E+00  0.00000000000E+00  0.18461465211E+03  0.18461465211E+03  0.00000000000E+00 0.  1.
          1   -1    0    0  502    0  0.00000000000E+00 -0.00000000000E+00 -0.15282979645E+03  0.15282979645E+03  0.00000000000E+00 0. -1.
         23    2    1    2    0    0  0.22093319691E+02  0.39642788227E+02  0.72434379498E+02  0.12573780293E+03  0.92214913752E+02 0.  0.
         23    2    1    2    0    0 -0.25413067796E+02 -0.66965155561E+02 -0.69277727336E+02  0.13601233520E+03  0.92573191301E+02 0.  0.
        -11    1    4    4    0    0  0.24795761861E+01 -0.52163654438E+02 -0.85747696536E+02  0.10039851893E+03  0.00000000000E+00 0. -1.
         11    1    4    4    0    0 -0.27892643982E+02 -0.14801501123E+02  0.16469969200E+02  0.35613816269E+02  0.00000000000E+00 0.  1.
        -13    1    3    3    0    0 -0.25641256553E+02  0.19180436117E+02 -0.50914476174E+01  0.32423540925E+02  0.00000000000E+00 0.  1.
         13    1    3    3    0    0  0.47734576244E+02  0.20462352110E+02  0.77525827116E+02  0.93314262003E+02  0.00000000000E+00 0. -1.
         21    1    1    2  502  503  0.17967273837E+02  0.11334475851E+02 -0.15654061399E+02  0.26388310106E+02  0.00000000000E+00 0. -1.
         21    1    1    2  503  501 -0.14647525732E+02  0.15987891483E+02  0.44282264897E+02  0.49306000330E+02  0.00000000000E+00 0. -1.
<scales pt_clust_5="13000.00000" pt_clust_6="13000.00000" pt_clust_7="13000.00000" pt_clust_8="13000.00000" pt_clust_9="21.24366" pt_clust_10="21.61487"></scales>
<clustering>
<clus scale="   21.244">  2  9  1 -1</clus>
<clus scale="   21.615">  1 10  2 -1</clus>
<clus scale="   92.215">  7  8 -1 -1</clus>
<clus scale="   92.573">  5  6 -1 -1</clus>
<clus scale="  107.969">  1  7  2 -1</clus>
<clus scale="   21.244">  2  5  1 -1</clus>
</clustering>
</event>
<event>
10    2  0.2445576E-006  0.1136571E+03  0.7546771E-02  0.1254030E+00
         -1   -1    0    0    0  501 -0.00000000000E+00  0.00000000000E+00  0.22485478011E+03  0.22485478011E+03  0.00000000000E+00 0.  1.
          1   -1    0    0  502    0  0.00000000000E+00 -0.00000000000E+00 -0.21879731673E+03  0.21879731673E+03  0.00000000000E+00 0. -1.
         23    2    1    2    0    0  0.32543905441E+02 -0.14735703060E+01  0.13420417267E+03  0.16627384773E+03  0.92601054450E+02 0.  0.
         23    2    1    2    0    0 -0.61672198503E+02  0.33475534891E+02 -0.17341692829E+03  0.20863430833E+03  0.92362178893E+02 0.  0.
        -11    1    4    4    0    0 -0.16585063622E+02  0.57157068911E+02 -0.61019325644E+02  0.85237039859E+02  0.00000000000E+00 0.  1.
         11    1    4    4    0    0 -0.45087134881E+02 -0.23681534020E+02 -0.11239760264E+03  0.12339726847E+03  0.00000000000E+00 0. -1.
        -13    1    3    3    0    0  0.47457260966E+02  0.22334017958E+02  0.34723182661E+02  0.62902300361E+02  0.00000000000E+00 0.  1.
         13    1    3    3    0    0 -0.14913355525E+02 -0.23807588264E+02  0.99480990008E+02  0.10337154737E+03  0.00000000000E+00 0. -1.
         21    1    1    2  502  503  0.86357596434E+01 -0.26366923612E+02  0.14384515824E+02  0.31252284730E+02  0.00000000000E+00 0.  1.
         21    1    1    2  503  501  0.20492533419E+02 -0.56350409733E+01  0.30885703183E+02  0.37491656056E+02  0.00000000000E+00 0.  1.
<scales pt_clust_5="13000.00000" pt_clust_6="13000.00000" pt_clust_7="13000.00000" pt_clust_8="13000.00000" pt_clust_9="29.22639" pt_clust_10="21.25318"></scales>
<clustering>
<clus scale="   21.253">  1 10  2 -1</clus>
<clus scale="   29.226">  1  9  2 -1</clus>
<clus scale="   92.362">  5  6 -1 -1</clus>
<clus scale="   92.601">  7  8 -1 -1</clus>
<clus scale="  113.463">  2  5  1 -1</clus>
<clus scale="  113.463">  2  5  1 -1</clus>
</clustering>
</event>
<event>
10    2  0.2445576E-006  0.1709838E+03  0.7546771E-02  0.1177864E+00
          1   -1    0    0  502    0  0.00000000000E+00  0.00000000000E+00  0.24696932312E+03  0.24696932312E+03  0.00000000000E+00 0. -1.
         -1   -1    0    0    0  501 -0.00000000000E+00 -0.00000000000E+00 -0.35840793367E+03  0.35840793367E+03  0.00000000000E+00 0.  1.
         23    2    1    2    0    0  0.10487688235E+03 -0.76850096153E+01 -0.22140572641E+03  0.26442431286E+03  0.99204343258E+02 0.  0.
         23    2    1    2    0    0 -0.14245046110E+03  0.28147917851E+02  0.13970582985E+03  0.22159442669E+03  0.92205921168E+02 0.  0.
        -13    1    4    4    0    0 -0.11361845402E+02  0.24206902792E+02 -0.40028778791E+01  0.27038652057E+02  0.00000000000E+00 0.  1.
         13    1    4    4    0    0 -0.13108861570E+03  0.39410150587E+01  0.14370870773E+03  0.19455577463E+03  0.00000000000E+00 0. -1.
        -13    1    3    3    0    0  0.90503811595E+02  0.31550789968E+02 -0.18763904356E+03  0.21070074259E+03  0.00000000000E+00 0.  1.
         13    1    3    3    0    0  0.14373070752E+02 -0.39235799583E+02 -0.33766682852E+02  0.53723570270E+02  0.00000000000E+00 0. -1.
         21    1    1    2  502  503 -0.42596154091E+01 -0.32545727755E+02  0.30649856302E+02  0.44908600622E+02  0.00000000000E+00 0. -1.
         21    1    1    2  503  501  0.41833194159E+02  0.12082819519E+02 -0.60388570306E+02  0.74449916620E+02  0.00000000000E+00 0. -1.
<scales pt_clust_5="13000.00000" pt_clust_6="13000.00000" pt_clust_7="13000.00000" pt_clust_8="13000.00000" pt_clust_9="32.82330" pt_clust_10="43.11400"></scales>
<clustering>
<clus scale="   32.823">  1  9  2 -1</clus>
<clus scale="   43.114">  2 10  1 -1</clus>
<clus scale="   92.206">  5  6 -1 -1</clus>
<clus scale="   99.204">  7  8 -1 -1</clus>
<clus scale="  167.021">  1  5  2 -1</clus>
<clus scale="   32.823">  1  5  2 -1</clus>
</clustering>
</event>
<event>
10    2  0.2445576E-006  0.1157223E+03  0.7546771E-02  0.1250852E+00
         -3   -1    0    0    0  501 -0.00000000000E+00  0.00000000000E+00  0.32539434050E+03  0.32539434050E+03  0.00000000000E+00 0.  1.
          3   -1    0    0  502    0  0.00000000000E+00 -0.00000000000E+00 -0.10755130127E+03  0.10755130127E+03  0.00000000000E+00 0. -1.
         23    2    1    2    0    0  0.92676803423E+02  0.29965764938E+02  0.16508612382E+03  0.21214026269E+03  0.90901737129E+02 0.  0.
         23    2    1    2    0    0 -0.18868038960E+02 -0.59895863488E+02 -0.80585155291E+01  0.11202724610E+03  0.92421030290E+02 0.  0.
        -11    1    3    3    0    0  0.17259158419E+02  0.51889190189E+02  0.68719689270E+02  0.87822333727E+02  0.00000000000E+00 0.  1.
         11    1    3    3    0    0  0.75417645004E+02 -0.21923425251E+02  0.96366434553E+02  0.12431792896E+03  0.00000000000E+00 0. -1.
        -13    1    4    4    0    0 -0.48946073205E+02 -0.18590340597E+02  0.17091638695E+02  0.55076700691E+02  0.00000000000E+00 0.  1.
         13    1    4    4    0    0  0.30078034245E+02 -0.41305522891E+02 -0.25150154224E+02  0.56950545413E+02  0.00000000000E+00 0. -1.
         21    1    1    2  502  503 -0.35803688047E+02  0.19363473695E+02  0.58496790866E+01  0.41122584266E+02  0.00000000000E+00 0. -1.
         21    1    1    2  503  501 -0.38005076416E+02  0.10566624855E+02  0.54965751859E+02  0.67655548713E+02  0.00000000000E+00 0.  1.
<scales pt_clust_5="13000.00000" pt_clust_6="13000.00000" pt_clust_7="13000.00000" pt_clust_8="13000.00000" pt_clust_9="44.13138" pt_clust_10="39.44667"></scales>
<clustering>
<clus scale="   39.447">  1 10  2 -1</clus>
<clus scale="   44.131">  2  9  1 -1</clus>
<clus scale="   90.902">  5  6 -1 -1</clus>
<clus scale="   92.421">  7  8 -1 -1</clus>
<clus scale="  114.513">  1  5  2 -1</clus>
<clus scale="   44.131">  2  5  1 -1</clus>
</clustering>
</event>
<event>
10    2  0.2445576E-006  0.1668736E+03  0.7546771E-02  0.1181441E+00
         -1   -1    0    0    0  501 -0.00000000000E+00  0.00000000000E+00  0.10709682170E+04  0.10709682170E+04  0.00000000000E+00 0.  1.
          1   -1    0    0  502    0  0.00000000000E+00 -0.00000000000E+00 -0.37798337377E+03  0.37798337377E+03  0.00000000000E+00 0. -1.
         23    2    1    2    0    0 -0.59030731596E+02 -0.18729285830E+03  0.91355178458E+03  0.93872202375E+03  0.89771558528E+02 0.  0.
         23    2    1    2    0    0  0.23903646108E+02  0.12796328521E+03 -0.20353140958E+03  0.25844577494E+03  0.91777977978E+02 0.  0.
        -11    1    3    3    0    0 -0.34995528371E+01 -0.97342319327E+02  0.28113121726E+03  0.29752736903E+03  0.00000000000E+00 0. -1.
         11    1    3    3    0    0 -0.55531178759E+02 -0.89950538971E+02  0.63242056731E+03  0.64119465472E+03  0.00000000000E+00 0.  1.
        -13    1    4    4    0    0 -0.30047874339E+02  0.13920195439E+02 -0.42072945654E+02  0.53542313635E+02  0.00000000000E+00 0.  1.
         13    1    4    4    0    0  0.53951520447E+02  0.11404308977E+03 -0.16145846393E+03  0.20490346131E+03  0.00000000000E+00 0. -1.
         21    1    1    2  502  503  0.20105586556E+02  0.30576483166E+01 -0.12632083400E+03  0.12794739906E+03  0.00000000000E+00 0. -1.
         21    1    1    2  503  501  0.15021498933E+02  0.56271924773E+02  0.10928530219E+03  0.12383639297E+03  0.00000000000E+00 0. -1.
<scales pt_clust_5="13000.00000" pt_clust_6="13000.00000" pt_clust_7="13000.00000" pt_clust_8="13000.00000" pt_clust_9="20.33676" pt_clust_10="58.48096"></scales>
<clustering>
<clus scale="   20.337">  2  9  1 -1</clus>
<clus scale="   58.481">  1 10  2 -1</clus>
<clus scale="   89.772">  5  6 -1 -1</clus>
<clus scale="   91.778">  7  8 -1 -1</clus>
<clus scale="  165.779">  1  5  2 -1</clus>
<clus scale="   20.337">  2  5  1 -1</clus>
</clustering>
</event>
<event>
10    2  0.2445576E-006  0.1449991E+03  0.7546771E-02  0.1220371E+00
         -2   -1    0    0    0  501 -0.00000000000E+00  0.00000000000E+00  0.75386054304E+02  0.75386054304E+02  0.00000000000E+00 0.  1.
          2   -1    0    0  502    0  0.00000000000E+00 -0.00000000000E+00 -0.10340723585E+04  0.10340723585E+04  0.00000000000E+00 0. -1.
         23    2    1    2    0    0 -0.26517210635E+02 -0.16852378408E+02 -0.11376550455E+03  0.15285821015E+03  0.97138443815E+02 0.  0.
         23    2    1    2    0    0 -0.97864663218E+02  0.14983914799E+02 -0.17617491593E+03  0.22139139166E+03  0.90413147752E+02 0.  0.
        -11    1    3    3    0    0 -0.32753078209E+01 -0.35153766767E+02  0.35193614749E-02  0.35306018915E+02  0.00000000000E+00 0.  1.
         11    1    3    3    0    0 -0.23241902814E+02  0.18301388359E+02 -0.11376902391E+03  0.11755219124E+03  0.00000000000E+00 0. -1.
        -13    1    4    4    0    0 -0.63028842602E+01  0.38698002727E+02 -0.58363681767E+02  0.70310604567E+02  0.00000000000E+00 0.  1.
         13    1    4    4    0    0 -0.91561778958E+02 -0.23714087928E+02 -0.11781123417E+03  0.15108078709E+03  0.00000000000E+00 0. -1.
         21    1    1    2  502  503  0.99655661652E+02  0.72729675568E+02 -0.64470158333E+03  0.65640002145E+03  0.00000000000E+00 0. -1.
         21    1    1    2  503  501  0.24726212201E+02 -0.70861211959E+02 -0.24044300388E+02  0.78808789556E+02  0.00000000000E+00 0.  1.
<scales pt_clust_5="13000.00000" pt_clust_6="13000.00000" pt_clust_7="13000.00000" pt_clust_8="13000.00000" pt_clust_9="113.35869" pt_clust_10="75.05130"></scales>
<clustering>
<clus scale="   75.051">  1 10  2 -1</clus>
<clus scale="   90.413">  7  8 -1 -1</clus>
<clus scale="   97.138">  5  6 -1 -1</clus>
<clus scale="  108.607">  1  5  2 -1</clus>
<clus scale="  113.359">  2  9  1 -1</clus>
<clus scale="  113.359">  2  5  1 -1</clus>
</clustering>
</event>
<event>
10    2  0.2445576E-006  0.1166153E+03  0.7546771E-02  0.1250240E+00
         -1   -1    0    0    0  501 -0.00000000000E+00  0.00000000000E+00  0.41402547156E+03  0.41402547156E+03  0.00000000000E+00 0.  1.
          1   -1    0    0  502    0  0.00000000000E+00 -0.00000000000E+00 -0.88969487631E+02  0.88969487631E+02  0.00000000000E+00 0. -1.
         23    2    1    2    0    0  0.69423313811E+02  0.26599122425E+02  0.13913223002E+03  0.18878408479E+03  0.10370411478E+03 0.  0.
         23    2    1    2    0    0 -0.19487048014E+02 -0.47950840718E+02 -0.45826113757E+00  0.11254405361E+03  0.99934607787E+02 0.  0.
        -11    1    4    4    0    0  0.61615547262E+01 -0.72481105137E+02  0.14252138797E+02  0.74125561170E+02  0.00000000000E+00 0. -1.
         11    1    4    4    0    0 -0.25648602740E+02  0.24530264419E+02 -0.14710399934E+02  0.38418492438E+02  0.00000000000E+00 0.  1.
        -13    1    3    3    0    0  0.82525670327E+02  0.47718486372E+02  0.79317211139E+02  0.12401112929E+03  0.00000000000E+00 0.  1.
         13    1    3    3    0    0 -0.13102356516E+02 -0.21119363947E+02  0.59815018882E+02  0.64772955496E+02  0.00000000000E+00 0. -1.
         21    1    1    2  502  503 -0.25803748793E+02  0.10276565905E+02  0.22773306877E+02  0.35917471580E+02  0.00000000000E+00 0. -1.
         21    1    1    2  503  501 -0.24132517004E+02  0.11075152388E+02  0.16360870817E+03  0.16574934922E+03  0.00000000000E+00 0. -1.
<scales pt_clust_5="13000.00000" pt_clust_6="13000.00000" pt_clust_7="13000.00000" pt_clust_8="13000.00000" pt_clust_9="30.89609" pt_clust_10="26.55254"></scales>
<clustering>
<clus scale="   26.553">  1 10  2 -1</clus>
<clus scale="   30.896">  1  9  2 -1</clus>
<clus scale="   99.935">  5  6 -1 -1</clus>
<clus scale="  103.704">  7  8 -1 -1</clus>
<clus scale="  113.276">  2  5  1 -1</clus>
<clus scale="  113.276">  2  5  1 -1</clus>
</clustering>
</event>
<event>
10    2  0.2445576E-006  0.1450941E+03  0.7546771E-02  0.1209710E+00
         -3   -1    0    0    0  501 -0.00000000000E+00  0.00000000000E+00  0.22698901395E+03  0.22698901395E+03  0.00000000000E+00 0.  1.
          3   -1    0    0  502    0  0.00000000000E+00 -0.00000000000E+00 -0.24352197327E+03  0.24352197327E+03  0.00000000000E+00 0. -1.
         23    2    1    2    0    0 -0.10439170931E+03  0.99038418200E+02  0.60214303063E+02  0.17122140824E+03  0.70602911372E+02 0.  0.
         23    2    1    2    0    0  0.11287893719E+03  0.61497467931E+01 -0.75483158001E+02  0.16143360562E+03  0.87084028599E+02 0.  0.
        -11    1    3    3    0    0 -0.55882212988E+02  0.92657258104E+02  0.25324929210E+02  0.11112848981E+03  0.00000000000E+00 0. -1.
         11    1    3    3    0    0 -0.48509496324E+02  0.63811600955E+01  0.34889373854E+02  0.60092918432E+02  0.00000000000E+00 0.  1.
        -11    1    4    4    0    0  0.39338225130E+02 -0.34853545974E+02 -0.52198879022E+02  0.74074210050E+02  0.00000000000E+00 0.  1.
         11    1    4    4    0    0  0.73540712056E+02  0.41003292767E+02 -0.23284278979E+02  0.87359395574E+02  0.00000000000E+00 0. -1.
         21    1    1    2  502  503 -0.37645128480E+02 -0.91824738429E+02 -0.19237314974E+02  0.10108913183E+03  0.00000000000E+00 0. -1.
         21    1    1    2  503  501  0.29157900606E+02 -0.13363426564E+02  0.17973210586E+02  0.36766841530E+02  0.00000000000E+00 0.  1.
<scales pt_clust_5="13000.00000" pt_clust_6="13000.00000" pt_clust_7="13000.00000" pt_clust_8="13000.00000" pt_clust_9="99.72591" pt_clust_10="32.07436"></scales>
<clustering>
<clus scale="   32.074">  1 10  2 -1</clus>
<clus scale="   70.603">  5  6 -1 -1</clus>
<clus scale="   87.084">  7  8 -1 -1</clus>
<clus scale="   99.726">  2  9  1 -1</clus>
<clus scale="  135.843">  1  5  2 -1</clus>
<clus scale="   99.726">  2  5  1 -1</clus>
</clustering>
</event>
<event>
10    2  0.2445576E-006  0.1671785E+03  0.7546771E-02  0.1180945E+00
          2   -1    0    0  502    0  0.00000000000E+00  0.00000000000E+00  0.15034804156E+03  0.15034804156E+03  0.00000000000E+00 0. -1.
         -2   -1    0    0    0  501 -0.00000000000E+00 -0.00000000000E+00 -0.56884923267E+03  0.56884923267E+03  0.00000000000E+00 0.  1.
         23    2    1    2    0    0 -0.83152383308E+02  0.71047367361E+02 -0.31395670935E+03  0.34525863596E+03  0.93127134072E+02 0.  0.
         23    2    1    2    0    0  0.14327806560E+03 -0.84105551514E+02 -0.13319040070E+03  0.23208014308E+03  0.92299307129E+02 0.  0.
        -11    1    3    3    0    0 -0.56628749622E+02 -0.93164613096E+01 -0.15301379064E+03  0.16342225021E+03  0.00000000000E+00 0. -1.
         11    1    3    3    0    0 -0.26523633686E+02  0.80363828671E+02 -0.16094291871E+03  0.18183638576E+03  0.00000000000E+00 0.  1.
        -13    1    4    4    0    0  0.50382496345E+02 -0.80465905462E+02 -0.84690265471E+02  0.12722263535E+03  0.00000000000E+00 0. -1.
         13    1    4    4    0    0  0.92895569253E+02 -0.36396460516E+01 -0.48500135229E+02  0.10485750773E+03  0.00000000000E+00 0.  1.
         21    1    1    2  502  503 -0.20709431616E+02  0.93556027848E+01  0.76469318048E+02  0.79774459973E+02  0.00000000000E+00 0. -1.
         21    1    1    2  503  501 -0.39416250675E+02  0.37025813678E+01 -0.47823399101E+02  0.62084035207E+02  0.00000000000E+00 0. -1.
<scales pt_clust_5="13000.00000" pt_clust_6="13000.00000" pt_clust_7="13000.00000" pt_clust_8="13000.00000" pt_clust_9="22.72461" pt_clust_10="41.71803"></scales>
<clustering>
<clus scale="   22.725">  1  9  2 -1</clus>
<clus scale="   41.718">  2 10  1 -1</clus>
<clus scale="   92.299">  7  8 -1 -1</clus>
<clus scale="   93.127">  5  6 -1 -1</clus>
<clus scale="  166.719">  1  7  2 -1</clus>
<clus scale="   22.725">  1  5  2 -1</clus>
</clustering>
</event>
<event>
10    2  0.2445576E-006  0.1337591E+03  0.7546771E-02  0.1223795E+00
          2   -1    0    0  502    0  0.00000000000E+00  0.00000000000E+00  0.72184304064E+03  0.72184304064E+03  0.00000000000E+00 0. -1.
         -2   -1    0    0    0  501 -0.00000000000E+00 -0.00000000000E+00 -0.52971820966E+02  0.52971820966E+02  0.00000000000E+00 0.  1.
         23    2    1    2    0    0 -0.12314979302E+02  0.61190376707E+02  0.18429210382E+03  0.21233410491E+03  0.85007480025E+02 0.  0.
         23    2    1    2    0    0  0.71135698811E+02 -0.12112427358E+03  0.39417532027E+03  0.42852947764E+03  0.92368570397E+02 0.  0.
        -11    1    3    3    0    0  0.24896377056E+02 -0.15971952856E+00  0.92686791708E+02  0.95972373410E+02  0.00000000000E+00 0. -1.
         11    1    3    3    0    0 -0.37211356359E+02  0.61350096235E+02  0.91605312108E+02  0.11636173150E+03  0.00000000000E+00 0.  1.
        -13    1    4    4    0    0  0.47316179731E+02 -0.12549735892E+03  0.37292707659E+03  0.39631176164E+03  0.00000000000E+00 0. -1.
         13    1    4    4    0    0  0.23819519080E+02  0.43730853374E+01  0.21248243681E+02  0.32217715997E+02  0.00000000000E+00 0.  1.
         21    1    1    2  502  503 -0.27977474862E+02  0.75692227705E+01  0.58562120158E+02  0.65341825429E+02  0.00000000000E+00 0.  1.
         21    1    1    2  503  501 -0.30843244646E+02  0.52364674101E+02  0.31841675428E+02  0.68609453635E+02  0.00000000000E+00 0.  1.
<scales pt_clust_5="13000.00000" pt_clust_6="13000.00000" pt_clust_7="13000.00000" pt_clust_8="13000.00000" pt_clust_9="28.98331" pt_clust_10="62.36925"></scales>
<clustering>
<clus scale="   28.983">  1  9  2 -1</clus>
<clus scale="   62.369">  2 10  1 -1</clus>
<clus scale="   85.007">  5  6 -1 -1</clus>
<clus scale="   92.369">  7  8 -1 -1</clus>
<clus scale="  128.786">  2  5  1 -1</clus>
<clus scale="   28.983">  1  5  2 -1</clus>
</clustering>
</event>
<event>
10    2  0.2445576E-006  0.9865828E+02  0.7546771E-02  0.1285515E+00
          3   -1    0    0  502    0  0.00000000000E+00  0.00000000000E+00  0.28107383042E+03  0.28107383042E+03  0.00000000000E+00 0. -1.
         -3   -1    0    0    0  501 -0.00000000000E+00 -0.00000000000E+00 -0.75003632364E+02  0.75003632364E+02  0.00000000000E+00 0.  1.
         23    2    1    2    0    0  0.30399222912E+02 -0.17417561839E+02  0.49265802794E+02  0.10791007729E+03  0.89386694997E+02 0.  0.
         23    2    1    2    0    0 -0.29239545683E+02 -0.16354609310E+00  0.15515446526E+03  0.18371915847E+03  0.93940637202E+02 0.  0.
        -13    1    4    4    0    0 -0.48669887562E+02 -0.18481324972E+02  0.40396679753E+02  0.65895440381E+02  0.00000000000E+00 0.  1.
         13    1    4    4    0    0  0.19430341879E+02  0.18317778879E+02  0.11475778551E+03  0.11782371808E+03  0.00000000000E+00 0. -1.
        -13    1    3    3    0    0  0.28401783719E+02  0.11116783379E+02  0.67443005545E+02  0.74018938036E+02  0.00000000000E+00 0. -1.
         13    1    3    3    0    0  0.19974391925E+01 -0.28534345217E+02 -0.18177202750E+02  0.33891139257E+02  0.00000000000E+00 0.  1.
         21    1    1    2  502  503 -0.25265368413E+02  0.11428099854E+02  0.19438432117E+02  0.33864331537E+02  0.00000000000E+00 0.  1.
         21    1    1    2  503  501  0.24105691183E+02  0.61530080779E+01 -0.17788502115E+02  0.30583895490E+02  0.00000000000E+00 0.  1.
<scales pt_clust_5="13000.00000" pt_clust_6="13000.00000" pt_clust_7="13000.00000" pt_clust_8="13000.00000" pt_clust_9="25.06949" pt_clust_10="24.87858"></scales>
<clustering>
<clus scale="   24.879">  2 10  1 -1</clus>
<clus scale="   25.069">  2  9  1 -1</clus>
<clus scale="   89.387">  7  8 -1 -1</clus>
<clus scale="   93.941">  5  6 -1 -1</clus>
<clus scale="   94.332">  2  7  1 -1</clus>
<clus scale="   98.658">  1  5  2 -1</clus>
</clustering>
</event>
<event>
10    2  0.2445576E-006  0.2029724E+03  0.7546771E-02  0.1174747E+00
         -1   -1    0    0    0  501 -0.00000000000E+00  0.00000000000E+00  0.28884436618E+03  0.28884436618E+03  0.00000000000E+00 0.  1.
          1   -1    0    0  502    0  0.00000000000E+00 -0.00000000000E+00 -0.30070123804E+03  0.30070123804E+03  0.00000000000E+00 0. -1.
         23    2    1    2    0    0  0.66630720032E+01 -0.17937928242E+03  0.86549688549E+02  0.21967283233E+03  0.92433658313E+02 0.  0.
         23    2    1    2    0    0 -0.53380612732E+02  0.39518185506E+02 -0.33769698823E+01  0.10974771438E+03  0.87303952286E+02 0.  0.
        -11    1    4    4    0    0  0.84317333446E+01  0.39132334825E+02 -0.21358302212E+02  0.45371916749E+02  0.00000000000E+00 0. -1.
         11    1    4    4    0    0 -0.61812346076E+02  0.38585068021E+00  0.17981332330E+02  0.64375797631E+02  0.00000000000E+00 0.  1.
        -13    1    3    3    0    0 -0.12129719033E+02 -0.87625650329E+02  0.89672381752E+02  0.12596237823E+03  0.00000000000E+00 0.  1.
         13    1    3    3    0    0  0.18792791036E+02 -0.91753632088E+02 -0.31226932037E+01  0.93710454108E+02  0.00000000000E+00 0. -1.
         21    1    1    2  502  503 -0.48051652180E+01 -0.41630792666E+02 -0.51697068946E+02  0.66549225753E+02  0.00000000000E+00 0. -1.
         21    1    1    2  503  501  0.51522705947E+02  0.18149188958E+03 -0.43332521583E+02  0.19357583175E+03  0.00000000000E+00 0. -1.
<scales pt_clust_5="13000.00000" pt_clust_6="13000.00000" pt_clust_7="13000.00000" pt_clust_8="13000.00000" pt_clust_9="41.90719" pt_clust_10="180.70364"></scales>
<clustering>
<clus scale="   41.907">  2  9  1 -1</clus>
<clus scale="   87.304">  5  6 -1 -1</clus>
<clus scale="   92.434">  7  8 -1 -1</clus>
<clus scale="  107.141">  2  5  1 -1</clus>
<clus scale="  180.704">  2 10  1 -1</clus>
<clus scale="   41.907">  2  5  1 -1</clus>
</clustering>
</event>
<event>
10    2  0.2445576E-006  0.9301617E+02  0.7546771E-02  0.1297100E+00
          2   -1    0    0  502    0  0.00000000000E+00  0.00000000000E+00  0.25480976557E+03  0.25480976557E+03  0.00000000000E+00 0. -1.
         -2   -1    0    0    0  501 -0.00000000000E+00 -0.00000000000E+00 -0.11760060108E+03  0.11760060108E+03  0.00000000000E+00 0.  1.
         23    2    1    2    0    0 -0.34485151028E+02  0.20664807176E+02  0.57619736379E+01  0.10149364428E+03  0.93013437691E+02 0.  0.
         23    2    1    2    0    0 -0.35406339125E+02  0.30507769170E+02  0.10967525525E+03  0.14976364231E+03  0.90643003669E+02 0.  0.
        -11    1    4    4    0    0  0.27665068803E+02  0.26908232558E+02  0.46374063541E+02  0.60332104062E+02  0.00000000000E+00 0.  1.
         11    1    4    4    0    0 -0.63071407928E+02  0.35995366123E+01  0.63301191706E+02  0.89431538247E+02  0.00000000000E+00 0. -1.
        -13    1    3    3    0    0 -0.72336106863E+01  0.26726325886E+02 -0.39545931191E+02  0.48275276206E+02  0.00000000000E+00 0.  1.
         13    1    3    3    0    0 -0.27251540342E+02 -0.60615187102E+01  0.45307904829E+02  0.53218368070E+02  0.00000000000E+00 0. -1.
         21    1    1    2  502  503  0.32194021499E+02 -0.35810926448E+02  0.51681652522E+02  0.70639016703E+02  0.00000000000E+00 0. -1.
         21    1    1    2  503  501  0.37697468654E+02 -0.15361649898E+02 -0.29909716916E+02  0.50514063354E+02  0.00000000000E+00 0.  1.
<scales pt_clust_5="13000.00000" pt_clust_6="13000.00000" pt_clust_7="13000.00000" pt_clust_8="13000.00000" pt_clust_9="52.68576" pt_clust_10="40.70724"></scales>
<clustering>
<clus scale="   40.707">  2 10  1 -1</clus>
<clus scale="   52.686">  1  9  2 -1</clus>
<clus scale="   90.643">  5  6 -1 -1</clus>
<clus scale="   90.646">  1  5  2 -1</clus>
<clus scale="   93.013">  7  8 -1 -1</clus>
<clus scale="   52.686">  1  5  2 -1</clus>
</clustering>
</event>
<event>
10    2  0.2445576E-006  0.1380649E+03  0.7546771E-02  0.1231721E+00
          1   -1    0    0  502    0  0.00000000000E+00  0.00000000000E+00  0.67241375973E+03  0.67241375973E+03  0.00000000000E+00 0. -1.
         -1   -1    0    0    0  501 -0.00000000000E+00 -0.00000000000E+00 -0.96065436669E+02  0.96065436669E+02  0.00000000000E+00 0.  1.
         23    2    1    2    0    0  0.23330637960E+02 -0.38768347945E+02  0.24432903507E+02  0.10515412650E+03  0.91723061861E+02 0.  0.
         23    2    1    2    0    0  0.20344978071E+02 -0.76151726555E+02  0.46196473621E+02  0.13117058633E+03  0.94120162308E+02 0.  0.
        -11    1    4    4    0    0 -0.24257899264E+02 -0.18953296354E+02  0.49801300534E+02  0.58547780951E+02  0.00000000000E+00 0. -1.
         11    1    4    4    0    0  0.44602877335E+02 -0.57198430201E+02 -0.36048269127E+01  0.72622805379E+02  0.00000000000E+00 0.  1.
        -13    1    3    3    0    0 -0.32398090701E+02 -0.16247302048E+02 -0.76176451814E+01  0.37035653403E+02  0.00000000000E+00 0. -1.
         13    1    3    3    0    0  0.55728728661E+02 -0.22521045896E+02  0.32050548689E+02  0.68118473101E+02  0.00000000000E+00 0.  1.
         21    1    1    2  502  503 -0.49163941795E+02  0.91735033491E+02  0.49535722736E+03  0.50617308526E+03  0.00000000000E+00 0. -1.
         21    1    1    2  503  501  0.54883257637E+01  0.23185041009E+02  0.10361718574E+02  0.25981398309E+02  0.00000000000E+00 0. -1.
<scales pt_clust_5="13000.00000" pt_clust_6="13000.00000" pt_clust_7="13000.00000" pt_clust_8="13000.00000" pt_clust_9="101.01143" pt_clust_10="23.82578"></scales>
<clustering>
<clus scale="   23.826">  2 10  1 -1</clus>
<clus scale="   91.723">  7  8 -1 -1</clus>
<clus scale="   94.120">  5  6 -1 -1</clus>
<clus scale="   99.369">  2  7  1 -1</clus>
<clus scale="  101.011">  1  9  2 -1</clus>
<clus scale="  101.011">  1  5  2 -1</clus>
</clustering>
</event>
<event>
10    2  0.2445576E-006  0.2898959E+03  0.7546771E-02  0.1090407E+00
          1   -1    0    0  502    0  0.00000000000E+00  0.00000000000E+00  0.85481746709E+03  0.85481746709E+03  0.00000000000E+00 0. -1.
         -1   -1    0    0    0  501 -0.00000000000E+00 -0.00000000000E+00 -0.21124146253E+03  0.21124146253E+03  0.00000000000E+00 0.  1.
         23    2    1    2    0    0 -0.22003400549E+03  0.51838450227E+02  0.30982684297E+02  0.24592247706E+03  0.91737394245E+02 0.  0.
         23    2    1    2    0    0  0.30412674159E+03 -0.38279320844E+02  0.61233478133E+03  0.69090116241E+03  0.91826741392E+02 0.  0.
        -13    1    3    3    0    0 -0.31792905250E+02 -0.21726561741E+02 -0.98191661659E+01  0.39739757593E+02  0.00000000000E+00 0.  1.
         13    1    3    3    0    0 -0.18824110024E+03  0.73565011968E+02  0.40801850463E+02  0.20618271947E+03  0.00000000000E+00 0. -1.
        -13    1    4    4    0    0  0.25109275637E+03 -0.17941837504E+02  0.55864280477E+03  0.61274078137E+03  0.00000000000E+00 0. -1.
         13    1    4    4    0    0  0.53033985218E+02 -0.20337483340E+02  0.53691976563E+02  0.78160381038E+02  0.00000000000E+00 0.  1.
         21    1    1    2  502  503 -0.16123565622E+02  0.21908045374E+02  0.35610231443E+02  0.44810940672E+02  0.00000000000E+00 0.  1.
         21    1    1    2  503  501 -0.67969170479E+02 -0.35467174757E+02 -0.35351692511E+02  0.84424349475E+02  0.00000000000E+00 0. -1.
<scales pt_clust_5="13000.00000" pt_clust_6="13000.00000" pt_clust_7="13000.00000" pt_clust_8="13000.00000" pt_clust_9="27.20169" pt_clust_10="76.79590"></scales>
<clustering>
<clus scale="   27.202">  1  9  2 -1</clus>
<clus scale="   76.796">  2 10  1 -1</clus>
<clus scale="   91.737">  5  6 -1 -1</clus>
<clus scale="   91.827">  7  8 -1 -1</clus>
<clus scale="  289.868">  2  5  1 -1</clus>
<clus scale="   27.202">  1  5  2 -1</clus>
</clustering>
</event>
<event>
10    2  0.2445576E-006  0.9145699E+02  0.7546771E-02  0.1304578E+00
          1   -1    0    0  502    0  0.00000000000E+00  0.00000000000E+00  0.70112624067E+03  0.70112624067E+03  0.00000000000E+00 0. -1.
         -1   -1    0    0    0  501 -0.00000000000E+00 -0.00000000000E+00 -0.14121172137E+03  0.14121172137E+03  0.00000000000E+00 0.  1.
         23    2    1    2    0    0 -0.70024630517E+01  0.19129886984E+02 -0.10814612774E+03  0.13666456370E+03  0.81034751561E+02 0.  0.
         23    2    1    2    0    0  0.43314442989E+02  0.41242917358E+02  0.26397669298E+03  0.28510882837E+03  0.89589231357E+02 0.  0.
        -13    1    3    3    0    0 -0.38236664023E+02  0.11399236288E+02 -0.92803501412E+02  0.10101720120E+03  0.00000000000E+00 0.  1.
         13    1    3    3    0    0  0.31234200971E+02  0.77306506958E+01 -0.15342626326E+02  0.35647362498E+02  0.00000000000E+00 0. -1.
        -13    1    4    4    0    0 -0.78220255414E+01  0.51977865222E+02  0.99479389394E+02  0.11251236141E+03  0.00000000000E+00 0.  1.
         13    1    4    4    0    0  0.51136468531E+02 -0.10734947864E+02  0.16449730358E+03  0.17259646696E+03  0.00000000000E+00 0. -1.
         21    1    1    2  502  503  0.17611025240E+00  0.24088514450E+02  0.10038466489E+03  0.10323453147E+03  0.00000000000E+00 0.  1.
         21    1    1    2  503  501 -0.36488090190E+02 -0.84461318792E+02  0.30369928917E+03  0.31733003851E+03  0.00000000000E+00 0. -1.
<scales pt_clust_5="13000.00000" pt_clust_6="13000.00000" pt_clust_7="13000.00000" pt_clust_8="13000.00000" pt_clust_9="24.08916" pt_clust_10="80.65949"></scales>
<clustering>
<clus scale="   24.089">  1  9  2 -1</clus>
<clus scale="   80.659">  1 10  2 -1</clus>
<clus scale="   81.035">  5  6 -1 -1</clus>
<clus scale="   83.095">  2  5  1 -1</clus>
<clus scale="   89.589">  7  8 -1 -1</clus>
<clus scale="   24.089">  1  5  2 -1</clus>
</clustering>
</event>
<event>
10    2  0.2445576E-006  0.9171387E+02  0.7546771E-02  0.1300881E+00
         -1   -1    0    0    0  501 -0.00000000000E+00  0.00000000000E+00  0.94592412801E+02  0.94592412801E+02  0.00000000000E+00 0.  1.
          1   -1    0    0  503    0  0.00000000000E+00 -0.00000000000E+00 -0.36725437586E+03  0.36725437586E+03  0.00000000000E+00 0. -1.
         23    2    1    2    0    0 -0.48925879985E+01  0.41183219762E+01  0.57529266904E+01  0.88574855817E+02  0.88156173489E+02 0.  0.
         23    2    1    2    0    0  0.66726768244E+01  0.58010959355E+01 -0.31054860084E+02  0.97204508358E+02  0.91684975761E+02 0.  0.
        -11    1    3    3    0    0 -0.34511159601E+02  0.81378032001E+01  0.32771884265E+02  0.48282920129E+02  0.00000000000E+00 0.  1.
         11    1    3    3    0    0  0.29618571602E+02 -0.40194812239E+01 -0.27018957575E+02  0.40291935688E+02  0.00000000000E+00 0. -1.
        -13    1    4    4    0    0 -0.28794907452E+01  0.48313159377E+02 -0.19009410309E+02  0.51998178009E+02  0.00000000000E+00 0.  1.
         13    1    4    4    0    0  0.95521675695E+01 -0.42512063442E+02 -0.12045449775E+02  0.45206330349E+02  0.00000000000E+00 0. -1.
         21    1    1    2  502  501  0.24499126639E+02  0.10454926274E+02 -0.15615186646E+00  0.26637137100E+02  0.00000000000E+00 0.  1.
         21    1    1    2  503  502 -0.26279215465E+02 -0.20374344185E+02 -0.24720387780E+03  0.24943028738E+03  0.00000000000E+00 0. -1.
<scales pt_clust_5="13000.00000" pt_clust_6="13000.00000" pt_clust_7="13000.00000" pt_clust_8="13000.00000" pt_clust_9="26.63668" pt_clust_10="32.89976"></scales>
<clustering>
<clus scale="   26.637">  1  9  2 -1</clus>
<clus scale="   32.900">  2 10  1 -1</clus>
<clus scale="   88.156">  5  6 -1 -1</clus>
<clus scale="   88.186">  1  5  2 -1</clus>
<clus scale="   91.685">  7  8 -1 -1</clus>
<clus scale="   32.900">  2  5  1 -1</clus>
</clustering>
</event>
<event>
10    2  0.2445576E-006  0.9525725E+02  0.7546771E-02  0.1291108E+00
         -2   -1    0    0    0  501 -0.00000000000E+00  0.00000000000E+00  0.66301881114E+02  0.66301881114E+02  0.00000000000E+00 0.  1.
          2   -1    0    0  502    0  0.00000000000E+00 -0.00000000000E+00 -0.31865919951E+03  0.31865919951E+03  0.00000000000E+00 0. -1.
         23    2    1    2    0    0  0.50827977362E+02  0.12025945284E+02 -0.14381701380E+03  0.17776628633E+03  0.90495372564E+02 0.  0.
         23    2    1    2    0    0 -0.32867274833E+01  0.13830043473E+02 -0.11375577547E+03  0.14664041866E+03  0.91438302983E+02 0.  0.
        -13    1    3    3    0    0 -0.23114723397E+02 -0.11905439740E+02 -0.27233905948E+02  0.37652563874E+02  0.00000000000E+00 0.  1.
         13    1    3    3    0    0  0.73942700759E+02  0.23931385023E+02 -0.11658310785E+03  0.14011372246E+03  0.00000000000E+00 0. -1.
        -13    1    4    4    0    0 -0.38980816698E+02  0.78895814656E+01 -0.16839447335E+02  0.43189310630E+02  0.00000000000E+00 0.  1.
         13    1    4    4    0    0  0.35694089215E+02  0.59404620075E+01 -0.96916328137E+02  0.10345110803E+03  0.00000000000E+00 0. -1.
         21    1    1    2  502  503 -0.20138693308E+02 -0.54748239314E+01 -0.10030271160E+02  0.23154848407E+02  0.00000000000E+00 0.  1.
         21    1    1    2  503  501 -0.27402556571E+02 -0.20381164826E+02  0.15245742034E+02  0.37399527222E+02  0.00000000000E+00 0.  1.
<scales pt_clust_5="13000.00000" pt_clust_6="13000.00000" pt_clust_7="13000.00000" pt_clust_8="13000.00000" pt_clust_9="20.84339" pt_clust_10="60.32936"></scales>
<clustering>
<clus scale="   20.843">  9 10 -1 -1</clus>
<clus scale="   60.329">  1  9  2 -1</clus>
<clus scale="   90.495">  5  6 -1 -1</clus>
<clus scale="   91.438">  7  8 -1 -1</clus>
<clus scale="   94.352">  1  5  2 -1</clus>
<clus scale="   95.257">  2  5  1 -1</clus>
</clustering>
</event>
<event>
10    2  0.2445576E-006  0.9645857E+02  0.7546771E-02  0.1289114E+00
         -1   -1    0    0    0  501 -0.00000000000E+00  0.00000000000E+00  0.13985314622E+03  0.13985314622E+03  0.00000000000E+00 0.  1.
          1   -1    0    0  502    0  0.00000000000E+00 -0.00000000000E+00 -0.16418500269E+03  0.16418500269E+03  0.00000000000E+00 0. -1.
         23    2    1    2    0    0 -0.56225557493E+01  0.14825164644E+02  0.19205636981E+01  0.92521048458E+02  0.91132086572E+02 0.  0.
         23    2    1    2    0    0 -0.53980891620E+02  0.82600225207E+01 -0.30186970764E+02  0.11227234518E+03  0.93336282637E+02 0.  0.
        -13    1    3    3    0    0  0.25545473865E+02 -0.31430241396E+01  0.35137118584E+02  0.43555331914E+02  0.00000000000E+00 0.  1.
         13    1    3    3    0    0 -0.31168029615E+02  0.17968188783E+02 -0.33216554885E+02  0.48965716544E+02  0.00000000000E+00 0. -1.
        -13    1    4    4    0    0 -0.71884172599E+02 -0.30700879470E+01  0.39906633148E+01  0.72060287981E+02  0.00000000000E+00 0. -1.
         13    1    4    4    0    0  0.17903280979E+02  0.11330110468E+02 -0.34177634079E+02  0.40212057200E+02  0.00000000000E+00 0.  1.
         21    1    1    2  502  503  0.22179917397E+02 -0.26324866000E+02 -0.32190361348E+02  0.47129254920E+02  0.00000000000E+00 0. -1.
         21    1    1    2  503  501  0.37423529973E+02  0.32396788361E+01  0.36124911941E+02  0.52115500355E+02  0.00000000000E+00 0.  1.
<scales pt_clust_5="13000.00000" pt_clust_6="13000.00000" pt_clust_7="13000.00000" pt_clust_8="13000.00000" pt_clust_9="34.42306" pt_clust_10="38.87851"></scales>
<clustering>
<clus scale="   34.423">  2  9  1 -1</clus>
<clus scale="   38.879">  1 10  2 -1</clus>
<clus scale="   91.132">  5  6 -1 -1</clus>
<clus scale="   93.336">  7  8 -1 -1</clus>
<clus scale="   94.327">  1  5  2 -1</clus>
<clus scale="   34.423">  2  5  1 -1</clus>
</clustering>
</event>
<event>
10    2  0.2445576E-006  0.1688198E+03  0.7546771E-02  0.1179462E+00
         -2   -1    0    0    0  501 -0.00000000000E+00  0.00000000000E+00  0.40356094484E+03  0.40356094484E+03  0.00000000000E+00 0.  1.
          2   -1    0    0  502    0  0.00000000000E+00 -0.00000000000E+00 -0.34194423066E+03  0.34194423066E+03  0.00000000000E+00 0. -1.
         23    2    1    2    0    0 -0.16609694427E+03 -0.14275454161E+02  0.92277839786E+02  0.21115593227E+03  0.90992552060E+02 0.  0.
         23    2    1    2    0    0  0.10832352276E+03  0.49280192484E+02 -0.23689741067E+03  0.28114532315E+03  0.93593731590E+02 0.  0.
        -13    1    3    3    0    0 -0.11287588765E+01  0.20973022759E+02  0.13570343919E+02  0.25005919585E+02  0.00000000000E+00 0. -1.
         13    1    3    3    0    0 -0.16496818539E+03 -0.35248476920E+02  0.78707495868E+02  0.18615001268E+03  0.00000000000E+00 0.  1.
        -13    1    4    4    0    0  0.25641684823E+02  0.57561115294E+02 -0.13980123485E+03  0.15334654630E+03  0.00000000000E+00 0.  1.
         13    1    4    4    0    0  0.82681837937E+02 -0.82809228097E+01 -0.97096175813E+02  0.12779877685E+03  0.00000000000E+00 0. -1.
         21    1    1    2  502  503  0.24165724585E+02 -0.95939225226E+00 -0.13923625996E+02  0.27906451567E+02  0.00000000000E+00 0. -1.
         21    1    1    2  503  501  0.33607696923E+02 -0.34045346071E+02  0.22015991106E+03  0.22529746851E+03  0.00000000000E+00 0.  1.
<scales pt_clust_5="13000.00000" pt_clust_6="13000.00000" pt_clust_7="13000.00000" pt_clust_8="13000.00000" pt_clust_9="24.18476" pt_clust_10="47.98042"></scales>
<clustering>
<clus scale="   24.185">  2  9  1 -1</clus>
<clus scale="   47.980">  1 10  2 -1</clus>
<clus scale="   90.993">  5  6 -1 -1</clus>
<clus scale="   93.594">  7  8 -1 -1</clus>
<clus scale="  167.392">  1  5  2 -1</clus>
<clus scale="   24.185">  2  5  1 -1</clus>
</clustering>
</event>
<event>
10    2  0.2445576E-006  0.1173724E+03  0.7546771E-02  0.1248830E+00
          2   -1    0    0  502    0  0.00000000000E+00  0.00000000000E+00  0.36568375584E+02  0.36568375584E+02  0.00000000000E+00 0. -1.
         -2   -1    0    0    0  501 -0.00000000000E+00 -0.00000000000E+00 -0.74762987693E+03  0.74762987693E+03  0.00000000000E+00 0.  1.
         23    2    1    2    0    0 -0.10431506363E+03 -0.30459628614E+02 -0.34745992799E+03  0.37509201484E+03  0.90311663470E+02 0.  0.
         23    2    1    2    0    0  0.44504478828E+02 -0.13381216372E+02 -0.15180940369E+03  0.18067839582E+03  0.86248954075E+02 0.  0.
        -11    1    4    4    0    0  0.69856363113E+02 -0.23195005206E+01 -0.11600375102E+03  0.13543323743E+03  0.00000000000E+00 0.  1.
         11    1    4    4    0    0 -0.25351884285E+02 -0.11061715852E+02 -0.35805652669E+02  0.45245158387E+02  0.00000000000E+00 0. -1.
        -13    1    3    3    0    0 -0.88060440108E+02  0.46472339527E+01 -0.15103701573E+03  0.17489544881E+03  0.00000000000E+00 0. -1.
         13    1    3    3    0    0 -0.16254623518E+02 -0.35106862567E+02 -0.19642291227E+03  0.20019656603E+03  0.00000000000E+00 0.  1.
         21    1    1    2  502  503  0.51374914845E+02  0.22984510136E+02 -0.10339736657E+03  0.11772291619E+03  0.00000000000E+00 0.  1.
         21    1    1    2  503  501  0.84356699530E+01  0.20856334851E+02 -0.10839480309E+03  0.11070492567E+03  0.00000000000E+00 0.  1.
<scales pt_clust_5="13000.00000" pt_clust_6="13000.00000" pt_clust_7="13000.00000" pt_clust_8="13000.00000" pt_clust_9="59.15379" pt_clust_10="22.49772"></scales>
<clustering>
<clus scale="   22.498">  2 10  1 -1</clus>
<clus scale="   59.154">  1  9  2 -1</clus>
<clus scale="   86.249">  5  6 -1 -1</clus>
<clus scale="   90.312">  7  8 -1 -1</clus>
<clus scale="  114.276">  1  5  2 -1</clus>
<clus scale="   59.154">  1  5  2 -1</clus>
</clustering>
</event>
<event>
10    2  0.2445576E-006  0.1510017E+03  0.7546771E-02  0.1220401E+00
         -2   -1    0    0    0  501 -0.00000000000E+00  0.00000000000E+00  0.51530938086E+02  0.51530938086E+02  0.00000000000E+00 0.  1.
          2   -1    0    0  502    0  0.00000000000E+00 -0.00000000000E+00 -0.13683850617E+04  0.13683850617E+04  0.00000000000E+00 0. -1.
         23    2    1    2    0    0  0.16991105602E+03 -0.22941730782E+02 -0.46257180075E+03  0.50313091859E+03  0.98853226697E+02 0.  0.
         23    2    1    2    0    0  0.14191271824E+00 -0.13909612594E+02 -0.37465073221E+03  0.38539895192E+03  0.89306682470E+02 0.  0.
        -13    1    4    4    0    0  0.43417583456E+02 -0.58386155307E+00 -0.22052867169E+03  0.22476281384E+03  0.00000000000E+00 0.  1.
         13    1    4    4    0    0 -0.43275670738E+02 -0.13325751040E+02 -0.15412206052E+03  0.16063613808E+03  0.00000000000E+00 0. -1.
        -13    1    3    3    0    0  0.12973885413E+03  0.23515975015E+02 -0.36227202345E+03  0.38552067432E+03  0.00000000000E+00 0. -1.
         13    1    3    3    0    0  0.40172201894E+02 -0.46457705796E+02 -0.10029977730E+03  0.11761024428E+03  0.00000000000E+00 0.  1.
         21    1    1    2  502  503 -0.79747572858E+02 -0.10047405314E+02 -0.38200680251E+03  0.39037139098E+03  0.00000000000E+00 0. -1.
         21    1    1    2  503  501 -0.90305395881E+02  0.46898748690E+02 -0.97624788126E+02  0.14101473827E+03  0.00000000000E+00 0. -1.
<scales pt_clust_5="13000.00000" pt_clust_6="13000.00000" pt_clust_7="13000.00000" pt_clust_8="13000.00000" pt_clust_9="80.37802" pt_clust_10="114.14710"></scales>
<clustering>
<clus scale="   80.378">  2  9  1 -1</clus>
<clus scale="   89.307">  5  6 -1 -1</clus>
<clus scale="   96.103">  2  5  1 -1</clus>
<clus scale="   98.853">  7  8 -1 -1</clus>
<clus scale="  114.147">  1 10  2 -1</clus>
<clus scale="   80.378">  2  5  1 -1</clus>
</clustering>
</event>
<event>
10    2  0.2445576E-006  0.1505589E+03  0.7546771E-02  0.1200210E+00
          1   -1    0    0  502    0  0.00000000000E+00  0.00000000000E+00  0.37096402447E+03  0.37096402447E+03  0.00000000000E+00 0. -1.
         -1   -1    0    0    0  501 -0.00000000000E+00 -0.00000000000E+00 -0.21293602021E+03  0.21293602021E+03  0.00000000000E+00 0.  1.
         23    2    1    2    0    0 -0.46707322646E+02 -0.95556770053E+02  0.48140950532E+01  0.13973485128E+03  0.90498524081E+02 0.  0.
         23    2    1    2    0    0  0.15945295395E+03  0.12807315226E+02  0.10763860996E+03  0.21202208331E+03  0.88193092766E+02 0.  0.
        -11    1    3    3    0    0  0.24613497389E+02 -0.30169821244E+02  0.16471569654E+02  0.42277121171E+02  0.00000000000E+00 0. -1.
         11    1    3    3    0    0 -0.71320820035E+02 -0.65386948808E+02 -0.11657474601E+02  0.97457730114E+02  0.00000000000E+00 0.  1.
        -11    1    4    4    0    0  0.27425352353E+02 -0.21907420989E+02 -0.44554122676E+01  0.35382704031E+02  0.00000000000E+00 0.  1.
         11    1    4    4    0    0  0.13202760160E+03  0.34714736215E+02  0.11209402223E+03  0.17663937928E+03  0.00000000000E+00 0. -1.
         21    1    1    2  502  503 -0.12128396206E+02  0.20850831962E+02  0.99429914386E+02  0.10231404138E+03  0.00000000000E+00 0.  1.
         21    1    1    2  503  501 -0.10061723510E+03  0.61898622865E+02 -0.53854615142E+02  0.12982906871E+03  0.00000000000E+00 0.  1.
<scales pt_clust_5="13000.00000" pt_clust_6="13000.00000" pt_clust_7="13000.00000" pt_clust_8="13000.00000" pt_clust_9="24.12167" pt_clust_10="121.13253"></scales>
<clustering>
<clus scale="   24.122">  1  9  2 -1</clus>
<clus scale="   88.193">  7  8 -1 -1</clus>
<clus scale="   90.499">  5  6 -1 -1</clus>
<clus scale="  121.133">  2 10  1 -1</clus>
<clus scale="  149.185">  1  7  2 -1</clus>
<clus scale="   24.122">  1  5  2 -1</clus>
</clustering>
</event>
<event>
10    2  0.2445576E-006  0.4583973E+03  0.7546771E-02  0.1025279E+00
          1   -1    0    0  502    0  0.00000000000E+00  0.00000000000E+00  0.14117261576E+04  0.14117261576E+04  0.00000000000E+00 0. -1.
         -1   -1    0    0    0  501 -0.00000000000E+00 -0.00000000000E+00 -0.33762083203E+03  0.33762083203E+03  0.00000000000E+00 0.  1.
         23    2    1    2    0    0 -0.40012954350E+03  0.13449225375E+03  0.13572085848E+03  0.45233604558E+03  0.89419957524E+02 0.  0.
         23    2    1    2    0    0  0.45379525819E+03 -0.26119390840E+03  0.32193484056E+03  0.62144364832E+03  0.91639360136E+02 0.  0.
        -11    1    3    3    0    0 -0.21490634313E+03  0.80717131624E+02  0.11944248884E+03  0.25877886273E+03  0.00000000000E+00 0. -1.
         11    1    3    3    0    0 -0.18522320037E+03  0.53775122122E+02  0.16278369640E+02  0.19355718285E+03  0.00000000000E+00 0.  1.
        -13    1    4    4    0    0  0.43855275666E+03 -0.23735833135E+03  0.28318485837E+03  0.57346417661E+03  0.00000000000E+00 0.  1.
         13    1    4    4    0    0  0.15242501528E+02 -0.23835577050E+02  0.38749982192E+02  0.47979471715E+02  0.00000000000E+00 0. -1.
         21    1    1    2  502  503 -0.98311038895E+02  0.13377978461E+03  0.60712228796E+03  0.62941207780E+03  0.00000000000E+00 0. -1.
         21    1    1    2  503  501  0.44645324206E+02 -0.70781299560E+01  0.93273385576E+01  0.46155217925E+02  0.00000000000E+00 0. -1.
<scales pt_clust_5="13000.00000" pt_clust_6="13000.00000" pt_clust_7="13000.00000" pt_clust_8="13000.00000" pt_clust_9="164.89989" pt_clust_10="45.20293"></scales>
<clustering>
<clus scale="   45.203">  2 10  1 -1</clus>
<clus scale="   89.420">  5  6 -1 -1</clus>
<clus scale="   91.639">  7  8 -1 -1</clus>
<clus scale="  164.900">  1  9  2 -1</clus>
<clus scale="  457.959">  2  5  1 -1</clus>
<clus scale="  164.900">  1  5  2 -1</clus>
</clustering>
</event>
<event>
10    2  0.2445576E-006  0.1153899E+03  0.7546771E-02  0.1251991E+00
         -1   -1    0    0    0  501 -0.00000000000E+00  0.00000000000E+00  0.26366284497E+03  0.26366284497E+03  0.00000000000E+00 0.  1.
          1   -1    0    0  502    0  0.00000000000E+00 -0.00000000000E+00 -0.49543871478E+03  0.49543871478E+03  0.00000000000E+00 0. -1.
         23    2    1    2    0    0 -0.10014096987E+03 -0.20945518832E+01 -0.10670194503E+03  0.17115429643E+03  0.88746194957E+02 0.  0.
         23    2    1    2    0    0  0.35153242262E+02  0.69245801303E+01 -0.28108882090E+03  0.29788648313E+03  0.91878894968E+02 0.  0.
        -11    1    3    3    0    0 -0.28197854984E+02 -0.52705184124E+01 -0.93679426323E+02  0.97973120326E+02  0.00000000000E+00 0. -1.
         11    1    3    3    0    0 -0.71943114885E+02  0.31759665291E+01 -0.13022518709E+02  0.73181176106E+02  0.00000000000E+00 0.  1.
        -13    1    4    4    0    0 -0.65323595227E+01  0.41836975564E+02 -0.15260386533E+03  0.15836964342E+03  0.00000000000E+00 0.  1.
         13    1    4    4    0    0  0.41685601785E+02 -0.34912395434E+02 -0.12848495558E+03  0.13951683970E+03  0.00000000000E+00 0. -1.
         21    1    1    2  502  503  0.37657569639E+02 -0.82746450834E+01 -0.60532320203E+02  0.71768545280E+02  0.00000000000E+00 0. -1.
         21    1    1    2  503  501  0.27330157967E+02  0.34446168364E+01  0.21654721634E+03  0.21829223491E+03  0.00000000000E+00 0.  1.
<scales pt_clust_5="13000.00000" pt_clust_6="13000.00000" pt_clust_7="13000.00000" pt_clust_8="13000.00000" pt_clust_9="41.72421" pt_clust_10="27.54638"></scales>
<clustering>
<clus scale="   27.546">  1 10  2 -1</clus>
<clus scale="   41.724">  2  9  1 -1</clus>
<clus scale="   88.746">  5  6 -1 -1</clus>
<clus scale="   91.879">  7  8 -1 -1</clus>
<clus scale="  112.911">  1  5  2 -1</clus>
<clus scale="   41.724">  2  5  1 -1</clus>
</clustering>
</event>
<event>
10    2  0.2445576E-006  0.1262114E+03  0.7546771E-02  0.1233688E+00
         -1   -1    0    0    0  501 -0.00000000000E+00  0.00000000000E+00  0.12971638424E+03  0.12971638424E+03  0.00000000000E+00 0.  1.
          1   -1    0    0  502    0  0.00000000000E+00 -0.00000000000E+00 -0.41033999440E+03  0.41033999440E+03  0.00000000000E+00 0. -1.
         23    2    1    2    0    0  0.22886166139E+02  0.14627821235E+03 -0.51905990603E+02  0.18238079332E+03  0.92991558237E+02 0.  0.
         23    2    1    2    0    0 -0.58196446264E+02 -0.44100412992E+02 -0.11549247010E+03  0.16429892053E+03  0.91235693957E+02 0.  0.
        -11    1    4    4    0    0 -0.69052871445E+02 -0.11733360975E+02 -0.10897440575E+03  0.12954301186E+03  0.00000000000E+00 0. -1.
         11    1    4    4    0    0  0.10856425181E+02 -0.32367052017E+02 -0.65180643542E+01  0.34755908662E+02  0.00000000000E+00 0.  1.
        -13    1    3    3    0    0 -0.21104796069E+02 -0.99114603449E+00 -0.56018031390E+01  0.21858064552E+02  0.00000000000E+00 0.  1.
         13    1    3    3    0    0  0.43990962208E+02  0.14726935838E+03 -0.46304187464E+02  0.16052272877E+03  0.00000000000E+00 0. -1.
         21    1    1    2  502  503  0.29004693289E+02 -0.97858369612E+01 -0.93915143474E+02  0.98777978374E+02  0.00000000000E+00 0. -1.
         21    1    1    2  503  501  0.63055868363E+01 -0.92391962397E+02 -0.19310005984E+02  0.94598686418E+02  0.00000000000E+00 0.  1.
<scales pt_clust_5="13000.00000" pt_clust_6="13000.00000" pt_clust_7="13000.00000" pt_clust_8="13000.00000" pt_clust_9="30.61102" pt_clust_10="94.87470"></scales>
<clustering>
<clus scale="   30.611">  2  9  1 -1</clus>
<clus scale="   91.236">  5  6 -1 -1</clus>
<clus scale="   92.992">  7  8 -1 -1</clus>
<clus scale="   94.875">  1 10  2 -1</clus>
<clus scale="  124.923">  2  5  1 -1</clus>
<clus scale="   30.611">  2  5  1 -1</clus>
</clustering>
</event>
<event>
10    2  0.2445576E-006  0.1061950E+03  0.7546771E-02  0.1270476E+00
          3   -1    0    0  502    0  0.00000000000E+00  0.00000000000E+00  0.24255967144E+03  0.24255967144E+03  0.00000000000E+00 0. -1.
         -3   -1    0    0    0  501 -0.00000000000E+00 -0.00000000000E+00 -0.92523462251E+02  0.92523462251E+02  0.00000000000E+00 0.  1.
         23    2    1    2    0    0  0.94925647890E+00 -0.40236542659E+02  0.40127614997E+02  0.11251241819E+03  0.97102720400E+02 0.  0.
         23    2    1    2    0    0 -0.48156797858E+02  0.32834436039E+02  0.70399818786E+02  0.12909380464E+03  0.91169614139E+02 0.  0.
        -11    1    3    3    0    0 -0.32453168940E+02 -0.22617592353E+02  0.58418784759E+02  0.70551527770E+02  0.00000000000E+00 0.  1.
         11    1    3    3    0    0  0.33402425418E+02 -0.17618950306E+02 -0.18291169762E+02  0.41960890422E+02  0.00000000000E+00 0. -1.
        -13    1    4    4    0    0 -0.27276552755E+02  0.61654478680E+02  0.63951848574E+02  0.92925367944E+02  0.00000000000E+00 0.  1.
         13    1    4    4    0    0 -0.20880245104E+02 -0.28820042641E+02  0.64479702124E+01  0.36168436700E+02  0.00000000000E+00 0. -1.
         21    1    1    2  502  503  0.24244405342E+02 -0.64967799777E+01  0.56420478869E+02  0.61751678328E+02  0.00000000000E+00 0. -1.
         21    1    1    2  503  501  0.22963136038E+02  0.13898886598E+02 -0.16911703459E+02  0.31725232532E+02  0.00000000000E+00 0. -1.
<scales pt_clust_5="13000.00000" pt_clust_6="13000.00000" pt_clust_7="13000.00000" pt_clust_8="13000.00000" pt_clust_9="25.09979" pt_clust_10="27.55305"></scales>
<clustering>
<clus scale="   25.100">  1  9  2 -1</clus>
<clus scale="   27.553">  2 10  1 -1</clus>
<clus scale="   91.170">  7  8 -1 -1</clus>
<clus scale="   97.103">  5  6 -1 -1</clus>
<clus scale="  100.798">  1  7  2 -1</clus>
<clus scale="   25.100">  1  5  2 -1</clus>
</clustering>
</event>
<event>
10    2  0.2445576E-006  0.9529043E+02  0.7546771E-02  0.1291127E+00
          2   -1    0    0  502    0  0.00000000000E+00  0.00000000000E+00  0.56573663710E+03  0.56573663710E+03  0.00000000000E+00 0. -1.
         -2   -1    0    0    0  501 -0.00000000000E+00 -0.00000000000E+00 -0.37093796807E+02  0.37093796807E+02  0.00000000000E+00 0.  1.
         23    2    1    2    0    0 -0.23306956364E+02  0.64005365729E+01  0.13658476543E+03  0.16604181946E+03  0.91270513192E+02 0.  0.
         23    2    1    2    0    0 -0.37278488422E+02 -0.44162645408E+02  0.26272343805E+03  0.28370972534E+03  0.90153083159E+02 0.  0.
        -11    1    3    3    0    0 -0.28739272326E+02  0.45379654554E+02  0.64723553016E+02  0.84109435477E+02  0.00000000000E+00 0.  1.
         11    1    3    3    0    0  0.54323159619E+01 -0.38979117981E+02  0.71861212411E+02  0.81932383980E+02  0.00000000000E+00 0. -1.
        -11    1    4    4    0    0 -0.12436044404E+02 -0.49235858625E+02  0.25043838519E+03  0.25553514387E+03  0.00000000000E+00 0. -1.
         11    1    4    4    0    0 -0.24842444018E+02  0.50732132173E+01  0.12285052853E+02  0.28174581465E+02  0.00000000000E+00 0.  1.
         21    1    1    2  502  503  0.60599140475E+01  0.20175396936E+02  0.57232559377E+02  0.60986351363E+02  0.00000000000E+00 0.  1.
         21    1    1    2  503  501  0.54525530739E+02  0.17586711899E+02  0.72102077446E+02  0.92092537753E+02  0.00000000000E+00 0.  1.
<scales pt_clust_5="13000.00000" pt_clust_6="13000.00000" pt_clust_7="13000.00000" pt_clust_8="13000.00000" pt_clust_9="21.06583" pt_clust_10="59.29638"></scales>
<clustering>
<clus scale="   21.066">  1  9  2 -1</clus>
<clus scale="   59.296">  2 10  1 -1</clus>
<clus scale="   90.153">  7  8 -1 -1</clus>
<clus scale="   91.271">  5  6 -1 -1</clus>
<clus scale="   94.221">  1  7  2 -1</clus>
<clus scale="   21.066">  1  5  2 -1</clus>
</clustering>
</event>
<event>
10    2  0.2445576E-006  0.2092570E+03  0.7546771E-02  0.1142238E+00
          1   -1    0    0  502    0  0.00000000000E+00  0.00000000000E+00  0.35904960088E+03  0.35904960088E+03  0.00000000000E+00 0. -1.
         -1   -1    0    0    0  501 -0.00000000000E+00 -0.00000000000E+00 -0.12627513634E+04  0.12627513634E+04  0.00000000000E+00 0.  1.
         23    2    1    2    0    0 -0.75852514894E+01 -0.17979134842E+03 -0.91638671135E+03  0.93838447221E+03  0.91751555489E+02 0.  0.
         23    2    1    2    0    0  0.77487804408E+02  0.15575661983E+03 -0.10209987606E+03  0.22199213942E+03  0.92691104329E+02 0.  0.
        -11    1    3    3    0    0  0.28896997597E+02 -0.41001249313E+02 -0.13695140562E+03  0.14584864215E+03  0.00000000000E+00 0. -1.
         11    1    3    3    0    0 -0.36482249086E+02 -0.13879009910E+03 -0.77943530573E+03  0.79253583006E+03  0.00000000000E+00 0.  1.
        -11    1    4    4    0    0  0.74628931208E+02  0.47800412166E+02 -0.53914484566E+02  0.10373585890E+03  0.00000000000E+00 0.  1.
         11    1    4    4    0    0  0.28588732002E+01  0.10795620766E+03 -0.48185391491E+02  0.11825628052E+03  0.00000000000E+00 0. -1.
         21    1    1    2  502  503 -0.53673515297E+02  0.38393914028E+02  0.28362407931E+03  0.29120020131E+03  0.00000000000E+00 0. -1.
         21    1    1    2  503  501 -0.16229037621E+02 -0.14359185439E+02 -0.16883925445E+03  0.17022415137E+03  0.00000000000E+00 0.  1.
<scales pt_clust_5="13000.00000" pt_clust_6="13000.00000" pt_clust_7="13000.00000" pt_clust_8="13000.00000" pt_clust_9="66.00879" pt_clust_10="21.66951"></scales>
<clustering>
<clus scale="   21.670">  2 10  1 -1</clus>
<clus scale="   66.009">  1  9  2 -1</clus>
<clus scale="   91.752">  5  6 -1 -1</clus>
<clus scale="   92.691">  7  8 -1 -1</clus>
<clus scale="  208.842">  2  5  1 -1</clus>
<clus scale="   66.009">  1  5  2 -1</clus>
</clustering>
</event>
<event>
10    2  0.2445576E-006  0.1577122E+03  0.7546771E-02  0.1192686E+00
         -2   -1    0    0    0  501 -0.00000000000E+00  0.00000000000E+00  0.77038781898E+02  0.77038781898E+02  0.00000000000E+00 0.  1.
          2   -1    0    0  502    0  0.00000000000E+00 -0.00000000000E+00 -0.49038153292E+03  0.49038153292E+03  0.00000000000E+00 0. -1.
         23    2    1    2    0    0 -0.11790865653E+03 -0.48697791803E+02 -0.12310186297E+03  0.20344439879E+03  0.99807958215E+02 0.  0.
         23    2    1    2    0    0  0.97004702950E+02  0.59365426904E+02 -0.21780703233E+03  0.26242526217E+03  0.92157194988E+02 0.  0.
        -11    1    4    4    0    0  0.23300476653E+02  0.17917486825E+02 -0.66589206039E+00  0.29400543508E+02  0.00000000000E+00 0.  1.
         11    1    4    4    0    0  0.73704226297E+02  0.41447940079E+02 -0.21714114027E+03  0.23302471867E+03  0.00000000000E+00 0. -1.
        -11    1    3    3    0    0 -0.87398906827E+02 -0.34025669844E+02 -0.13767597581E+03  0.16658628226E+03  0.00000000000E+00 0.  1.
         11    1    3    3    0    0 -0.30509749699E+02 -0.14672121958E+02  0.14574112835E+02  0.36858116533E+02  0.00000000000E+00 0. -1.
         21    1    1    2  502  503  0.84362188949E+01  0.21160189767E+02 -0.61623745945E+02  0.65699387246E+02  0.00000000000E+00 0.  1.
         21    1    1    2  503  501  0.12467734680E+02 -0.31827824868E+02 -0.10810109773E+02  0.35851266605E+02  0.00000000000E+00 0.  1.
<scales pt_clust_5="13000.00000" pt_clust_6="13000.00000" pt_clust_7="13000.00000" pt_clust_8="13000.00000" pt_clust_9="22.77989" pt_clust_10="33.28457"></scales>
<clustering>
<clus scale="   22.780">  2  9  1 -1</clus>
<clus scale="   33.285">  1 10  2 -1</clus>
<clus scale="   92.157">  5  6 -1 -1</clus>
<clus scale="   99.808">  7  8 -1 -1</clus>
<clus scale="  152.985">  2  5  1 -1</clus>
<clus scale="   22.780">  2  5  1 -1</clus>
</clustering>
</event>
<event>
10    2  0.2445576E-006  0.2370153E+03  0.7546771E-02  0.1122068E+00
          1   -1    0    0  502    0  0.00000000000E+00  0.00000000000E+00  0.70281060546E+03  0.70281060546E+03  0.00000000000E+00 0. -1.
         -1   -1    0    0    0  501 -0.00000000000E+00 -0.00000000000E+00 -0.23462561883E+03  0.23462561883E+03  0.00000000000E+00 0.  1.
         23    2    1    2    0    0 -0.15426117091E+03 -0.12692083590E+03 -0.53872396657E+02  0.22808641852E+03  0.95998811210E+02 0.  0.
         23    2    1    2    0    0  0.22914767354E+03  0.86155748801E+02  0.28626643938E+03  0.38773927447E+03  0.91988049819E+02 0.  0.
        -11    1    3    3    0    0 -0.15644047011E+03 -0.85516949404E+02 -0.55095141584E+02  0.18660719158E+03  0.00000000000E+00 0.  1.
         11    1    3    3    0    0  0.21792991969E+01 -0.41403886500E+02  0.12227449274E+01  0.41479226939E+02  0.00000000000E+00 0. -1.
        -11    1    4    4    0    0  0.18614018283E+02  0.13626644021E+02  0.83321921296E+02  0.86456403304E+02  0.00000000000E+00 0.  1.
         11    1    4    4    0    0  0.21053365526E+03  0.72529104780E+02  0.20294451808E+03  0.30128287116E+03  0.00000000000E+00 0. -1.
         21    1    1    2  502  503 -0.44437055557E+02  0.24859754759E+02  0.26903172622E+03  0.27380783230E+03  0.00000000000E+00 0. -1.
         21    1    1    2  503  501 -0.30449447070E+02  0.15905332345E+02 -0.33240782309E+02  0.47802699007E+02  0.00000000000E+00 0.  1.
<scales pt_clust_5="13000.00000" pt_clust_6="13000.00000" pt_clust_7="13000.00000" pt_clust_8="13000.00000" pt_clust_9="51.34064" pt_clust_10="34.35329"></scales>
<clustering>
<clus scale="   34.353">  2 10  1 -1</clus>
<clus scale="   51.341">  1  9  2 -1</clus>
<clus scale="   91.988">  7  8 -1 -1</clus>
<clus scale="   95.999">  5  6 -1 -1</clus>
<clus scale="  235.419">  1  7  2 -1</clus>
<clus scale="   51.341">  1  5  2 -1</clus>
</clustering>
</event>
<event>
10    2  0.2445576E-006  0.1145558E+03  0.7546771E-02  0.1256540E+00
          1   -1    0    0  502    0  0.00000000000E+00  0.00000000000E+00  0.40037112406E+03  0.40037112406E+03  0.00000000000E+00 0. -1.
         -1   -1    0    0    0  501 -0.00000000000E+00 -0.00000000000E+00 -0.85598577682E+02  0.85598577682E+02  0.00000000000E+00 0.  1.
         23    2    1    2    0    0 -0.29620772920E+02  0.17936577811E+02  0.52015650369E+02  0.10257237228E+03  0.81340965444E+02 0.  0.
         23    2    1    2    0    0  0.12419616103E+03 -0.51279063151E+02  0.18467578594E+03  0.24653912014E+03  0.92855603565E+02 0.  0.
        -11    1    4    4    0    0  0.39803980814E+02 -0.55663195813E+02  0.12688704141E+03  0.14416334324E+03  0.00000000000E+00 0. -1.
         11    1    4    4    0    0  0.84392180218E+02  0.43841326621E+01  0.57788744534E+02  0.10237577690E+03  0.00000000000E+00 0.  1.
        -13    1    3    3    0    0  0.13266282469E+02  0.22372408062E+02  0.53439366134E+02  0.59433027399E+02  0.00000000000E+00 0.  1.
         13    1    3    3    0    0 -0.42887055389E+02 -0.44358302509E+01 -0.14237157649E+01  0.43139344878E+02  0.00000000000E+00 0. -1.
         21    1    1    2  502  503 -0.71952180875E+02  0.34512811963E+02  0.81365942541E+02  0.11396783374E+03  0.00000000000E+00 0. -1.
         21    1    1    2  503  501 -0.22623207237E+02 -0.11703266228E+01 -0.32848324699E+01  0.22890375586E+02  0.00000000000E+00 0.  1.
<scales pt_clust_5="13000.00000" pt_clust_6="13000.00000" pt_clust_7="13000.00000" pt_clust_8="13000.00000" pt_clust_9="84.30837" pt_clust_10="22.65346"></scales>
<clustering>
<clus scale="   22.653">  2 10  1 -1</clus>
<clus scale="   81.341">  7  8 -1 -1</clus>
<clus scale="   84.308">  1  9  2 -1</clus>
<clus scale="   92.856">  5  6 -1 -1</clus>
<clus scale="  105.438">  2  7  1 -1</clus>
<clus scale="   84.308">  1  5  2 -1</clus>
</clustering>
</event>
<event>
10    2  0.2445576E-006  0.9102455E+02  0.7546771E-02  0.1306010E+00
         -2   -1    0    0    0  501 -0.00000000000E+00  0.00000000000E+00  0.25397023911E+03  0.25397023911E+03  0.00000000000E+00 0.  1.
          2   -1    0    0  502    0  0.00000000000E+00 -0.00000000000E+00 -0.11389351602E+03  0.11389351602E+03  0.00000000000E+00 0. -1.
         23    2    1    2    0    0 -0.41770452588E+01 -0.28050110405E+02  0.17173939771E+03  0.19126735098E+03  0.79274979815E+02 0.  0.
         23    2    1    2    0    0 -0.63184721434E+00 -0.50561000990E+01  0.16019046749E+02  0.90061280108E+02  0.88478590273E+02 0.  0.
        -13    1    3    3    0    0 -0.30272472927E+02  0.88256690751E+01  0.11209616599E+03  0.11644683543E+03  0.00000000000E+00 0.  1.
         13    1    3    3    0    0  0.26095427668E+02 -0.36875779480E+02  0.59643231719E+02  0.74820515551E+02  0.00000000000E+00 0. -1.
        -13    1    4    4    0    0  0.13271731654E+02 -0.42106966492E+02 -0.63495459561E+01  0.44603275912E+02  0.00000000000E+00 0.  1.
         13    1    4    4    0    0 -0.13903578868E+02  0.37050866393E+02  0.22368592705E+02  0.45458004195E+02  0.00000000000E+00 0. -1.
         21    1    1    2  502  503  0.15045394486E+02  0.13904958876E+02 -0.58680422560E+02  0.62153871709E+02  0.00000000000E+00 0. -1.
         21    1    1    2  503  501 -0.10236502013E+02  0.19201251628E+02  0.10998701181E+02  0.24381252331E+02  0.00000000000E+00 0. -1.
<scales pt_clust_5="13000.00000" pt_clust_6="13000.00000" pt_clust_7="13000.00000" pt_clust_8="13000.00000" pt_clust_9="20.48687" pt_clust_10="22.54593"></scales>
<clustering>
<clus scale="   20.487">  2  9  1 -1</clus>
<clus scale="   22.546">  2 10  1 -1</clus>
<clus scale="   79.275">  5  6 -1 -1</clus>
<clus scale="   82.107">  1  5  2 -1</clus>
<clus scale="   88.479">  7  8 -1 -1</clus>
<clus scale="   20.487">  2  5  1 -1</clus>
</clustering>
</event>
<event>
10    2  0.2445576E-006  0.1162749E+03  0.7546771E-02  0.1251340E+00
         -1   -1    0    0    0  501 -0.00000000000E+00  0.00000000000E+00  0.14418267318E+03  0.14418267318E+03  0.00000000000E+00 0.  1.
          1   -1    0    0  502    0  0.00000000000E+00 -0.00000000000E+00 -0.29109533743E+03  0.29109533743E+03  0.00000000000E+00 0. -1.
         23    2    1    2    0    0  0.31483872787E+02 -0.58344841845E+02 -0.33184535311E+02  0.11760380118E+03  0.91291214546E+02 0.  0.
         23    2    1    2    0    0  0.47022219379E+01  0.86130738576E+02 -0.34487861219E+02  0.12626331190E+03  0.85512550791E+02 0.  0.
        -13    1    4    4    0    0  0.25912576322E+02  0.61053362613E+02  0.13915200458E+02  0.67768779698E+02  0.00000000000E+00 0. -1.
         13    1    4    4    0    0 -0.21210354384E+02  0.25077375964E+02 -0.48403061678E+02  0.58494532207E+02  0.00000000000E+00 0.  1.
        -13    1    3    3    0    0 -0.24901694252E+02  0.46208459070E+01  0.33046495433E+01  0.25541481987E+02  0.00000000000E+00 0.  1.
         13    1    3    3    0    0  0.56385567039E+02 -0.62965687752E+02 -0.36489184855E+02  0.92062319196E+02  0.00000000000E+00 0. -1.
         21    1    1    2  502  503 -0.73760288663E+02 -0.56845646102E+02 -0.10253030276E+03  0.13850801655E+03  0.00000000000E+00 0.  1.
         21    1    1    2  503  501  0.37574193938E+02  0.29059749371E+02  0.23290035043E+02  0.52902880979E+02  0.00000000000E+00 0. -1.
<scales pt_clust_5="13000.00000" pt_clust_6="13000.00000" pt_clust_7="13000.00000" pt_clust_8="13000.00000" pt_clust_9="85.06906" pt_clust_10="47.50041"></scales>
<clustering>
<clus scale="   47.500">  1 10  2 -1</clus>
<clus scale="   85.069">  2  9  1 -1</clus>
<clus scale="   85.513">  5  6 -1 -1</clus>
<clus scale="   91.291">  7  8 -1 -1</clus>
<clus scale="  111.795">  2  5  1 -1</clus>
<clus scale="   85.069">  2  5  1 -1</clus>
</clustering>
</event>
<event>
10    2  0.2445576E-006  0.9970667E+02  0.7546771E-02  0.1281748E+00
          1   -1    0    0  502    0  0.00000000000E+00  0.00000000000E+00  0.28083176353E+03  0.28083176353E+03  0.00000000000E+00 0. -1.
         -1   -1    0    0    0  501 -0.00000000000E+00 -0.00000000000E+00 -0.13761962281E+03  0.13761962281E+03  0.00000000000E+00 0.  1.
         23    2    1    2    0    0 -0.26336097681E+02 -0.22091989997E+01 -0.65031071188E+02  0.11586119494E+03  0.92175407086E+02 0.  0.
         23    2    1    2    0    0  0.87323916725E+02 -0.36333640064E+02  0.16407041887E+03  0.21135485300E+03  0.93841204734E+02 0.  0.
        -11    1    3    3    0    0  0.22191147380E+02  0.28982921502E+02 -0.14870356625E+02  0.39415533321E+02  0.00000000000E+00 0. -1.
         11    1    3    3    0    0 -0.48527245061E+02 -0.31192120502E+02 -0.50160714563E+02  0.76445661617E+02  0.00000000000E+00 0.  1.
        -11    1    4    4    0    0  0.58390182005E+02 -0.57792927559E+02  0.15301234841E+03  0.17367272266E+03  0.00000000000E+00 0. -1.
         11    1    4    4    0    0  0.28933734719E+02  0.21459287496E+02  0.11058070461E+02  0.37682130340E+02  0.00000000000E+00 0.  1.
         21    1    1    2  502  503 -0.36704835369E+02  0.10540330665E+02  0.37600373273E+02  0.53592271647E+02  0.00000000000E+00 0.  1.
         21    1    1    2  503  501 -0.24282983674E+02  0.28002508398E+02  0.65724197612E+01  0.37643066748E+02  0.00000000000E+00 0.  1.
<scales pt_clust_5="13000.00000" pt_clust_6="13000.00000" pt_clust_7="13000.00000" pt_clust_8="13000.00000" pt_clust_9="79.82889" pt_clust_10="33.66362"></scales>
<clustering>
<clus scale="   33.664">  9 10 -1 -1</clus>
<clus scale="   79.829">  1  9  2 -1</clus>
<clus scale="   92.175">  5  6 -1 -1</clus>
<clus scale="   93.841">  7  8 -1 -1</clus>
<clus scale="   98.140">  2  5  1 -1</clus>
<clus scale="   79.829">  1  5  2 -1</clus>
</clustering>
</event>
<event>
10    2  0.2445576E-006  0.1651687E+03  0.7546771E-02  0.1183205E+00
          2   -1    0    0  502    0  0.00000000000E+00  0.00000000000E+00  0.14849742349E+03  0.14849742349E+03  0.00000000000E+00 0. -1.
         -2   -1    0    0    0  501 -0.00000000000E+00 -0.00000000000E+00 -0.39942593294E+03  0.39942593294E+03  0.00000000000E+00 0.  1.
         23    2    1    2    0    0 -0.94253578372E+02 -0.12735357574E+02 -0.13018568756E+03  0.18502536097E+03  0.90775242152E+02 0.  0.
         23    2    1    2    0    0  0.15642295676E+03  0.72103722070E+02 -0.54236437153E+02  0.20277946648E+03  0.92254174827E+02 0.  0.
        -11    1    4    4    0    0  0.14744442634E+03  0.40480225290E+02 -0.67748483815E+02  0.16723744963E+03  0.00000000000E+00 0. -1.
         11    1    4    4    0    0  0.89785304216E+01  0.31623496780E+02  0.13512046662E+02  0.35542016855E+02  0.00000000000E+00 0.  1.
        -13    1    3    3    0    0 -0.39344311080E+02 -0.42551127081E+02 -0.10012652848E+03  0.11568878483E+03  0.00000000000E+00 0.  1.
         13    1    3    3    0    0 -0.54909267292E+02  0.29815769507E+02 -0.30059159076E+02  0.69336576136E+02  0.00000000000E+00 0. -1.
         21    1    1    2  502  503  0.17575560322E+02 -0.13147282058E+02  0.22891831016E+02  0.31714149420E+02  0.00000000000E+00 0. -1.
         21    1    1    2  503  501 -0.79744938711E+02 -0.46221082437E+02 -0.89398215756E+02  0.12840437957E+03  0.00000000000E+00 0.  1.
<scales pt_clust_5="13000.00000" pt_clust_6="13000.00000" pt_clust_7="13000.00000" pt_clust_8="13000.00000" pt_clust_9="21.94883" pt_clust_10="90.84388"></scales>
<clustering>
<clus scale="   21.949">  1  9  2 -1</clus>
<clus scale="   90.775">  7  8 -1 -1</clus>
<clus scale="   90.844">  2 10  1 -1</clus>
<clus scale="   92.254">  5  6 -1 -1</clus>
<clus scale="  164.347">  2  7  1 -1</clus>
<clus scale="   21.949">  1  5  2 -1</clus>
</clustering>
</event>
<event>
10    2  0.2445576E-006  0.9932988E+02  0.7546771E-02  0.1281798E+00
         -1   -1    0    0    0  501 -0.00000000000E+00  0.00000000000E+00  0.10761343207E+03  0.10761343207E+03  0.00000000000E+00 0.  1.
          1   -1    0    0  503    0  0.00000000000E+00 -0.00000000000E+00 -0.19713034127E+03  0.19713034127E+03  0.00000000000E+00 0. -1.
         23    2    1    2    0    0  0.31691574503E+02  0.21759140634E+02  0.20462403162E+02  0.10599038928E+03  0.96630412300E+02 0.  0.
         23    2    1    2    0    0 -0.99269895921E+01 -0.16490548144E+02 -0.11679507704E+03  0.15269845256E+03  0.96463693124E+02 0.  0.
        -11    1    3    3    0    0  0.36053614511E+02  0.55464344556E+02  0.26877098006E+02  0.71404026732E+02  0.00000000000E+00 0.  1.
         11    1    3    3    0    0 -0.43620400076E+01 -0.33705203922E+02 -0.64146948443E+01  0.34586362550E+02  0.00000000000E+00 0. -1.
        -13    1    4    4    0    0 -0.25121251827E+02 -0.51339635387E+02 -0.88313426548E+02  0.10519551684E+03  0.00000000000E+00 0. -1.
         13    1    4    4    0    0  0.15194262235E+02  0.34849087243E+02 -0.28481650497E+02  0.47502935715E+02  0.00000000000E+00 0.  1.
         21    1    1    2  502  501 -0.13077573703E+02  0.17006681302E+02  0.52958517059E+01  0.22097424921E+02  0.00000000000E+00 0.  1.
         21    1    1    2  503  502 -0.86870112084E+01 -0.22275273792E+02  0.15199129729E+01  0.23957506583E+02  0.00000000000E+00 0. -1.
<scales pt_clust_5="13000.00000" pt_clust_6="13000.00000" pt_clust_7="13000.00000" pt_clust_8="13000.00000" pt_clust_9="21.45344" pt_clust_10="22.54264"></scales>
<clustering>
<clus scale="   21.453">  1  9  2 -1</clus>
<clus scale="   22.543">  1 10  2 -1</clus>
<clus scale="   96.464">  7  8 -1 -1</clus>
<clus scale="   96.630">  5  6 -1 -1</clus>
<clus scale="   99.168">  2  7  1 -1</clus>
<clus scale="   99.168">  2  5  1 -1</clus>
</clustering>
</event>
<event>
10    2  0.2445576E-006  0.9357778E+02  0.7546771E-02  0.1295121E+00
         -2   -1    0    0    0  501 -0.00000000000E+00  0.00000000000E+00  0.36377799957E+02  0.36377799957E+02  0.00000000000E+00 0.  1.
          2   -1    0    0  502    0  0.00000000000E+00 -0.00000000000E+00 -0.79408356786E+03  0.79408356786E+03  0.00000000000E+00 0. -1.
         23    2    1    2    0    0 -0.39981447018E+02  0.39502888899E+02 -0.14664740330E+03  0.18074468233E+03  0.89466110672E+02 0.  0.
         23    2    1    2    0    0  0.21466226253E+01  0.32291620874E+02 -0.27162542202E+03  0.28820115917E+03  0.90731369935E+02 0.  0.
        -11    1    4    4    0    0 -0.40645233891E+02  0.34647264026E+02 -0.15594889221E+03  0.16484090792E+03  0.00000000000E+00 0.  1.
         11    1    4    4    0    0  0.42791856516E+02 -0.23556431515E+01 -0.11567652981E+03  0.12336025125E+03  0.00000000000E+00 0. -1.
        -13    1    3    3    0    0 -0.62854933570E+02  0.31939618138E+02 -0.13832389026E+03  0.15525585495E+03  0.00000000000E+00 0.  1.
         13    1    3    3    0    0  0.22873486552E+02  0.75632707616E+01 -0.83235130395E+01  0.25488827375E+02  0.00000000000E+00 0. -1.
         21    1    1    2  502  503  0.19728753179E+02 -0.53387933903E+02 -0.32863838260E+03  0.33353063083E+03  0.00000000000E+00 0. -1.
         21    1    1    2  503  501  0.18106071214E+02 -0.18406575870E+02 -0.10794559987E+02  0.27984895486E+02  0.00000000000E+00 0. -1.
<scales pt_clust_5="13000.00000" pt_clust_6="13000.00000" pt_clust_7="13000.00000" pt_clust_8="13000.00000" pt_clust_9="58.99666" pt_clust_10="25.81921"></scales>
<clustering>
<clus scale="   25.819">  1 10  2 -1</clus>
<clus scale="   58.997">  2  9  1 -1</clus>
<clus scale="   89.466">  7  8 -1 -1</clus>
<clus scale="   90.731">  5  6 -1 -1</clus>
<clus scale="   92.352">  1  7  2 -1</clus>
<clus scale="   58.997">  2  5  1 -1</clus>
</clustering>
</event>
<event>
10    2  0.2445576E-006  0.1044847E+03  0.7546771E-02  0.1275664E+00
          1   -1    0    0  502    0  0.00000000000E+00  0.00000000000E+00  0.33865816254E+03  0.33865816254E+03  0.00000000000E+00 0. -1.
         -1   -1    0    0    0  501 -0.00000000000E+00 -0.00000000000E+00 -0.97438703083E+02  0.97438703083E+02  0.00000000000E+00 0.  1.
         23    2    1    2    0    0  0.93252382914E+02  0.62718456705E+01  0.71678716210E+01  0.12907984233E+03  0.88740545104E+02 0.  0.
         23    2    1    2    0    0 -0.12536943064E+02 -0.29008924269E+02  0.14972974242E+03  0.17189602150E+03  0.78297853183E+02 0.  0.
        -13    1    4    4    0    0  0.91607121342E+01 -0.32738253322E+02  0.14557477308E+03  0.14949155974E+03  0.00000000000E+00 0. -1.
         13    1    4    4    0    0 -0.21697655198E+02  0.37293290532E+01  0.41549693407E+01  0.22404461755E+02  0.00000000000E+00 0.  1.
        -13    1    3    3    0    0  0.74149620781E+02  0.16509792805E+02  0.42934595295E+02  0.87258919278E+02  0.00000000000E+00 0.  1.
         13    1    3    3    0    0  0.19102762133E+02 -0.10237947135E+02 -0.35766723674E+02  0.41820923053E+02  0.00000000000E+00 0. -1.
         21    1    1    2  502  503 -0.46971167781E+02  0.19498278883E+02  0.87360479767E+02  0.10108574038E+03  0.00000000000E+00 0. -1.
         21    1    1    2  503  501 -0.33744272068E+02  0.32387997162E+01 -0.30386343525E+01  0.34035261417E+02  0.00000000000E+00 0.  1.
<scales pt_clust_5="13000.00000" pt_clust_6="13000.00000" pt_clust_7="13000.00000" pt_clust_8="13000.00000" pt_clust_9="53.68306" pt_clust_10="33.89935"></scales>
<clustering>
<clus scale="   33.899">  2 10  1 -1</clus>
<clus scale="   53.683">  1  9  2 -1</clus>
<clus scale="   78.298">  5  6 -1 -1</clus>
<clus scale="   88.741">  7  8 -1 -1</clus>
<clus scale="   95.774">  1  5  2 -1</clus>
<clus scale="   53.683">  1  5  2 -1</clus>
</clustering>
</event>
<event>
10    2  0.2445576E-006  0.1804239E+03  0.7546771E-02  0.1167706E+00
         -1   -1    0    0    0  501 -0.00000000000E+00  0.00000000000E+00  0.71033253425E+03  0.71033253425E+03  0.00000000000E+00 0.  1.
          1   -1    0    0  503    0  0.00000000000E+00 -0.00000000000E+00 -0.29566123541E+03  0.29566123541E+03  0.00000000000E+00 0. -1.
         23    2    1    2    0    0 -0.78741763545E+02  0.13432867431E+03  0.60100228675E+03  0.62736219899E+03  0.90194910976E+02 0.  0.
         23    2    1    2    0    0  0.93237803993E+02 -0.11545247066E+03 -0.40996596939E+02  0.17972937392E+03  0.92732765592E+02 0.  0.
        -13    1    3    3    0    0 -0.33716366087E+02  0.52500527062E+01  0.56885528969E+02  0.66334906358E+02  0.00000000000E+00 0. -1.
         13    1    3    3    0    0 -0.45025397458E+02  0.12907862161E+03  0.54411675778E+03  0.56102729263E+03  0.00000000000E+00 0.  1.
        -13    1    4    4    0    0 -0.14839283203E+02 -0.24321551794E+02  0.88417968294E+01  0.29831519888E+02  0.00000000000E+00 0.  1.
         13    1    4    4    0    0  0.10807708720E+03 -0.91130918863E+02 -0.49838393769E+02  0.14989785403E+03  0.00000000000E+00 0. -1.
         21    1    1    2  502  501  0.24387537763E+00 -0.74385421371E+02 -0.10517384606E+03  0.12882076030E+03  0.00000000000E+00 0.  1.
         21    1    1    2  503  502 -0.14739915826E+02  0.55509217714E+02 -0.40160544901E+02  0.70081436462E+02  0.00000000000E+00 0.  1.
<scales pt_clust_5="13000.00000" pt_clust_6="13000.00000" pt_clust_7="13000.00000" pt_clust_8="13000.00000" pt_clust_9="47.88949" pt_clust_10="57.43290"></scales>
<clustering>
<clus scale="   57.433">  2 10  1 -1</clus>
<clus scale="   47.889">  2  9  1 -1</clus>
<clus scale="   90.195">  5  6 -1 -1</clus>
<clus scale="   92.733">  7  8 -1 -1</clus>
<clus scale="  179.133">  1  5  2 -1</clus>
<clus scale="   57.433">  2  5  1 -1</clus>
</clustering>
</event>
<event>
10    2  0.2445576E-006  0.1045945E+03  0.7546771E-02  0.1272295E+00
          1   -1    0    0  502    0  0.00000000000E+00  0.00000000000E+00  0.27840408565E+03  0.27840408565E+03  0.00000000000E+00 0. -1.
         -1   -1    0    0    0  501 -0.00000000000E+00 -0.00000000000E+00 -0.34826877990E+03  0.34826877990E+03  0.00000000000E+00 0.  1.
         23    2    1    2    0    0 -0.38899957626E+02 -0.18929868997E+01 -0.38956053181E+02  0.10945347997E+03  0.94581711209E+02 0.  0.
         23    2    1    2    0    0  0.48054127155E+02  0.29089183775E+02  0.75617280964E+01  0.10767236033E+03  0.91546587576E+02 0.  0.
        -11    1    4    4    0    0  0.30703584678E+02  0.62558124966E+02  0.38928627668E+01  0.69795297061E+02  0.00000000000E+00 0.  1.
         11    1    4    4    0    0  0.17350542478E+02 -0.33468941191E+02  0.36688653296E+01  0.37877063264E+02  0.00000000000E+00 0. -1.
        -13    1    3    3    0    0 -0.30789964796E+02  0.33254618968E+02 -0.53889907941E+02  0.70413164910E+02  0.00000000000E+00 0.  1.
         13    1    3    3    0    0 -0.81099928303E+01 -0.35147605868E+02  0.14933854760E+02  0.39040315059E+02  0.00000000000E+00 0. -1.
         21    1    1    2  502  503 -0.12171736787E+01 -0.52907512785E+02  0.18092581564E+03  0.18850686244E+03  0.00000000000E+00 0. -1.
         21    1    1    2  503  501 -0.79369958505E+01  0.25711315910E+02 -0.21939618481E+03  0.22104016281E+03  0.00000000000E+00 0. -1.
<scales pt_clust_5="13000.00000" pt_clust_6="13000.00000" pt_clust_7="13000.00000" pt_clust_8="13000.00000" pt_clust_9="52.16663" pt_clust_10="26.90851"></scales>
<clustering>
<clus scale="   26.909">  2 10  1 -1</clus>
<clus scale="   52.167">  1  9  2 -1</clus>
<clus scale="   91.547">  5  6 -1 -1</clus>
<clus scale="   94.582">  7  8 -1 -1</clus>
<clus scale="  101.858">  1  5  2 -1</clus>
<clus scale="   52.167">  1  5  2 -1</clus>
</clustering>
</event>
<event>
10    2  0.2445576E-006  0.3209692E+03  0.7546771E-02  0.1075226E+00
         -1   -1    0    0    0  501 -0.00000000000E+00  0.00000000000E+00  0.29034668395E+03  0.29034668395E+03  0.00000000000E+00 0.  1.
          1   -1    0    0  502    0  0.00000000000E+00 -0.00000000000E+00 -0.68292940304E+03  0.68292940304E+03  0.00000000000E+00 0. -1.
         23    2    1    2    0    0  0.32597565306E+02 -0.24174282795E+03  0.61619522395E+02  0.26738670535E+03  0.90534460450E+02 0.  0.
         23    2    1    2    0    0 -0.55486813481E+02  0.31818529262E+03 -0.42236181177E+03  0.53924364465E+03  0.89852887253E+02 0.  0.
        -11    1    3    3    0    0  0.13897021676E+02 -0.22579616134E+03  0.31332803757E+02  0.22838296407E+03  0.00000000000E+00 0. -1.
         11    1    3    3    0    0  0.18700543630E+02 -0.15946666615E+02  0.30286718637E+02  0.39003741282E+02  0.00000000000E+00 0.  1.
        -11    1    4    4    0    0  0.17790152596E+02  0.13580647597E+03 -0.20081485071E+03  0.24307713326E+03  0.00000000000E+00 0.  1.
         11    1    4    4    0    0 -0.73276966077E+02  0.18237881665E+03 -0.22154696105E+03  0.29616651139E+03  0.00000000000E+00 0. -1.
         21    1    1    2  502  503 -0.26881721439E+02  0.10196798713E+02 -0.56796458716E+02  0.63658772955E+02  0.00000000000E+00 0. -1.
         21    1    1    2  503  501  0.49770969614E+02 -0.86639263386E+02  0.24956028998E+02  0.10298696403E+03  0.00000000000E+00 0.  1.
<scales pt_clust_5="13000.00000" pt_clust_6="13000.00000" pt_clust_7="13000.00000" pt_clust_8="13000.00000" pt_clust_9="28.75068" pt_clust_10="98.53119"></scales>
<clustering>
<clus scale="   28.751">  2  9  1 -1</clus>
<clus scale="   89.853">  7  8 -1 -1</clus>
<clus scale="   90.534">  5  6 -1 -1</clus>
<clus scale="   98.531">  1 10  2 -1</clus>
<clus scale="  320.778">  2  7  1 -1</clus>
<clus scale="   28.751">  2  5  1 -1</clus>
</clustering>
</event>
<event>
10    2  0.2445576E-006  0.2558222E+03  0.7546771E-02  0.1109745E+00
          3   -1    0    0  502    0  0.00000000000E+00  0.00000000000E+00  0.64996717114E+03  0.64996717114E+03  0.00000000000E+00 0. -1.
         -3   -1    0    0    0  501 -0.00000000000E+00 -0.00000000000E+00 -0.67601293221E+03  0.67601293221E+03  0.00000000000E+00 0.  1.
         23    2    1    2    0    0  0.23651434500E+03 -0.16144190226E+02 -0.46554693617E+03  0.52991755354E+03  0.88763694736E+02 0.  0.
         23    2    1    2    0    0 -0.24930777669E+03  0.13244705181E+03  0.20407577040E+03  0.35977804534E+03  0.89981847022E+02 0.  0.
        -11    1    4    4    0    0 -0.23156037104E+03  0.14222333423E+03  0.20351469589E+03  0.33950834111E+03  0.00000000000E+00 0. -1.
         11    1    4    4    0    0 -0.17747405643E+02 -0.97762824201E+01  0.56107450805E+00  0.20269704231E+02  0.00000000000E+00 0.  1.
        -13    1    3    3    0    0  0.18424685348E+03 -0.40987343894E+02 -0.29890080627E+03  0.35350892120E+03  0.00000000000E+00 0.  1.
         13    1    3    3    0    0  0.52267491514E+02  0.24843153667E+02 -0.16664612990E+03  0.17640863234E+03  0.00000000000E+00 0. -1.
         21    1    1    2  502  503  0.16613510897E+03  0.12556881017E+02  0.96690061121E+02  0.19263311660E+03  0.00000000000E+00 0. -1.
         21    1    1    2  503  501 -0.15334167727E+03 -0.12885974260E+03  0.13873534358E+03  0.24365138787E+03  0.00000000000E+00 0. -1.
<scales pt_clust_5="13000.00000" pt_clust_6="13000.00000" pt_clust_7="13000.00000" pt_clust_8="13000.00000" pt_clust_9="166.60897" pt_clust_10="153.58946"></scales>
<clustering>
<clus scale="   88.764">  7  8 -1 -1</clus>
<clus scale="   89.982">  5  6 -1 -1</clus>
<clus scale="  166.609">  1  9  2 -1</clus>
<clus scale="  153.589">  1 10  2 -1</clus>
<clus scale="  255.396">  2  7  1 -1</clus>
<clus scale="  166.609">  1  5  2 -1</clus>
</clustering>
</event>
<event>
10    2  0.2445576E-006  0.2171434E+03  0.7546771E-02  0.1163632E+00
         -1   -1    0    0    0  501 -0.00000000000E+00  0.00000000000E+00  0.16603102784E+03  0.16603102784E+03  0.00000000000E+00 0.  1.
          1   -1    0    0  502    0  0.00000000000E+00 -0.00000000000E+00 -0.71011564422E+03  0.71011564422E+03  0.00000000000E+00 0. -1.
         23    2    1    2    0    0 -0.35334130596E+02  0.53226621190E+02 -0.72662278469E+02  0.13338829067E+03  0.91820778622E+02 0.  0.
         23    2    1    2    0    0  0.98576213520E+02 -0.19169592437E+03 -0.46547803030E+03  0.52093037366E+03  0.90741722538E+02 0.  0.
        -11    1    3    3    0    0 -0.76524176373E+01  0.45729396191E+02  0.86512487441E+01  0.47165466991E+02  0.00000000000E+00 0.  1.
         11    1    3    3    0    0 -0.27681712959E+02  0.74972249996E+01 -0.81313527213E+02  0.86222823678E+02  0.00000000000E+00 0. -1.
        -13    1    4    4    0    0  0.55950613906E+02 -0.11919639212E+03 -0.37478889070E+03  0.39724672898E+03  0.00000000000E+00 0. -1.
         13    1    4    4    0    0  0.42625599614E+02 -0.72499532249E+02 -0.90689139604E+02  0.12368364468E+03  0.00000000000E+00 0.  1.
         21    1    1    2  502  503 -0.27005361858E+02 -0.55724012173E+01 -0.58177551599E+02  0.64381431597E+02  0.00000000000E+00 0. -1.
         21    1    1    2  503  501 -0.36236721066E+02  0.14404170440E+03  0.52233243997E+02  0.15744657614E+03  0.00000000000E+00 0.  1.
<scales pt_clust_5="13000.00000" pt_clust_6="13000.00000" pt_clust_7="13000.00000" pt_clust_8="13000.00000" pt_clust_9="27.57429" pt_clust_10="197.27436"></scales>
<clustering>
<clus scale="   27.574">  2  9  1 -1</clus>
<clus scale="   90.742">  7  8 -1 -1</clus>
<clus scale="   91.821">  5  6 -1 -1</clus>
<clus scale="  112.874">  1  5  2 -1</clus>
<clus scale="  197.274">  1 10  2 -1</clus>
<clus scale="   27.574">  2  5  1 -1</clus>
</clustering>
</event>
<event>
10    2  0.2445576E-006  0.1175088E+03  0.7546771E-02  0.1247511E+00
          1   -1    0    0  502    0  0.00000000000E+00  0.00000000000E+00  0.12992778072E+03  0.12992778072E+03  0.00000000000E+00 0. -1.
         -1   -1    0    0    0  501 -0.00000000000E+00 -0.00000000000E+00 -0.48455995102E+03  0.48455995102E+03  0.00000000000E+00 0.  1.
         23    2    1    2    0    0  0.24327150268E+02 -0.80138096124E+02 -0.32122877451E+03  0.34418175040E+03  0.90880289606E+02 0.  0.
         23    2    1    2    0    0  0.59336226293E+02  0.53623669032E+02 -0.73390182783E+02  0.14204889240E+03  0.91626869819E+02 0.  0.
        -11    1    3    3    0    0  0.10290092875E+02  0.18787406319E+02 -0.85687334413E+02  0.88324243140E+02  0.00000000000E+00 0.  1.
         11    1    3    3    0    0  0.14037057394E+02 -0.98925502442E+02 -0.23554144010E+03  0.25585750726E+03  0.00000000000E+00 0. -1.
        -13    1    4    4    0    0  0.82462194079E+02  0.44476130273E+02 -0.43883625617E+02  0.10345971300E+03  0.00000000000E+00 0. -1.
         13    1    4    4    0    0 -0.23125967785E+02  0.91475387595E+01 -0.29506557166E+02  0.38589179405E+02  0.00000000000E+00 0.  1.
         21    1    1    2  502  503 -0.16132920520E+02 -0.17342428402E+02  0.41429196576E+02  0.47722209466E+02  0.00000000000E+00 0. -1.
         21    1    1    2  503  501 -0.67530456041E+02  0.43856855493E+02 -0.14424095796E+01  0.80534879476E+02  0.00000000000E+00 0.  1.
<scales pt_clust_5="13000.00000" pt_clust_6="13000.00000" pt_clust_7="13000.00000" pt_clust_8="13000.00000" pt_clust_9="23.68609" pt_clust_10="83.12031"></scales>
<clustering>
<clus scale="   23.686">  1  9  2 -1</clus>
<clus scale="   83.120">  1 10  2 -1</clus>
<clus scale="   90.880">  5  6 -1 -1</clus>
<clus scale="   91.627">  7  8 -1 -1</clus>
<clus scale="  116.928">  2  5  1 -1</clus>
<clus scale="   23.686">  1  5  2 -1</clus>
</clustering>
</event>
<event>
10    2  0.2445576E-006  0.1549177E+03  0.7546771E-02  0.1194635E+00
         -3   -1    0    0    0  501 -0.00000000000E+00  0.00000000000E+00  0.54847049395E+03  0.54847049395E+03  0.00000000000E+00 0.  1.
          3   -1    0    0  502    0  0.00000000000E+00 -0.00000000000E+00 -0.10135627239E+03  0.10135627239E+03  0.00000000000E+00 0. -1.
         23    2    1    2    0    0 -0.15195651944E+02 -0.12005278419E+03  0.33906233137E+03  0.37140874471E+03  0.91310526548E+02 0.  0.
         23    2    1    2    0    0 -0.45628377896E+01  0.13107465174E+03  0.95403708904E+02  0.18633897148E+03  0.91754895242E+02 0.  0.
        -13    1    3    3    0    0 -0.51932758820E+02 -0.48033414389E+02  0.15645577190E+03  0.17170506369E+03  0.00000000000E+00 0.  1.
         13    1    3    3    0    0  0.36737106876E+02 -0.72019369803E+02  0.18260655948E+03  0.19970368102E+03  0.00000000000E+00 0. -1.
        -13    1    4    4    0    0  0.24766902271E+02  0.20347683535E+01  0.29289863314E+02  0.38411402257E+02  0.00000000000E+00 0.  1.
         13    1    4    4    0    0 -0.29329740060E+02  0.12903988339E+03  0.66113845589E+02  0.14792756922E+03  0.00000000000E+00 0. -1.
         21    1    1    2  502  503  0.41953079453E+02 -0.10632335596E+02 -0.23808610407E+02  0.49395924582E+02  0.00000000000E+00 0. -1.
         21    1    1    2  503  501 -0.22194589719E+02 -0.38953195763E+00  0.36456791690E+02  0.42683125569E+02  0.00000000000E+00 0. -1.
<scales pt_clust_5="13000.00000" pt_clust_6="13000.00000" pt_clust_7="13000.00000" pt_clust_8="13000.00000" pt_clust_9="42.74120" pt_clust_10="22.19801"></scales>
<clustering>
<clus scale="   22.198">  1 10  2 -1</clus>
<clus scale="   42.741">  2  9  1 -1</clus>
<clus scale="   91.311">  5  6 -1 -1</clus>
<clus scale="   91.755">  7  8 -1 -1</clus>
<clus scale="  154.655">  1  5  2 -1</clus>
<clus scale="   42.741">  2  5  1 -1</clus>
</clustering>
</event>
<event>
10    2  0.2445576E-006  0.2010697E+03  0.7546771E-02  0.1149054E+00
         -1   -1    0    0    0  501 -0.00000000000E+00  0.00000000000E+00  0.81415456664E+03  0.81415456664E+03  0.00000000000E+00 0.  1.
          1   -1    0    0  502    0  0.00000000000E+00 -0.00000000000E+00 -0.19039151425E+03  0.19039151425E+03  0.00000000000E+00 0. -1.
         23    2    1    2    0    0 -0.38106227859E+02 -0.18949570689E+03  0.47087414990E+03  0.51686910269E+03  0.89835943457E+02 0.  0.
         23    2    1    2    0    0 -0.54825979140E+02  0.15671971578E+03  0.14900888092E+03  0.24135111082E+03  0.92085584103E+02 0.  0.
        -11    1    4    4    0    0 -0.70933991518E+02  0.10110970835E+03  0.65692482254E+02  0.13989391159E+03  0.00000000000E+00 0.  1.
         11    1    4    4    0    0  0.16108012378E+02  0.55610007422E+02  0.83316398669E+02  0.10145719923E+03  0.00000000000E+00 0. -1.
        -11    1    3    3    0    0  0.11280024243E+02 -0.13385775582E+03  0.25003156023E+03  0.28383255425E+03  0.00000000000E+00 0. -1.
         11    1    3    3    0    0 -0.49386252102E+02 -0.55637951068E+02  0.22084258967E+03  0.23303654844E+03  0.00000000000E+00 0.  1.
         21    1    1    2  502  503  0.85161946990E+01 -0.19211167151E+02 -0.10032057959E+03  0.10249786927E+03  0.00000000000E+00 0. -1.
         21    1    1    2  503  501  0.84416012300E+02  0.51987158262E+02  0.10420060116E+03  0.14382799810E+03  0.00000000000E+00 0. -1.
<scales pt_clust_5="13000.00000" pt_clust_6="13000.00000" pt_clust_7="13000.00000" pt_clust_8="13000.00000" pt_clust_9="21.01415" pt_clust_10="98.62050"></scales>
<clustering>
<clus scale="   21.014">  2  9  1 -1</clus>
<clus scale="   89.836">  7  8 -1 -1</clus>
<clus scale="   92.086">  5  6 -1 -1</clus>
<clus scale="   98.620">  2 10  1 -1</clus>
<clus scale="  200.049">  1  7  2 -1</clus>
<clus scale="   21.014">  2  5  1 -1</clus>
</clustering>
</event>
<event>
10    2  0.2445576E-006  0.2427740E+03  0.7546771E-02  0.1118138E+00
          1   -1    0    0  503    0  0.00000000000E+00  0.00000000000E+00  0.11382591791E+04  0.11382591791E+04  0.00000000000E+00 0. -1.
         -1   -1    0    0    0  501 -0.00000000000E+00 -0.00000000000E+00 -0.10744575114E+03  0.10744575114E+03  0.00000000000E+00 0.  1.
         23    2    1    2    0    0  0.44144559770E+02  0.27221865790E+03  0.24188155381E+03  0.37752109308E+03  0.89239844143E+02 0.  0.
         23    2    1    2    0    0  0.20447718662E+02 -0.17074423411E+03  0.31706776104E+03  0.37228483990E+03  0.92153861833E+02 0.  0.
        -11    1    4    4    0    0  0.49831125120E+02 -0.14946396948E+03  0.27303460504E+03  0.31523089118E+03  0.00000000000E+00 0. -1.
         11    1    4    4    0    0 -0.29383406459E+02 -0.21280264630E+02  0.44033155999E+02  0.57053948724E+02  0.00000000000E+00 0.  1.
        -13    1    3    3    0    0  0.56620125666E+01  0.68582217584E+02  0.15373312333E+02  0.70511826576E+02  0.00000000000E+00 0.  1.
         13    1    3    3    0    0  0.38482547203E+02  0.20363644031E+03  0.22650824148E+03  0.30700926650E+03  0.00000000000E+00 0. -1.
         21    1    1    2  502  501 -0.28637022227E+02 -0.10266106224E+03  0.41613653340E+03  0.42956837310E+03  0.00000000000E+00 0. -1.
         21    1    1    2  503  502 -0.35955256204E+02  0.11866384532E+01  0.55727579734E+02  0.66330624168E+02  0.00000000000E+00 0. -1.
<scales pt_clust_5="13000.00000" pt_clust_6="13000.00000" pt_clust_7="13000.00000" pt_clust_8="13000.00000" pt_clust_9="110.77681" pt_clust_10="35.97483"></scales>
<clustering>
<clus scale="   35.975">  1 10  2 -1</clus>
<clus scale="   89.240">  7  8 -1 -1</clus>
<clus scale="   92.154">  5  6 -1 -1</clus>
<clus scale="  110.777">  1  9  2 -1</clus>
<clus scale="  241.683">  2  7  1 -1</clus>
<clus scale="   35.975">  1  5  2 -1</clus>
</clustering>
</event>
<event>
10    2  0.2445576E-006  0.2519814E+03  0.7546771E-02  0.1112467E+00
         -1   -1    0    0    0  501 -0.00000000000E+00  0.00000000000E+00  0.67054701834E+02  0.67054701834E+02  0.00000000000E+00 0.  1.
          1   -1    0    0  502    0  0.00000000000E+00 -0.00000000000E+00 -0.19286511345E+04  0.19286511345E+04  0.00000000000E+00 0. -1.
         23    2    1    2    0    0 -0.11697324810E+02  0.21375102613E+03 -0.57160003285E+03  0.61712657054E+03  0.91061945537E+02 0.  0.
         23    2    1    2    0    0  0.36040353355E+02 -0.23377292175E+03 -0.11425316989E+04  0.11708624399E+04  0.97936123675E+02 0.  0.
        -11    1    4    4    0    0 -0.29975618155E+02 -0.12544566724E+03 -0.55447410298E+03  0.56927733486E+03  0.00000000000E+00 0. -1.
         11    1    4    4    0    0  0.66015971510E+02 -0.10832725451E+03 -0.58805759588E+03  0.60158510507E+03  0.00000000000E+00 0.  1.
        -13    1    3    3    0    0  0.26697204016E+01  0.18315900621E+03 -0.37165330727E+03  0.41434349249E+03  0.00000000000E+00 0.  1.
         13    1    3    3    0    0 -0.14367045212E+02  0.30592019916E+02 -0.19994672558E+03  0.20278307804E+03  0.00000000000E+00 0. -1.
         21    1    1    2  502  503  0.30718821464E+02 -0.23678814184E+02 -0.12946886087E+03  0.13515368351E+03  0.00000000000E+00 0.  1.
         21    1    1    2  503  501 -0.55061850008E+02  0.43700709809E+02 -0.17995840048E+02  0.72563142319E+02  0.00000000000E+00 0.  1.
<scales pt_clust_5="13000.00000" pt_clust_6="13000.00000" pt_clust_7="13000.00000" pt_clust_8="13000.00000" pt_clust_9="38.78572" pt_clust_10="69.31867"></scales>
<clustering>
<clus scale="   38.786">  2  9  1 -1</clus>
<clus scale="   69.319">  1 10  2 -1</clus>
<clus scale="   91.062">  7  8 -1 -1</clus>
<clus scale="   97.936">  5  6 -1 -1</clus>
<clus scale="  249.390">  1  7  2 -1</clus>
<clus scale="   38.786">  2  5  1 -1</clus>
</clustering>
</event>
<event>
10    2  0.2445576E-006  0.1229577E+03  0.7546771E-02  0.1238347E+00
          1   -1    0    0  502    0  0.00000000000E+00  0.00000000000E+00  0.79831249611E+02  0.79831249611E+02  0.00000000000E+00 0. -1.
         -1   -1    0    0    0  501 -0.00000000000E+00 -0.00000000000E+00 -0.61464049694E+03  0.61464049694E+03  0.00000000000E+00 0.  1.
         23    2    1    2    0    0  0.18351456736E+02  0.11093587657E+03 -0.33662059999E+03  0.36673893299E+03  0.92414673930E+02 0.  0.
         23    2    1    2    0    0 -0.27352490589E+02 -0.52344461442E+02 -0.33953388156E+01  0.10958317916E+03  0.92243392416E+02 0.  0.
        -11    1    3    3    0    0 -0.20130678951E+02  0.79731474003E+02 -0.12667075653E+03  0.15102262328E+03  0.00000000000E+00 0.  1.
         11    1    3    3    0    0  0.38482135688E+02  0.31204402569E+02 -0.20994984346E+03  0.21571630972E+03  0.00000000000E+00 0. -1.
        -11    1    4    4    0    0  0.33431104749E+02 -0.16671019785E+02 -0.10343856048E+02  0.38762830435E+02  0.00000000000E+00 0.  1.
         11    1    4    4    0    0 -0.60783595338E+02 -0.35673441657E+02  0.69485172326E+01  0.70820348726E+02  0.00000000000E+00 0. -1.
         21    1    1    2  502  503 -0.10462228528E+01 -0.23078448361E+02 -0.35447635192E+01  0.23372520390E+02  0.00000000000E+00 0.  1.
         21    1    1    2  503  501  0.10047256705E+02 -0.35512966769E+02 -0.19124854500E+03  0.19477711400E+03  0.00000000000E+00 0. -1.
<scales pt_clust_5="13000.00000" pt_clust_6="13000.00000" pt_clust_7="13000.00000" pt_clust_8="13000.00000" pt_clust_9="23.10215" pt_clust_10="37.46051"></scales>
<clustering>
<clus scale="   23.102">  1  9  2 -1</clus>
<clus scale="   37.461">  2 10  1 -1</clus>
<clus scale="   92.243">  7  8 -1 -1</clus>
<clus scale="   92.415">  5  6 -1 -1</clus>
<clus scale="  122.829">  1  7  2 -1</clus>
<clus scale="   23.102">  1  5  2 -1</clus>
</clustering>
</event>
<event>
10    2  0.2445576E-006  0.1289131E+03  0.7546771E-02  0.1229983E+00
          1   -1    0    0  502    0  0.00000000000E+00  0.00000000000E+00  0.11281612153E+03  0.11281612153E+03  0.00000000000E+00 0. -1.
         -1   -1    0    0    0  501 -0.00000000000E+00 -0.00000000000E+00 -0.36918307701E+03  0.36918307701E+03  0.00000000000E+00 0.  1.
         23    2    1    2    0    0 -0.40373972235E+02 -0.96333890583E+02 -0.17732806324E+03  0.22347642772E+03  0.87098769352E+02 0.  0.
         23    2    1    2    0    0 -0.33394486183E+02  0.91894343586E+02 -0.38082431255E+02  0.13858835338E+03  0.90535617468E+02 0.  0.
        -13    1    3    3    0    0 -0.23120883491E+02 -0.19725812530E+02 -0.12611516283E+03  0.12972554579E+03  0.00000000000E+00 0.  1.
         13    1    3    3    0    0 -0.17253088744E+02 -0.76608078053E+02 -0.51212900410E+02  0.93750881930E+02  0.00000000000E+00 0. -1.
        -13    1    4    4    0    0 -0.57064609486E+02  0.92442778541E+02 -0.24767458453E+02  0.11142470084E+03  0.00000000000E+00 0.  1.
         13    1    4    4    0    0  0.23670123303E+02 -0.54843495422E+00 -0.13314972802E+02  0.27163652530E+02  0.00000000000E+00 0. -1.
         21    1    1    2  502  503  0.51459907228E+02 -0.57363494751E+01  0.19002611541E+02  0.55155480259E+02  0.00000000000E+00 0. -1.
         21    1    1    2  503  501  0.22308551189E+02  0.10175896472E+02 -0.59959072528E+02  0.64778937191E+02  0.00000000000E+00 0. -1.
<scales pt_clust_5="13000.00000" pt_clust_6="13000.00000" pt_clust_7="13000.00000" pt_clust_8="13000.00000" pt_clust_9="53.02366" pt_clust_10="24.51979"></scales>
<clustering>
<clus scale="   24.520">  2 10  1 -1</clus>
<clus scale="   53.024">  1  9  2 -1</clus>
<clus scale="   87.099">  5  6 -1 -1</clus>
<clus scale="   90.536">  7  8 -1 -1</clus>
<clus scale="  126.523">  2  5  1 -1</clus>
<clus scale="   53.024">  1  5  2 -1</clus>
</clustering>
</event>
<event>
10    2  0.2445576E-006  0.1379870E+03  0.7546771E-02  0.1216857E+00
          2   -1    0    0  502    0  0.00000000000E+00  0.00000000000E+00  0.29227099453E+03  0.29227099453E+03  0.00000000000E+00 0. -1.
         -2   -1    0    0    0  501 -0.00000000000E+00 -0.00000000000E+00 -0.23861785438E+03  0.23861785438E+03  0.00000000000E+00 0.  1.
         23    2    1    2    0    0 -0.91108595209E+02 -0.10646273753E+02 -0.12681674164E+03  0.18400737621E+03  0.96757993335E+02 0.  0.
         23    2    1    2    0    0  0.92672584367E+02 -0.33314201643E+02  0.19154719112E+03  0.23478178804E+03  0.93456501369E+02 0.  0.
        -11    1    3    3    0    0 -0.28315749862E+02 -0.24359496215E+02  0.46795227489E+01  0.37643919552E+02  0.00000000000E+00 0. -1.
         11    1    3    3    0    0 -0.62792845347E+02  0.13713222461E+02 -0.13149626439E+03  0.14636345666E+03  0.00000000000E+00 0.  1.
        -13    1    4    4    0    0  0.20233344872E+02  0.10433323042E+02 -0.26777531100E+01  0.22921885527E+02  0.00000000000E+00 0.  1.
         13    1    4    4    0    0  0.72439239495E+02 -0.43747524684E+02  0.19422494423E+03  0.21185990252E+03  0.00000000000E+00 0. -1.
         21    1    1    2  502  503  0.72688072367E+01  0.22486439615E+02  0.45318907544E+02  0.51110457894E+02  0.00000000000E+00 0. -1.
         21    1    1    2  503  501 -0.88327963950E+01  0.21474035781E+02 -0.56396216862E+02  0.60989226764E+02  0.00000000000E+00 0. -1.
<scales pt_clust_5="13000.00000" pt_clust_6="13000.00000" pt_clust_7="13000.00000" pt_clust_8="13000.00000" pt_clust_9="23.91844" pt_clust_10="23.21966"></scales>
<clustering>
<clus scale="   23.220">  2 10  1 -1</clus>
<clus scale="   23.918">  1  9  2 -1</clus>
<clus scale="   93.457">  7  8 -1 -1</clus>
<clus scale="   96.758">  5  6 -1 -1</clus>
<clus scale="  135.692">  1  7  2 -1</clus>
<clus scale="   23.918">  1  5  2 -1</clus>
</clustering>
</event>
<event>
10    2  0.2445576E-006  0.9475215E+02  0.7546771E-02  0.1291933E+00
          3   -1    0    0  502    0  0.00000000000E+00  0.00000000000E+00  0.12216667015E+03  0.12216667015E+03  0.00000000000E+00 0. -1.
         -3   -1    0    0    0  501 -0.00000000000E+00 -0.00000000000E+00 -0.18527717308E+03  0.18527717308E+03  0.00000000000E+00 0.  1.
         23    2    1    2    0    0  0.10958380711E+02 -0.18768162057E+02 -0.68979645205E+02  0.11631580578E+03  0.91097997817E+02 0.  0.
         23    2    1    2    0    0  0.46522177706E+02  0.18222699649E+02  0.59329624726E+01  0.10438586966E+03  0.91459444231E+02 0.  0.
        -11    1    4    4    0    0 -0.19155428913E+02 -0.19412451803E+02  0.87368768606E+01  0.28637506162E+02  0.00000000000E+00 0. -1.
         11    1    4    4    0    0  0.65677606620E+02  0.37635151452E+02 -0.28039143880E+01  0.75748363494E+02  0.00000000000E+00 0.  1.
        -11    1    3    3    0    0  0.26468438037E+01 -0.53433660119E+02 -0.23249084893E+02  0.58332510354E+02  0.00000000000E+00 0. -1.
         11    1    3    3    0    0  0.83115369075E+01  0.34665498062E+02 -0.45730560312E+02  0.57983295423E+02  0.00000000000E+00 0.  1.
         21    1    1    2  502  503 -0.25491606373E+02 -0.67517463291E+01  0.31590929972E+02  0.41150880069E+02  0.00000000000E+00 0. -1.
         21    1    1    2  503  501 -0.31988952044E+02  0.72972087375E+01 -0.31654750168E+02  0.45591287725E+02  0.00000000000E+00 0. -1.
<scales pt_clust_5="13000.00000" pt_clust_6="13000.00000" pt_clust_7="13000.00000" pt_clust_8="13000.00000" pt_clust_9="26.37059" pt_clust_10="34.72156"></scales>
<clustering>
<clus scale="   26.371">  1  9  2 -1</clus>
<clus scale="   34.722">  2 10  1 -1</clus>
<clus scale="   91.098">  7  8 -1 -1</clus>
<clus scale="   91.459">  5  6 -1 -1</clus>
<clus scale="   94.403">  2  7  1 -1</clus>
<clus scale="   26.371">  1  5  2 -1</clus>
</clustering>
</event>
<event>
10    2  0.2445576E-006  0.1173609E+03  0.7546771E-02  0.1249150E+00
         -2   -1    0    0    0  501 -0.00000000000E+00  0.00000000000E+00  0.76466538425E+02  0.76466538425E+02  0.00000000000E+00 0.  1.
          2   -1    0    0  502    0  0.00000000000E+00 -0.00000000000E+00 -0.65564733338E+03  0.65564733338E+03  0.00000000000E+00 0. -1.
         23    2    1    2    0    0  0.76834619478E+02  0.17782220095E+02 -0.87858579967E+01  0.12351856664E+03  0.94656636867E+02 0.  0.
         23    2    1    2    0    0 -0.69912648199E+02  0.16751060064E+02 -0.41017077215E+03  0.42806744381E+03  0.99162985678E+02 0.  0.
        -11    1    3    3    0    0  0.61611919172E+02  0.53070170030E+02 -0.19498344975E+02  0.83622108248E+02  0.00000000000E+00 0.  1.
         11    1    3    3    0    0  0.15222700306E+02 -0.35287949935E+02  0.10712486978E+02  0.39896458395E+02  0.00000000000E+00 0. -1.
        -13    1    4    4    0    0 -0.66060583427E+02 -0.55312795297E+01 -0.39571396645E+03  0.40122828786E+03  0.00000000000E+00 0. -1.
         13    1    4    4    0    0 -0.38520647719E+01  0.22282339594E+02 -0.14456805700E+02  0.26839155945E+02  0.00000000000E+00 0.  1.
         21    1    1    2  502  503  0.11617367641E+02 -0.22761442907E+02 -0.15610634614E+03  0.15818418954E+03  0.00000000000E+00 0. -1.
         21    1    1    2  503  501 -0.18539338920E+02 -0.11771837252E+02 -0.41178186703E+01  0.22343671822E+02  0.00000000000E+00 0. -1.
<scales pt_clust_5="13000.00000" pt_clust_6="13000.00000" pt_clust_7="13000.00000" pt_clust_8="13000.00000" pt_clust_9="25.58873" pt_clust_10="21.96095"></scales>
<clustering>
<clus scale="   21.961">  1 10  2 -1</clus>
<clus scale="   25.589">  2  9  1 -1</clus>
<clus scale="   94.657">  5  6 -1 -1</clus>
<clus scale="   99.163">  7  8 -1 -1</clus>
<clus scale="  113.579">  1  5  2 -1</clus>
<clus scale="   25.589">  2  5  1 -1</clus>
</clustering>
</event>
<event>
10    2  0.2445576E-006  0.9375810E+02  0.7546771E-02  0.1294219E+00
         -1   -1    0    0    0  501 -0.00000000000E+00  0.00000000000E+00  0.22414479511E+03  0.22414479511E+03  0.00000000000E+00 0.  1.
          1   -1    0    0  502    0  0.00000000000E+00 -0.00000000000E+00 -0.23283809176E+03  0.23283809176E+03  0.00000000000E+00 0. -1.
         23    2    1    2    0    0 -0.36416203825E+01 -0.29484114834E+02  0.37623830908E+02  0.10381917153E+03  0.92088507960E+02 0.  0.
         23    2    1    2    0    0 -0.16868743797E+00 -0.35737241936E+02 -0.76628272649E+02  0.12530487003E+03  0.92478318361E+02 0.  0.
        -13    1    4    4    0    0  0.23312273389E+02  0.24808207906E+02 -0.29789241084E+02  0.45236137705E+02  0.00000000000E+00 0.  1.
         13    1    4    4    0    0 -0.23480960827E+02 -0.60545449842E+02 -0.46839031565E+02  0.80068732323E+02  0.00000000000E+00 0. -1.
        -13    1    3    3    0    0 -0.46842132555E+02 -0.18276345307E+02  0.29974073056E+02  0.58537639478E+02  0.00000000000E+00 0. -1.
         13    1    3    3    0    0  0.43200512172E+02 -0.11207769527E+02  0.76497578516E+01  0.45281532051E+02  0.00000000000E+00 0.  1.
         21    1    1    2  502  503  0.25976209209E+02  0.20087830845E+02 -0.90890660725E+02  0.96640553599E+02  0.00000000000E+00 0.  1.
         21    1    1    2  503  501 -0.22165901388E+02  0.45133525924E+02  0.12120180582E+03  0.13121829171E+03  0.00000000000E+00 0.  1.
<scales pt_clust_5="13000.00000" pt_clust_6="13000.00000" pt_clust_7="13000.00000" pt_clust_8="13000.00000" pt_clust_9="32.83724" pt_clust_10="50.53305"></scales>
<clustering>
<clus scale="   32.837">  2  9  1 -1</clus>
<clus scale="   50.533">  1 10  2 -1</clus>
<clus scale="   92.089">  7  8 -1 -1</clus>
<clus scale="   92.478">  5  6 -1 -1</clus>
<clus scale="   93.374">  1  7  2 -1</clus>
<clus scale="   32.837">  2  5  1 -1</clus>
</clustering>
</event>
<event>
10    2  0.2445576E-006  0.1337093E+03  0.7546771E-02  0.1235196E+00
         -1   -1    0    0    0  501 -0.00000000000E+00  0.00000000000E+00  0.14844812290E+03  0.14844812290E+03  0.00000000000E+00 0.  1.
          1   -1    0    0  502    0  0.00000000000E+00 -0.00000000000E+00 -0.43580065331E+03  0.43580065331E+03  0.00000000000E+00 0. -1.
         23    2    1    2    0    0 -0.76635269064E+02 -0.83207661545E+02 -0.24440717407E+02  0.17118061755E+03  0.12613078828E+03 0.  0.
         23    2    1    2    0    0  0.36525537174E+02 -0.39974768889E+02 -0.78400044441E+02  0.13223433445E+03  0.91691085854E+02 0.  0.
        -11    1    4    4    0    0  0.14643063230E+02 -0.67951038128E+02 -0.41210261499E+02  0.80808715719E+02  0.00000000000E+00 0.  1.
         11    1    4    4    0    0  0.21882473944E+02  0.27976269239E+02 -0.37189782942E+02  0.51425618729E+02  0.00000000000E+00 0. -1.
        -13    1    3    3    0    0 -0.52323409573E+02  0.22757584265E+02 -0.25403617167E+02  0.62457910597E+02  0.00000000000E+00 0. -1.
         13    1    3    3    0    0 -0.24311859491E+02 -0.10596524581E+03  0.96289975957E+00  0.10872270695E+03  0.00000000000E+00 0.  1.
         21    1    1    2  502  503 -0.25467047580E+02  0.76450326797E+02 -0.18337770428E+03  0.20030128659E+03  0.00000000000E+00 0. -1.
         21    1    1    2  503  501  0.65576779469E+02  0.46732103637E+02 -0.11340642773E+01  0.80532537634E+02  0.00000000000E+00 0.  1.
<scales pt_clust_5="13000.00000" pt_clust_6="13000.00000" pt_clust_7="13000.00000" pt_clust_8="13000.00000" pt_clust_9="82.63517" pt_clust_10="80.52455"></scales>
<clustering>
<clus scale="   80.525">  1 10  2 -1</clus>
<clus scale="   82.635">  2  9  1 -1</clus>
<clus scale="   91.691">  5  6 -1 -1</clus>
<clus scale="  101.865">  2  5  1 -1</clus>
<clus scale="  126.131">  7  8 -1 -1</clus>
<clus scale="   82.635">  2  5  1 -1</clus>
</clustering>
</event>
<event>
10    2  0.2445576E-006  0.1156097E+03  0.7546771E-02  0.1250849E+00
         -2   -1    0    0    0  501 -0.00000000000E+00  0.00000000000E+00  0.82817884091E+02  0.82817884091E+02  0.00000000000E+00 0.  1.
          2   -1    0    0  502    0  0.00000000000E+00 -0.00000000000E+00 -0.82880483633E+03  0.82880483633E+03  0.00000000000E+00 0. -1.
         23    2    1    2    0    0  0.31307260876E+01  0.87247668799E+02 -0.24034050203E+02  0.12864410313E+03  0.91376761507E+02 0.  0.
         23    2    1    2    0    0  0.59047281654E+02 -0.72173965676E+02 -0.48684707039E+03  0.50387639740E+03  0.90419528401E+02 0.  0.
        -13    1    4    4    0    0  0.46693121363E+02  0.50438768064E+01 -0.12165653989E+03  0.13040706259E+03  0.00000000000E+00 0.  1.
         13    1    4    4    0    0  0.12354160290E+02 -0.77217842483E+02 -0.36519053050E+03  0.37346933481E+03  0.00000000000E+00 0. -1.
        -13    1    3    3    0    0  0.41343107888E+02  0.13841798691E+02 -0.71015488583E+01  0.44173294613E+02  0.00000000000E+00 0. -1.
         13    1    3    3    0    0 -0.38212381800E+02  0.73405870108E+02 -0.16932501344E+02  0.84470808513E+02  0.00000000000E+00 0.  1.
         21    1    1    2  502  503 -0.18422912918E+02  0.20982826880E+02 -0.21814157253E+03  0.21992141417E+03  0.00000000000E+00 0. -1.
         21    1    1    2  503  501 -0.43755094823E+02 -0.36056530003E+02 -0.16964259114E+02  0.59180805724E+02  0.00000000000E+00 0. -1.
<scales pt_clust_5="13000.00000" pt_clust_6="13000.00000" pt_clust_7="13000.00000" pt_clust_8="13000.00000" pt_clust_9="27.92280" pt_clust_10="56.77857"></scales>
<clustering>
<clus scale="   27.923">  2  9  1 -1</clus>
<clus scale="   56.779">  1 10  2 -1</clus>
<clus scale="   90.420">  5  6 -1 -1</clus>
<clus scale="   91.377">  7  8 -1 -1</clus>
<clus scale="  114.855">  2  5  1 -1</clus>
<clus scale="   27.923">  2  5  1 -1</clus>
</clustering>
</event>
<event>
10    2  0.2445576E-006  0.2000598E+03  0.7546771E-02  0.1150009E+00
          2   -1    0    0  502    0  0.00000000000E+00  0.00000000000E+00  0.11533993091E+03  0.11533993091E+03  0.00000000000E+00 0. -1.
         -2   -1    0    0    0  501 -0.00000000000E+00 -0.00000000000E+00 -0.84375719692E+03  0.84375719692E+03  0.00000000000E+00 0.  1.
         23    2    1    2    0    0 -0.13128646515E+03  0.11020065375E+03 -0.46167691540E+03  0.50045483642E+03  0.89045769471E+02 0.  0.
         23    2    1    2    0    0  0.15266239307E+03 -0.58258469270E+02 -0.56778629928E+02  0.19610181765E+03  0.92370203893E+02 0.  0.
        -11    1    3    3    0    0 -0.17071043373E+02  0.31693247791E+02 -0.29321955587E+02  0.46429080939E+02  0.00000000000E+00 0. -1.
         11    1    3    3    0    0 -0.11421542178E+03  0.78507405964E+02 -0.43235495981E+03  0.45402575548E+03  0.00000000000E+00 0.  1.
        -13    1    4    4    0    0  0.12161182172E+03 -0.56978559433E+02 -0.80881754976E+02  0.15677324295E+03  0.00000000000E+00 0. -1.
         13    1    4    4    0    0  0.31050571355E+02 -0.12799098375E+01  0.24103125048E+02  0.39328574698E+02  0.00000000000E+00 0.  1.
         21    1    1    2  502  503  0.12355760146E+02 -0.34153215051E+02  0.11284167917E+02  0.38032083201E+02  0.00000000000E+00 0. -1.
         21    1    1    2  503  501 -0.33731688067E+02 -0.17788969434E+02 -0.22124588860E+03  0.22450839057E+03  0.00000000000E+00 0. -1.
<scales pt_clust_5="13000.00000" pt_clust_6="13000.00000" pt_clust_7="13000.00000" pt_clust_8="13000.00000" pt_clust_9="36.31951" pt_clust_10="38.23041"></scales>
<clustering>
<clus scale="   36.320">  1  9  2 -1</clus>
<clus scale="   38.230">  2 10  1 -1</clus>
<clus scale="   89.046">  5  6 -1 -1</clus>
<clus scale="   92.370">  7  8 -1 -1</clus>
<clus scale="  198.547">  2  5  1 -1</clus>
<clus scale="   36.320">  1  5  2 -1</clus>
</clustering>
</event>
<event>
10    2  0.2445576E-006  0.1300351E+03  0.7546771E-02  0.1241260E+00
         -3   -1    0    0    0  501 -0.00000000000E+00  0.00000000000E+00  0.31994407810E+03  0.31994407810E+03  0.00000000000E+00 0.  1.
          3   -1    0    0  502    0  0.00000000000E+00 -0.00000000000E+00 -0.28726122896E+03  0.28726122896E+03  0.00000000000E+00 0. -1.
         23    2    1    2    0    0  0.11500830443E+02  0.11697876114E+03  0.23199848482E+03  0.27526605511E+03  0.90176518449E+02 0.  0.
         23    2    1    2    0    0  0.35522999415E+02  0.47854633364E+01 -0.99060687716E+02  0.13918906493E+03  0.90971379004E+02 0.  0.
        -11    1    3    3    0    0  0.38501880420E+02  0.10245995705E+03  0.21221622376E+03  0.23878057547E+03  0.00000000000E+00 0.  1.
         11    1    3    3    0    0 -0.27001049977E+02  0.14518804089E+02  0.19782261058E+02  0.36485479641E+02  0.00000000000E+00 0. -1.
        -13    1    4    4    0    0  0.31741064272E+02  0.46007112049E+02 -0.63715323604E+02  0.84757253271E+02  0.00000000000E+00 0.  1.
         13    1    4    4    0    0  0.37819351428E+01 -0.41221648712E+02 -0.35345364113E+02  0.54431811657E+02  0.00000000000E+00 0. -1.
         21    1    1    2  502  503 -0.54301550212E+02 -0.90856681134E+02 -0.11623127780E+03  0.15720465897E+03  0.00000000000E+00 0. -1.
         21    1    1    2  503  501  0.72777203543E+01 -0.30907543342E+02  0.15976329843E+02  0.35545528049E+02  0.00000000000E+00 0. -1.
<scales pt_clust_5="13000.00000" pt_clust_6="13000.00000" pt_clust_7="13000.00000" pt_clust_8="13000.00000" pt_clust_9="93.68741" pt_clust_10="31.75282"></scales>
<clustering>
<clus scale="   31.753">  1 10  2 -1</clus>
<clus scale="   90.177">  5  6 -1 -1</clus>
<clus scale="   90.971">  7  8 -1 -1</clus>
<clus scale="   97.879">  2  7  1 -1</clus>
<clus scale="   93.687">  2  9  1 -1</clus>
<clus scale="   97.879">  2  5  1 -1</clus>
</clustering>
</event>
<event>
10    2  0.2445576E-006  0.1217686E+03  0.7546771E-02  0.1240295E+00
         -1   -1    0    0    0  501 -0.00000000000E+00  0.00000000000E+00  0.29290430346E+03  0.29290430346E+03  0.00000000000E+00 0.  1.
          1   -1    0    0  502    0  0.00000000000E+00 -0.00000000000E+00 -0.37084843393E+03  0.37084843393E+03  0.00000000000E+00 0. -1.
         23    2    1    2    0    0  0.20213722126E+02 -0.59040519097E+02  0.10809574449E+03  0.15598496163E+03  0.93553411592E+02 0.  0.
         23    2    1    2    0    0 -0.83425485163E+02  0.72253736848E+02 -0.66921393414E+02  0.15957259002E+03  0.93832427909E+02 0.  0.
        -11    1    4    4    0    0 -0.76392734513E+02  0.43485523449E+01 -0.37961614671E+02  0.85415712737E+02  0.00000000000E+00 0.  1.
         11    1    4    4    0    0 -0.70327506496E+01  0.67905184503E+02 -0.28959778743E+02  0.74156877287E+02  0.00000000000E+00 0. -1.
        -11    1    3    3    0    0 -0.32230671500E+02 -0.56040095801E+01  0.55712443012E+02  0.64607255127E+02  0.00000000000E+00 0.  1.
         11    1    3    3    0    0  0.52444393626E+02 -0.53436509517E+02  0.52383301482E+02  0.91377706506E+02  0.00000000000E+00 0. -1.
         21    1    1    2  502  503  0.89673780095E+02  0.12695991093E+02 -0.22151109440E+03  0.23931096918E+03  0.00000000000E+00 0. -1.
         21    1    1    2  503  501 -0.26462017058E+02 -0.25909208845E+02  0.10239261285E+03  0.10888421656E+03  0.00000000000E+00 0.  1.
<scales pt_clust_5="13000.00000" pt_clust_6="13000.00000" pt_clust_7="13000.00000" pt_clust_8="13000.00000" pt_clust_9="89.15635" pt_clust_10="37.03411"></scales>
<clustering>
<clus scale="   37.034">  1 10  2 -1</clus>
<clus scale="   89.156">  2  9  1 -1</clus>
<clus scale="   93.553">  7  8 -1 -1</clus>
<clus scale="   93.832">  5  6 -1 -1</clus>
<clus scale="  121.554">  1  7  2 -1</clus>
<clus scale="   89.156">  2  5  1 -1</clus>
</clustering>
</event>
<event>
10    2  0.2445576E-006  0.1007621E+03  0.7546771E-02  0.1280753E+00
         -3   -1    0    0    0  501 -0.00000000000E+00  0.00000000000E+00  0.76263256358E+03  0.76263256358E+03  0.00000000000E+00 0.  1.
          3   -1    0    0  502    0  0.00000000000E+00 -0.00000000000E+00 -0.27408692844E+02  0.27408692844E+02  0.00000000000E+00 0. -1.
         23    2    1    2    0    0  0.11122996948E+01  0.15801494369E+02  0.21035613257E+03  0.23036182441E+03  0.92552380863E+02 0.  0.
         23    2    1    2    0    0  0.41344791447E+02 -0.54964394384E+02  0.23530234229E+03  0.26057783809E+03  0.88335389185E+02 0.  0.
        -11    1    4    4    0    0  0.19424447756E+02 -0.32232000045E+02  0.22384166238E+03  0.22698304081E+03  0.00000000000E+00 0.  1.
         11    1    4    4    0    0  0.21920343691E+02 -0.22732394339E+02  0.11460679912E+02  0.33594797276E+02  0.00000000000E+00 0. -1.
        -11    1    3    3    0    0  0.40968975449E+02 -0.14779784994E+02  0.10319962510E+03  0.11201366709E+03  0.00000000000E+00 0. -1.
         11    1    3    3    0    0 -0.39856675754E+02  0.30581279363E+02  0.10715650747E+03  0.11834815733E+03  0.00000000000E+00 0.  1.
         21    1    1    2  502  503 -0.15367243055E+02  0.15369591055E+02  0.30008790902E+02  0.37052719464E+02  0.00000000000E+00 0.  1.
         21    1    1    2  503  501 -0.27089848087E+02  0.23793308960E+02  0.25955660497E+03  0.26204887446E+03  0.00000000000E+00 0.  1.
<scales pt_clust_5="13000.00000" pt_clust_6="13000.00000" pt_clust_7="13000.00000" pt_clust_8="13000.00000" pt_clust_9="21.73422" pt_clust_10="37.18679"></scales>
<clustering>
<clus scale="   21.734">  2  9  1 -1</clus>
<clus scale="   37.187">  1 10  2 -1</clus>
<clus scale="   88.335">  5  6 -1 -1</clus>
<clus scale="   92.552">  7  8 -1 -1</clus>
<clus scale="   96.903">  2  5  1 -1</clus>
<clus scale="   21.734">  2  5  1 -1</clus>
</clustering>
</event>
<event>
10    2  0.2445576E-006  0.1049385E+03  0.7546771E-02  0.1270761E+00
          1   -1    0    0  502    0  0.00000000000E+00  0.00000000000E+00  0.39249675210E+03  0.39249675210E+03  0.00000000000E+00 0. -1.
         -1   -1    0    0    0  501 -0.00000000000E+00 -0.00000000000E+00 -0.11874234952E+03  0.11874234952E+03  0.00000000000E+00 0.  1.
         23    2    1    2    0    0  0.47800996816E+02  0.26046508436E+02 -0.61158552097E+02  0.12073648347E+03  0.88733162058E+02 0.  0.
         23    2    1    2    0    0 -0.32116854070E+02 -0.46201103245E+02  0.20816187617E+03  0.23364577401E+03  0.89960806827E+02 0.  0.
        -13    1    4    4    0    0  0.10098026348E+02 -0.36157153943E+02  0.17513593465E+03  0.17911422480E+03  0.00000000000E+00 0. -1.
         13    1    4    4    0    0 -0.42214880418E+02 -0.10043949302E+02  0.33025941512E+02  0.54531549208E+02  0.00000000000E+00 0.  1.
        -13    1    3    3    0    0  0.36241758316E+02 -0.22262237134E+02 -0.76544752641E+00  0.42540077080E+02  0.00000000000E+00 0. -1.
         13    1    3    3    0    0  0.11559238500E+02  0.48308745570E+02 -0.60393104570E+02  0.78196406394E+02  0.00000000000E+00 0.  1.
         21    1    1    2  502  503  0.11024707349E+02 -0.20675894543E+02  0.96825196916E+02  0.99620055938E+02  0.00000000000E+00 0.  1.
         21    1    1    2  503  501 -0.26708850095E+02  0.40830489352E+02  0.29925881598E+02  0.57236788201E+02  0.00000000000E+00 0.  1.
<scales pt_clust_5="13000.00000" pt_clust_6="13000.00000" pt_clust_7="13000.00000" pt_clust_8="13000.00000" pt_clust_9="23.43153" pt_clust_10="45.33505"></scales>
<clustering>
<clus scale="   23.432">  1  9  2 -1</clus>
<clus scale="   45.335">  1 10  2 -1</clus>
<clus scale="   88.733">  7  8 -1 -1</clus>
<clus scale="   89.961">  5  6 -1 -1</clus>
<clus scale="  103.888">  2  7  1 -1</clus>
<clus scale="   23.432">  1  5  2 -1</clus>
</clustering>
</event>
<event>
10    2  0.2445576E-006  0.2090377E+03  0.7546771E-02  0.1142378E+00
         -2   -1    0    0    0  501 -0.00000000000E+00  0.00000000000E+00  0.23987601410E+03  0.23987601410E+03  0.00000000000E+00 0.  1.
          2   -1    0    0  502    0  0.00000000000E+00 -0.00000000000E+00 -0.12736367591E+04  0.12736367591E+04  0.00000000000E+00 0. -1.
         23    2    1    2    0    0  0.25841593503E+03 -0.20263525572E+02  0.56970536949E+02  0.28065707979E+03  0.91287175495E+02 0.  0.
         23    2    1    2    0    0 -0.20403779717E+03  0.57548953263E+02 -0.96764797477E+03  0.99484678609E+03  0.91838009719E+02 0.  0.
        -11    1    3    3    0    0  0.21470923505E+03 -0.25923094943E+02  0.10369575285E+02  0.21651695213E+03  0.00000000000E+00 0.  1.
         11    1    3    3    0    0  0.43706699984E+02  0.56595693712E+01  0.46600961664E+02  0.64140127665E+02  0.00000000000E+00 0. -1.
        -13    1    4    4    0    0 -0.28619146547E+02 -0.20644426901E+02 -0.95721926308E+02  0.10201928782E+03  0.00000000000E+00 0.  1.
         13    1    4    4    0    0 -0.17541865062E+03  0.78193380164E+02 -0.87192604846E+03  0.89282749827E+03  0.00000000000E+00 0. -1.
         21    1    1    2  502  503  0.27341743512E+02 -0.42369905945E+02 -0.14477571029E+03  0.15330618435E+03  0.00000000000E+00 0.  1.
         21    1    1    2  503  501 -0.81719881378E+02  0.50844782546E+01  0.21692403086E+02  0.84702722998E+02  0.00000000000E+00 0.  1.
<scales pt_clust_5="13000.00000" pt_clust_6="13000.00000" pt_clust_7="13000.00000" pt_clust_8="13000.00000" pt_clust_9="50.42598" pt_clust_10="81.04768"></scales>
<clustering>
<clus scale="   50.426">  2  9  1 -1</clus>
<clus scale="   81.048">  1 10  2 -1</clus>
<clus scale="   91.287">  5  6 -1 -1</clus>
<clus scale="   91.838">  7  8 -1 -1</clus>
<clus scale="  208.796">  1  5  2 -1</clus>
<clus scale="   50.426">  2  5  1 -1</clus>
</clustering>
</event>
<event>
10    2  0.2445576E-006  0.1081862E+03  0.7546771E-02  0.1264363E+00
         -1   -1    0    0    0  501 -0.00000000000E+00  0.00000000000E+00  0.11236429965E+03  0.11236429965E+03  0.00000000000E+00 0.  1.
          1   -1    0    0  502    0  0.00000000000E+00 -0.00000000000E+00 -0.32095125130E+03  0.32095125130E+03  0.00000000000E+00 0. -1.
         23    2    1    2    0    0  0.42071461588E+02 -0.26749556534E+02 -0.38427424978E+01  0.10454708509E+03  0.91813831616E+02 0.  0.
         23    2    1    2    0    0 -0.23721883083E+02  0.68872384366E+02 -0.75588839218E+01  0.11667431381E+03  0.90827450211E+02 0.  0.
        -11    1    3    3    0    0 -0.10015096375E+00 -0.54007778304E+02  0.16528379245E+01  0.54033156680E+02  0.00000000000E+00 0.  1.
         11    1    3    3    0    0  0.42171612552E+02  0.27258221770E+02 -0.54955804223E+01  0.50513928411E+02  0.00000000000E+00 0. -1.
        -11    1    4    4    0    0 -0.31358606513E+02  0.14708655326E+02  0.33571542463E+02  0.48236451023E+02  0.00000000000E+00 0.  1.
         11    1    4    4    0    0  0.76367234303E+01  0.54163729040E+02 -0.41130426385E+02  0.68437862788E+02  0.00000000000E+00 0. -1.
         21    1    1    2  502  503  0.19888921356E+02 -0.19747307158E+02 -0.40404229593E+02  0.49173438986E+02  0.00000000000E+00 0. -1.
         21    1    1    2  503  501 -0.38238499862E+02 -0.22375520674E+02 -0.15678109564E+03  0.16292071307E+03  0.00000000000E+00 0. -1.
<scales pt_clust_5="13000.00000" pt_clust_6="13000.00000" pt_clust_7="13000.00000" pt_clust_8="13000.00000" pt_clust_9="28.02722" pt_clust_10="43.09437"></scales>
<clustering>
<clus scale="   28.027">  2  9  1 -1</clus>
<clus scale="   43.094">  2 10  1 -1</clus>
<clus scale="   90.827">  7  8 -1 -1</clus>
<clus scale="   91.814">  5  6 -1 -1</clus>
<clus scale="  107.350">  2  7  1 -1</clus>
<clus scale="   28.027">  2  5  1 -1</clus>
</clustering>
</event>
<event>
10    2  0.2445576E-006  0.1478734E+03  0.7546771E-02  0.1204425E+00
          1   -1    0    0  502    0  0.00000000000E+00  0.00000000000E+00  0.10201521349E+03  0.10201521349E+03  0.00000000000E+00 0. -1.
         -1   -1    0    0    0  501 -0.00000000000E+00 -0.00000000000E+00 -0.63227150479E+03  0.63227150479E+03  0.00000000000E+00 0.  1.
         23    2    1    2    0    0 -0.18301577360E+02 -0.12713838511E+03 -0.47906339569E+03  0.50308732290E+03  0.84237762720E+02 0.  0.
         23    2    1    2    0    0  0.23973371966E+02  0.12799297834E+03 -0.73419249454E+01  0.15910013133E+03  0.91115437010E+02 0.  0.
        -11    1    3    3    0    0  0.19297423651E+02 -0.91039229349E+02 -0.22069531424E+03  0.23951399451E+03  0.00000000000E+00 0.  1.
         11    1    3    3    0    0 -0.37599001011E+02 -0.36099155764E+02 -0.25836808146E+03  0.26357332839E+03  0.00000000000E+00 0. -1.
        -11    1    4    4    0    0  0.28403094262E+02  0.75253306472E+02 -0.46823075273E+02  0.93070920682E+02  0.00000000000E+00 0.  1.
         11    1    4    4    0    0 -0.44297222968E+01  0.52739671866E+02  0.39481150327E+02  0.66029210652E+02  0.00000000000E+00 0. -1.
         21    1    1    2  502  503 -0.22321521198E+02 -0.16897126991E+02 -0.74397458113E+01  0.28967447711E+02  0.00000000000E+00 0.  1.
         21    1    1    2  503  501  0.16649726592E+02  0.16042533766E+02 -0.36411224845E+02  0.43131816330E+02  0.00000000000E+00 0. -1.
<scales pt_clust_5="13000.00000" pt_clust_6="13000.00000" pt_clust_7="13000.00000" pt_clust_8="13000.00000" pt_clust_9="27.29056" pt_clust_10="23.12091"></scales>
<clustering>
<clus scale="   23.121">  2 10  1 -1</clus>
<clus scale="   27.291">  1  9  2 -1</clus>
<clus scale="   84.238">  5  6 -1 -1</clus>
<clus scale="   91.115">  7  8 -1 -1</clus>
<clus scale="  143.738">  2  5  1 -1</clus>
<clus scale="   27.291">  1  5  2 -1</clus>
</clustering>
</event>
<event>
10    2  0.2445576E-006  0.1222985E+03  0.7546771E-02  0.1240527E+00
         -1   -1    0    0    0  501 -0.00000000000E+00  0.00000000000E+00  0.13017298177E+03  0.13017298177E+03  0.00000000000E+00 0.  1.
          1   -1    0    0  502    0  0.00000000000E+00 -0.00000000000E+00 -0.31924349224E+03  0.31924349224E+03  0.00000000000E+00 0. -1.
         23    2    1    2    0    0 -0.19653669173E+02 -0.72246642479E+02  0.41980088741E+02  0.13106239479E+03  0.99041301569E+02 0.  0.
         23    2    1    2    0    0  0.37458365140E+02  0.53435039578E+02 -0.11091314954E+03  0.16022596985E+03  0.95457855110E+02 0.  0.
        -11    1    3    3    0    0 -0.33583324084E+02 -0.22380534503E+02 -0.24183660996E+02  0.47048670974E+02  0.00000000000E+00 0. -1.
         11    1    3    3    0    0  0.13929654911E+02 -0.49866107976E+02  0.66163749737E+02  0.84013723818E+02  0.00000000000E+00 0.  1.
        -11    1    4    4    0    0  0.51902265867E+02 -0.78820713392E+01 -0.54335086517E+02  0.75553119575E+02  0.00000000000E+00 0.  1.
         11    1    4    4    0    0 -0.14443900727E+02  0.61317110917E+02 -0.56578063018E+02  0.84672850278E+02  0.00000000000E+00 0. -1.
         21    1    1    2  502  503  0.21093522427E+02  0.30412302273E+02 -0.11032494677E+03  0.11636768752E+03  0.00000000000E+00 0. -1.
         21    1    1    2  503  501 -0.38898218393E+02 -0.11600699371E+02 -0.98125029010E+01  0.41760421852E+02  0.00000000000E+00 0. -1.
<scales pt_clust_5="13000.00000" pt_clust_6="13000.00000" pt_clust_7="13000.00000" pt_clust_8="13000.00000" pt_clust_9="37.01141" pt_clust_10="37.08430"></scales>
<clustering>
<clus scale="   37.011">  2  9  1 -1</clus>
<clus scale="   37.084">  2 10  1 -1</clus>
<clus scale="   95.458">  7  8 -1 -1</clus>
<clus scale="   99.041">  5  6 -1 -1</clus>
<clus scale="  119.415">  2  7  1 -1</clus>
<clus scale="   37.011">  2  5  1 -1</clus>
</clustering>
</event>
<event>
10    2  0.2445576E-006  0.1772302E+03  0.7546771E-02  0.1171246E+00
         -1   -1    0    0    0  501 -0.00000000000E+00  0.00000000000E+00  0.51861864410E+03  0.51861864410E+03  0.00000000000E+00 0.  1.
          1   -1    0    0  502    0  0.00000000000E+00 -0.00000000000E+00 -0.87098406047E+02  0.87098406047E+02  0.00000000000E+00 0. -1.
         23    2    1    2    0    0  0.57861130260E+02 -0.13997716150E+03  0.22433477823E+03  0.28393359061E+03  0.85736077712E+02 0.  0.
         23    2    1    2    0    0 -0.35152311300E+01  0.15831204609E+03  0.15380143539E+03  0.23899259745E+03  0.91583400883E+02 0.  0.
        -11    1    4    4    0    0 -0.42612583713E+02  0.11329538738E+03  0.12003667712E+03  0.17047134934E+03  0.00000000000E+00 0. -1.
         11    1    4    4    0    0  0.39097352583E+02  0.45016658717E+02  0.33764758277E+02  0.68521248110E+02  0.00000000000E+00 0.  1.
        -11    1    3    3    0    0  0.45689525691E+02 -0.49955790134E+02  0.40523233316E+02  0.78900229177E+02  0.00000000000E+00 0. -1.
         11    1    3    3    0    0  0.12171604568E+02 -0.90021371362E+02  0.18381154491E+03  0.20503336144E+03  0.00000000000E+00 0.  1.
         21    1    1    2  502  503 -0.32053058598E+02 -0.23829226654E+01  0.14611812408E+02  0.35306967411E+02  0.00000000000E+00 0.  1.
         21    1    1    2  503  501 -0.22292840532E+02 -0.15951961931E+02  0.38772212025E+02  0.47483894677E+02  0.00000000000E+00 0. -1.
<scales pt_clust_5="13000.00000" pt_clust_6="13000.00000" pt_clust_7="13000.00000" pt_clust_8="13000.00000" pt_clust_9="63.28090" pt_clust_10="24.69111"></scales>
<clustering>
<clus scale="   24.691">  9 10 -1 -1</clus>
<clus scale="   63.281">  2  9  1 -1</clus>
<clus scale="   85.736">  7  8 -1 -1</clus>
<clus scale="   91.583">  5  6 -1 -1</clus>
<clus scale="  174.280">  1  7  2 -1</clus>
<clus scale="   63.281">  2  5  1 -1</clus>
</clustering>
</event>
<event>
10    2  0.1354904E-005  0.2545921E+03  0.7546771E-02  0.1110620E+00
          4   -1    0    0  502    0  0.00000000000E+00  0.00000000000E+00  0.91372005086E+03  0.91372005086E+03  0.00000000000E+00 0. -1.
         -4   -1    0    0    0  501 -0.00000000000E+00 -0.00000000000E+00 -0.34707236161E+03  0.34707236161E+03  0.00000000000E+00 0.  1.
         23    2    1    2    0    0 -0.14975899665E+03 -0.13546930317E+03 -0.23851824606E+03  0.32512924653E+03  0.89657035809E+02 0.  0.
         23    2    1    2    0    0  0.14652028434E+03  0.19663232070E+03  0.79147980123E+03  0.83379425777E+03  0.92952274119E+02 0.  0.
        -11    1    4    4    0    0  0.12762370307E+03  0.11083302334E+03  0.43601270785E+03  0.46763110466E+03  0.00000000000E+00 0.  1.
         11    1    4    4    0    0  0.18896581278E+02  0.85799297359E+02  0.35546709339E+03  0.36616315311E+03  0.00000000000E+00 0. -1.
        -13    1    3    3    0    0 -0.33540911356E+02 -0.65551375900E+02 -0.13763801759E+03  0.15609676327E+03  0.00000000000E+00 0.  1.
         13    1    3    3    0    0 -0.11621808529E+03 -0.69917927274E+02 -0.10088022847E+03  0.16903248326E+03  0.00000000000E+00 0. -1.
         21    1    1    2  502  503  0.32557653803E+02 -0.35200836935E+02  0.32996232620E+02  0.58205249842E+02  0.00000000000E+00 0.  1.
         21    1    1    2  503  501 -0.29318941501E+02 -0.25962180589E+02 -0.19310098547E+02  0.43663658316E+02  0.00000000000E+00 0.  1.
<scales pt_clust_5="13000.00000" pt_clust_6="13000.00000" pt_clust_7="13000.00000" pt_clust_8="13000.00000" pt_clust_9="47.94057" pt_clust_10="39.16165"></scales>
<clustering>
<clus scale="   39.162">  2 10  1 -1</clus>
<clus scale="   47.941">  1  9  2 -1</clus>
<clus scale="   89.657">  7  8 -1 -1</clus>
<clus scale="   92.952">  5  6 -1 -1</clus>
<clus scale="  253.408">  2  7  1 -1</clus>
<clus scale="   47.941">  1  5  2 -1</clus>
</clustering>
</event>
<event>
10    2  0.2445576E-006  0.1060085E+03  0.7546771E-02  0.1268528E+00
          1   -1    0    0  503    0  0.00000000000E+00  0.00000000000E+00  0.36975880134E+03  0.36975880134E+03  0.00000000000E+00 0. -1.
         -1   -1    0    0    0  501 -0.00000000000E+00 -0.00000000000E+00 -0.52696736452E+02  0.52696736452E+02  0.00000000000E+00 0.  1.
         23    2    1    2    0    0 -0.71815808240E+02  0.34336001692E+02  0.15979244258E+03  0.20036170779E+03  0.90965476510E+02 0.  0.
         23    2    1    2    0    0  0.32845557261E+02 -0.45192280378E+01  0.10974450442E+03  0.14578079307E+03  0.90049593693E+02 0.  0.
        -13    1    4    4    0    0 -0.18502945677E+02 -0.28692620302E+02  0.19916197655E+02  0.39525692752E+02  0.00000000000E+00 0.  1.
         13    1    4    4    0    0  0.51348502938E+02  0.24173392264E+02  0.89828306766E+02  0.10625510032E+03  0.00000000000E+00 0. -1.
        -13    1    3    3    0    0  0.58220774085E+01  0.39520248101E+02  0.34041516279E+02  0.52484011146E+02  0.00000000000E+00 0. -1.
         13    1    3    3    0    0 -0.77637885649E+02 -0.51842464092E+01  0.12575092630E+03  0.14787769664E+03  0.00000000000E+00 0.  1.
         21    1    1    2  502  501  0.21043853687E+01 -0.20935341456E+02  0.22898334191E+02  0.31097438293E+02  0.00000000000E+00 0. -1.
         21    1    1    2  503  502  0.36865865610E+02 -0.88814321984E+01  0.24626783701E+02  0.45215598642E+02  0.00000000000E+00 0. -1.
<scales pt_clust_5="13000.00000" pt_clust_6="13000.00000" pt_clust_7="13000.00000" pt_clust_8="13000.00000" pt_clust_9="21.04084" pt_clust_10="39.61666"></scales>
<clustering>
<clus scale="   21.041">  2  9  1 -1</clus>
<clus scale="   39.617">  2 10  1 -1</clus>
<clus scale="   90.050">  5  6 -1 -1</clus>
<clus scale="   90.965">  7  8 -1 -1</clus>
<clus scale="  105.224">  1  5  2 -1</clus>
<clus scale="  105.224">  1  5  2 -1</clus>
</clustering>
</event>
<event>
10    2  0.2445576E-006  0.1066321E+03  0.7546771E-02  0.1270721E+00
          2   -1    0    0  502    0  0.00000000000E+00  0.00000000000E+00  0.54353017555E+03  0.54353017555E+03  0.00000000000E+00 0. -1.
         -2   -1    0    0    0  501 -0.00000000000E+00 -0.00000000000E+00 -0.73213571626E+02  0.73213571626E+02  0.00000000000E+00 0.  1.
         23    2    1    2    0    0  0.92497333669E+01  0.15237088375E+02  0.19034599136E+03  0.21564538885E+03  0.99767784771E+02 0.  0.
         23    2    1    2    0    0 -0.17288477282E+02 -0.49044623249E+02  0.28398243843E+03  0.30290792330E+03  0.91667432309E+02 0.  0.
        -11    1    3    3    0    0  0.19930445366E+02 -0.39160254078E+02  0.63561236699E+02  0.77270815724E+02  0.00000000000E+00 0.  1.
         11    1    3    3    0    0 -0.10680711999E+02  0.54397342453E+02  0.12678475466E+03  0.13837457313E+03  0.00000000000E+00 0. -1.
        -13    1    4    4    0    0  0.64870058710E+01 -0.69459361661E+02  0.15181657738E+03  0.16707769849E+03  0.00000000000E+00 0.  1.
         13    1    4    4    0    0 -0.23775483153E+02  0.20414738412E+02  0.13216586105E+03  0.13583022481E+03  0.00000000000E+00 0. -1.
         21    1    1    2  502  503 -0.21590177784E+02 -0.13864395520E+01  0.32784711503E+02  0.39279705953E+02  0.00000000000E+00 0. -1.
         21    1    1    2  503  501  0.29628921699E+02  0.35193974426E+02 -0.36796537368E+02  0.58910729068E+02  0.00000000000E+00 0.  1.
<scales pt_clust_5="13000.00000" pt_clust_6="13000.00000" pt_clust_7="13000.00000" pt_clust_8="13000.00000" pt_clust_9="21.63465" pt_clust_10="45.68052"></scales>
<clustering>
<clus scale="   21.635">  1  9  2 -1</clus>
<clus scale="   45.681">  2 10  1 -1</clus>
<clus scale="   91.667">  7  8 -1 -1</clus>
<clus scale="   99.094">  1  7  2 -1</clus>
<clus scale="   99.768">  5  6 -1 -1</clus>
<clus scale="   21.635">  1  5  2 -1</clus>
</clustering>
</event>
<event>
10    2  0.2445576E-006  0.1139757E+03  0.7546771E-02  0.1254610E+00
         -1   -1    0    0    0  501 -0.00000000000E+00  0.00000000000E+00  0.18372565142E+03  0.18372565142E+03  0.00000000000E+00 0.  1.
          1   -1    0    0  502    0  0.00000000000E+00 -0.00000000000E+00 -0.34805045740E+03  0.34805045740E+03  0.00000000000E+00 0. -1.
         23    2    1    2    0    0  0.63920384088E+02 -0.37422581796E+02  0.11586223236E+03  0.16487406618E+03  0.90956779189E+02 0.  0.
         23    2    1    2    0    0 -0.26830904988E+02 -0.32651618350E+02 -0.11489099178E+03  0.15452604546E+03  0.94299168033E+02 0.  0.
        -11    1    3    3    0    0  0.85249881338E+02 -0.40978892004E+02  0.84856234831E+02  0.12707239058E+03  0.00000000000E+00 0.  1.
         11    1    3    3    0    0 -0.21329497250E+02  0.35563102077E+01  0.31005997532E+02  0.37801675600E+02  0.00000000000E+00 0. -1.
        -13    1    4    4    0    0 -0.19106698384E+02  0.28862901387E+02 -0.16777241030E+02  0.38465683618E+02  0.00000000000E+00 0.  1.
         13    1    4    4    0    0 -0.77242066048E+01 -0.61514519737E+02 -0.98113750748E+02  0.11606036185E+03  0.00000000000E+00 0. -1.
         21    1    1    2  502  503  0.36063452954E+02  0.35619746460E+02 -0.81114193357E+02  0.95649628022E+02  0.00000000000E+00 0.  1.
         21    1    1    2  503  501 -0.73152932054E+02  0.34454453686E+02 -0.84181853208E+02  0.11672636916E+03  0.00000000000E+00 0.  1.
<scales pt_clust_5="13000.00000" pt_clust_6="13000.00000" pt_clust_7="13000.00000" pt_clust_8="13000.00000" pt_clust_9="50.68865" pt_clust_10="76.36335"></scales>
<clustering>
<clus scale="   50.689">  2  9  1 -1</clus>
<clus scale="   76.363">  2 10  1 -1</clus>
<clus scale="   90.957">  5  6 -1 -1</clus>
<clus scale="   94.299">  7  8 -1 -1</clus>
<clus scale="  111.226">  1  5  2 -1</clus>
<clus scale="   50.689">  2  5  1 -1</clus>
</clustering>
</event>
<event>
10    2  0.2445576E-006  0.1012538E+03  0.7546771E-02  0.1277921E+00
         -2   -1    0    0    0  501 -0.00000000000E+00  0.00000000000E+00  0.17332016825E+03  0.17332016825E+03  0.00000000000E+00 0.  1.
          2   -1    0    0  502    0  0.00000000000E+00 -0.00000000000E+00 -0.17312700211E+03  0.17312700211E+03  0.00000000000E+00 0. -1.
         23    2    1    2    0    0 -0.23907384630E+02  0.25448902142E+02  0.62001917451E+02  0.11565392882E+03  0.91172275528E+02 0.  0.
         23    2    1    2    0    0  0.50280555332E+02 -0.33502143410E+02 -0.88015245390E+02  0.14005760745E+03  0.90658271133E+02 0.  0.
        -11    1    4    4    0    0  0.41153370312E+02  0.24056329154E+02 -0.23595635537E+02  0.53188916860E+02  0.00000000000E+00 0. -1.
         11    1    4    4    0    0  0.91271850200E+01 -0.57558472565E+02 -0.64419609853E+02  0.86868690585E+02  0.00000000000E+00 0.  1.
        -11    1    3    3    0    0 -0.53809195006E+02  0.62985598116E+01  0.58874178561E+02  0.80007938507E+02  0.00000000000E+00 0.  1.
         11    1    3    3    0    0  0.29901810377E+02  0.19150342330E+02  0.31277388905E+01  0.35645990318E+02  0.00000000000E+00 0. -1.
         21    1    1    2  502  503 -0.40047537973E+02 -0.13188702554E+02 -0.12976162562E+02  0.44114940412E+02  0.00000000000E+00 0.  1.
         21    1    1    2  503  501  0.13674367270E+02  0.21241943823E+02  0.39182656639E+02  0.46620693677E+02  0.00000000000E+00 0. -1.
<scales pt_clust_5="13000.00000" pt_clust_6="13000.00000" pt_clust_7="13000.00000" pt_clust_8="13000.00000" pt_clust_9="39.86480" pt_clust_10="25.26279"></scales>
<clustering>
<clus scale="   25.263">  1 10  2 -1</clus>
<clus scale="   39.865">  2  9  1 -1</clus>
<clus scale="   90.658">  5  6 -1 -1</clus>
<clus scale="   91.172">  7  8 -1 -1</clus>
<clus scale="  100.791">  2  5  1 -1</clus>
<clus scale="   39.865">  2  5  1 -1</clus>
</clustering>
</event>
<event>
10    2  0.2445576E-006  0.1088603E+03  0.7546771E-02  0.1264240E+00
         -1   -1    0    0    0  501 -0.00000000000E+00  0.00000000000E+00  0.16959259833E+03  0.16959259833E+03  0.00000000000E+00 0.  1.
          1   -1    0    0  502    0  0.00000000000E+00 -0.00000000000E+00 -0.47464124770E+03  0.47464124770E+03  0.00000000000E+00 0. -1.
         23    2    1    2    0    0 -0.80627726669E+02 -0.15144826428E+02 -0.19605716490E+00  0.12120990062E+03  0.89227829151E+02 0.  0.
         23    2    1    2    0    0  0.36011630086E+02  0.22387478434E+02 -0.18221921125E+03  0.20894490840E+03  0.93038148649E+02 0.  0.
        -13    1    3    3    0    0  0.11031714618E+02 -0.17391306810E+02 -0.18534335762E+02  0.27707000598E+02  0.00000000000E+00 0.  1.
         13    1    3    3    0    0 -0.91659441286E+02  0.22464803815E+01  0.18338278597E+02  0.93502900024E+02  0.00000000000E+00 0. -1.
        -13    1    4    4    0    0  0.39086694295E+02 -0.17271032902E+02 -0.31560842816E+02  0.53123865142E+02  0.00000000000E+00 0.  1.
         13    1    4    4    0    0 -0.30750642089E+01  0.39658511336E+02 -0.15065836844E+03  0.15582104326E+03  0.00000000000E+00 0. -1.
         21    1    1    2  502  503  0.18751191913E+02 -0.20340962549E+02 -0.21525516287E+03  0.21702568303E+03  0.00000000000E+00 0.  1.
         21    1    1    2  503  501  0.25864904670E+02  0.13098310544E+02  0.92621781914E+02  0.97053353974E+02  0.00000000000E+00 0. -1.
<scales pt_clust_5="13000.00000" pt_clust_6="13000.00000" pt_clust_7="13000.00000" pt_clust_8="13000.00000" pt_clust_9="27.66518" pt_clust_10="29.05791"></scales>
<clustering>
<clus scale="   27.665">  2  9  1 -1</clus>
<clus scale="   29.058">  1 10  2 -1</clus>
<clus scale="   89.228">  5  6 -1 -1</clus>
<clus scale="   93.038">  7  8 -1 -1</clus>
<clus scale="  105.622">  1  5  2 -1</clus>
<clus scale="   27.665">  2  5  1 -1</clus>
</clustering>
</event>
<event>
10    2  0.2445576E-006  0.2508283E+03  0.7546771E-02  0.1112916E+00
          1   -1    0    0  502    0  0.00000000000E+00  0.00000000000E+00  0.11021011415E+04  0.11021011415E+04  0.00000000000E+00 0. -1.
         -1   -1    0    0    0  501 -0.00000000000E+00 -0.00000000000E+00 -0.13962971356E+03  0.13962971356E+03  0.00000000000E+00 0.  1.
         23    2    1    2    0    0  0.18341265268E+03  0.10474756313E+03  0.91658789927E+01  0.23070052180E+03  0.92338855733E+02 0.  0.
         23    2    1    2    0    0 -0.22099813812E+03 -0.79526590446E+02  0.90016611945E+03  0.93464665389E+03  0.90003718701E+02 0.  0.
        -13    1    3    3    0    0 -0.36158675951E+01  0.27223039136E+02 -0.42877070603E+01  0.27794833874E+02  0.00000000000E+00 0. -1.
         13    1    3    3    0    0  0.18702852027E+03  0.77524523996E+02  0.13453586053E+02  0.20290568793E+03  0.00000000000E+00 0.  1.
        -13    1    4    4    0    0 -0.47556588120E+02 -0.60545824313E+02  0.26633607595E+03  0.27724056570E+03  0.00000000000E+00 0.  1.
         13    1    4    4    0    0 -0.17344155000E+03 -0.18980766133E+02  0.63383004350E+03  0.65740608819E+03  0.00000000000E+00 0. -1.
         21    1    1    2  502  503  0.49631067583E+01 -0.20814091581E+02  0.26336171290E+02  0.33933062863E+02  0.00000000000E+00 0. -1.
         21    1    1    2  503  501  0.32622378686E+02 -0.44068811046E+01  0.26803258231E+02  0.42450616533E+02  0.00000000000E+00 0.  1.
<scales pt_clust_5="13000.00000" pt_clust_6="13000.00000" pt_clust_7="13000.00000" pt_clust_8="13000.00000" pt_clust_9="21.39764" pt_clust_10="33.17384"></scales>
<clustering>
<clus scale="   21.398">  1  9  2 -1</clus>
<clus scale="   33.174">  2 10  1 -1</clus>
<clus scale="   90.004">  7  8 -1 -1</clus>
<clus scale="   92.339">  5  6 -1 -1</clus>
<clus scale="  249.978">  1  7  2 -1</clus>
<clus scale="   21.398">  1  5  2 -1</clus>
</clustering>
</event>
<event>
10    2  0.2445576E-006  0.9570924E+02  0.7546771E-02  0.1291126E+00
         -1   -1    0    0    0  501 -0.00000000000E+00  0.00000000000E+00  0.28480287960E+03  0.28480287960E+03  0.00000000000E+00 0.  1.
          1   -1    0    0  503    0  0.00000000000E+00 -0.00000000000E+00 -0.39576881901E+03  0.39576881901E+03  0.00000000000E+00 0. -1.
         23    2    1    2    0    0  0.12578803535E+02 -0.13226630079E+02 -0.75181285664E+01  0.94481942187E+02  0.92396672563E+02 0.  0.
         23    2    1    2    0    0  0.13795047984E+02  0.89713973846E+00 -0.32599299289E+03  0.33987164569E+03  0.95132517668E+02 0.  0.
        -11    1    4    4    0    0  0.48698482844E+02  0.19821787382E+02 -0.23113241011E+03  0.23703720486E+03  0.00000000000E+00 0. -1.
         11    1    4    4    0    0 -0.34903434860E+02 -0.18924647644E+02 -0.94860582786E+02  0.10283444083E+03  0.00000000000E+00 0.  1.
        -11    1    3    3    0    0 -0.42631375621E+01  0.37784793610E+02 -0.13678720623E+02  0.40410052807E+02  0.00000000000E+00 0.  1.
         11    1    3    3    0    0  0.16841941098E+02 -0.51011423688E+02  0.61605920569E+01  0.54071889380E+02  0.00000000000E+00 0. -1.
         21    1    1    2  502  501 -0.90232004180E+00  0.25565835958E+02  0.41159443368E+01  0.25910753510E+02  0.00000000000E+00 0. -1.
         21    1    1    2  503  502 -0.25471531478E+02 -0.13236345618E+02  0.21842923771E+03  0.22030735722E+03  0.00000000000E+00 0.  1.
<scales pt_clust_5="13000.00000" pt_clust_6="13000.00000" pt_clust_7="13000.00000" pt_clust_8="13000.00000" pt_clust_9="25.58175" pt_clust_10="27.27156"></scales>
<clustering>
<clus scale="   25.582">  1  9  2 -1</clus>
<clus scale="   27.272">  1 10  2 -1</clus>
<clus scale="   92.397">  7  8 -1 -1</clus>
<clus scale="   92.990">  1  7  2 -1</clus>
<clus scale="   95.133">  5  6 -1 -1</clus>
<clus scale="   95.709">  2  5  1 -1</clus>
</clustering>
</event>
<event>
10    2  0.2445576E-006  0.1401092E+03  0.7546771E-02  0.1213270E+00
         -2   -1    0    0    0  501 -0.00000000000E+00  0.00000000000E+00  0.76056021750E+02  0.76056021750E+02  0.00000000000E+00 0.  1.
          2   -1    0    0  503    0  0.00000000000E+00 -0.00000000000E+00 -0.59762692433E+03  0.59762692433E+03  0.00000000000E+00 0. -1.
         23    2    1    2    0    0 -0.42077900523E+02 -0.11330751701E+03 -0.14838517904E+03  0.21153301408E+03  0.90105002995E+02 0.  0.
         23    2    1    2    0    0  0.78256341984E+02  0.70323551487E+02 -0.36666587625E+03  0.39205235898E+03  0.90508178748E+02 0.  0.
        -11    1    4    4    0    0  0.94850264997E+02  0.50172735935E+02 -0.33026526347E+03  0.34725929859E+03  0.00000000000E+00 0. -1.
         11    1    4    4    0    0 -0.16593923014E+02  0.20150815551E+02 -0.36400612780E+02  0.44793060390E+02  0.00000000000E+00 0.  1.
        -13    1    3    3    0    0 -0.29773688824E+02 -0.44546693370E+02 -0.12800670559E+03  0.13876814156E+03  0.00000000000E+00 0. -1.
         13    1    3    3    0    0 -0.12304211699E+02 -0.68760823636E+02 -0.20378473451E+02  0.72764872520E+02  0.00000000000E+00 0.  1.
         21    1    1    2  502  501 -0.19040418502E+02  0.18785907934E+02 -0.23777842954E+02  0.35788736904E+02  0.00000000000E+00 0.  1.
         21    1    1    2  503  502 -0.17138022958E+02  0.24198057585E+02  0.17257995660E+02  0.34308836121E+02  0.00000000000E+00 0.  1.
<scales pt_clust_5="13000.00000" pt_clust_6="13000.00000" pt_clust_7="13000.00000" pt_clust_8="13000.00000" pt_clust_9="26.74786" pt_clust_10="39.38312"></scales>
<clustering>
<clus scale="   26.748">  1  9  2 -1</clus>
<clus scale="   39.383">  1 10  2 -1</clus>
<clus scale="   90.105">  7  8 -1 -1</clus>
<clus scale="   90.508">  5  6 -1 -1</clus>
<clus scale="  139.849">  1  7  2 -1</clus>
<clus scale="  140.109">  2  5  1 -1</clus>
</clustering>
</event>
<event>
10    2  0.2445576E-006  0.1353013E+03  0.7546771E-02  0.1219883E+00
          1   -1    0    0  502    0  0.00000000000E+00  0.00000000000E+00  0.11739394161E+04  0.11739394161E+04  0.00000000000E+00 0. -1.
         -1   -1    0    0    0  501 -0.00000000000E+00 -0.00000000000E+00 -0.40462163856E+02  0.40462163856E+02  0.00000000000E+00 0.  1.
         23    2    1    2    0    0 -0.90458408901E+02  0.35305862724E+02  0.15188467121E+03  0.20178607051E+03  0.90661111937E+02 0.  0.
         23    2    1    2    0    0  0.79991087583E+02  0.29517885534E+02  0.65158760438E+03  0.66341761720E+03  0.91031033006E+02 0.  0.
        -11    1    3    3    0    0 -0.40004831863E+02 -0.12654038291E+02  0.90962029684E+01  0.42933112697E+02  0.00000000000E+00 0.  1.
         11    1    3    3    0    0 -0.50453577039E+02  0.47959901015E+02  0.14278846825E+03  0.15885295781E+03  0.00000000000E+00 0. -1.
        -13    1    4    4    0    0  0.15807374527E+02 -0.31471511556E+02  0.15030916933E+03  0.15437997122E+03  0.00000000000E+00 0.  1.
         13    1    4    4    0    0  0.64183713056E+02  0.60989397089E+02  0.50127843505E+03  0.50903764598E+03  0.00000000000E+00 0. -1.
         21    1    1    2  502  503  0.35900547894E+02 -0.37430759772E+02  0.28938691710E+03  0.29399778724E+03  0.00000000000E+00 0. -1.
         21    1    1    2  503  501 -0.25433226576E+02 -0.27392988485E+02  0.40618059597E+02  0.55200105051E+02  0.00000000000E+00 0.  1.
<scales pt_clust_5="13000.00000" pt_clust_6="13000.00000" pt_clust_7="13000.00000" pt_clust_8="13000.00000" pt_clust_9="52.07943" pt_clust_10="37.37947"></scales>
<clustering>
<clus scale="   37.379">  2 10  1 -1</clus>
<clus scale="   52.079">  1  9  2 -1</clus>
<clus scale="   90.661">  5  6 -1 -1</clus>
<clus scale="   91.031">  7  8 -1 -1</clus>
<clus scale="  135.053">  2  5  1 -1</clus>
<clus scale="   52.079">  1  5  2 -1</clus>
</clustering>
</event>
<event>
10    2  0.2445576E-006  0.3303198E+03  0.7546771E-02  0.1070998E+00
         -2   -1    0    0    0  501 -0.00000000000E+00  0.00000000000E+00  0.22673325274E+03  0.22673325274E+03  0.00000000000E+00 0.  1.
          2   -1    0    0  502    0  0.00000000000E+00 -0.00000000000E+00 -0.84059396140E+03  0.84059396140E+03  0.00000000000E+00 0. -1.
         23    2    1    2    0    0  0.20786775458E+03  0.22522632333E+03 -0.71044927961E+01  0.32022655788E+03  0.92513104147E+02 0.  0.
         23    2    1    2    0    0 -0.25490919813E+03 -0.20929315069E+03 -0.43905417396E+03  0.55686300509E+03  0.92441963127E+02 0.  0.
        -11    1    3    3    0    0  0.15783005140E+03  0.20270531559E+03  0.22482169796E+02  0.25788605634E+03  0.00000000000E+00 0.  1.
         11    1    3    3    0    0  0.50037703183E+02  0.22521007733E+02 -0.29586662592E+02  0.62340501542E+02  0.00000000000E+00 0. -1.
        -11    1    4    4    0    0 -0.89410047718E+02 -0.28222234630E+02 -0.87960840323E+02  0.12856033833E+03  0.00000000000E+00 0.  1.
         11    1    4    4    0    0 -0.16549915041E+03 -0.18107091606E+03 -0.35109333364E+03  0.42830266676E+03  0.00000000000E+00 0. -1.
         21    1    1    2  502  503  0.22206133195E+02 -0.57139306312E+01 -0.16091125236E+03  0.16253674197E+03  0.00000000000E+00 0.  1.
         21    1    1    2  503  501  0.24835310355E+02 -0.10219242001E+02 -0.67907895450E+01  0.27700909193E+02  0.00000000000E+00 0. -1.
<scales pt_clust_5="13000.00000" pt_clust_6="13000.00000" pt_clust_7="13000.00000" pt_clust_8="13000.00000" pt_clust_9="22.92949" pt_clust_10="27.43268"></scales>
<clustering>
<clus scale="   22.929">  2  9  1 -1</clus>
<clus scale="   27.433">  1 10  2 -1</clus>
<clus scale="   92.442">  7  8 -1 -1</clus>
<clus scale="   92.513">  5  6 -1 -1</clus>
<clus scale="  330.300">  2  7  1 -1</clus>
<clus scale="   22.929">  2  5  1 -1</clus>
</clustering>
</event>
<event>
10    2  0.2445576E-006  0.1767784E+03  0.7546771E-02  0.1171330E+00
         -2   -1    0    0    0  501 -0.00000000000E+00  0.00000000000E+00  0.76634859591E+02  0.76634859591E+02  0.00000000000E+00 0.  1.
          2   -1    0    0  502    0  0.00000000000E+00 -0.00000000000E+00 -0.81790851875E+03  0.81790851875E+03  0.00000000000E+00 0. -1.
         23    2    1    2    0    0 -0.12330834004E+03 -0.12858651678E+03 -0.16434546375E+03  0.25966693819E+03  0.93156042812E+02 0.  0.
         23    2    1    2    0    0  0.11029069796E+03  0.44210906966E+02 -0.30201860423E+03  0.33687609938E+03  0.90286359337E+02 0.  0.
        -11    1    4    4    0    0  0.78605572487E+02 -0.16879992951E+02 -0.16516500335E+03  0.18369335459E+03  0.00000000000E+00 0.  1.
         11    1    4    4    0    0  0.31685125475E+02  0.61090899917E+02 -0.13685360087E+03  0.15318274479E+03  0.00000000000E+00 0. -1.
        -13    1    3    3    0    0  0.93973445808E+01 -0.40901829326E+02 -0.32999946146E+02  0.53387884141E+02  0.00000000000E+00 0.  1.
         13    1    3    3    0    0 -0.13270568462E+03 -0.87684687449E+02 -0.13134551761E+03  0.20627905405E+03  0.00000000000E+00 0. -1.
         21    1    1    2  502  503  0.26056453722E+02  0.61128482500E+02 -0.25803446294E+03  0.26645339971E+03  0.00000000000E+00 0. -1.
         21    1    1    2  503  501 -0.13038811645E+02  0.23247127309E+02 -0.16875128241E+02  0.31546941063E+02  0.00000000000E+00 0. -1.
<scales pt_clust_5="13000.00000" pt_clust_6="13000.00000" pt_clust_7="13000.00000" pt_clust_8="13000.00000" pt_clust_9="67.45085" pt_clust_10="26.65407"></scales>
<clustering>
<clus scale="   26.654">  1 10  2 -1</clus>
<clus scale="   67.451">  2  9  1 -1</clus>
<clus scale="   90.286">  5  6 -1 -1</clus>
<clus scale="   93.156">  7  8 -1 -1</clus>
<clus scale="  175.283">  2  5  1 -1</clus>
<clus scale="   67.451">  2  5  1 -1</clus>
</clustering>
</event>
<event>
10    2  0.2445576E-006  0.1426380E+03  0.7546771E-02  0.1209843E+00
         -3   -1    0    0    0  501 -0.00000000000E+00  0.00000000000E+00  0.29815077923E+03  0.29815077923E+03  0.00000000000E+00 0.  1.
          3   -1    0    0  502    0  0.00000000000E+00 -0.00000000000E+00 -0.38878731803E+03  0.38878731803E+03  0.00000000000E+00 0. -1.
         23    2    1    2    0    0 -0.57367997431E+02 -0.12986068248E+03  0.21120065686E+03  0.27035342154E+03  0.91270866655E+02 0.  0.
         23    2    1    2    0    0  0.39794777683E+02  0.75185705318E+02 -0.27607019135E+03  0.30292548970E+03  0.91173390538E+02 0.  0.
        -11    1    3    3    0    0 -0.58992119379E+02 -0.97681004340E+02  0.91131777549E+02  0.14603646681E+03  0.00000000000E+00 0. -1.
         11    1    3    3    0    0  0.16241219480E+01 -0.32179678141E+02  0.12006887931E+03  0.12431695474E+03  0.00000000000E+00 0.  1.
        -13    1    4    4    0    0 -0.18610128976E+02  0.51241916238E+02 -0.78937002259E+02  0.95932899497E+02  0.00000000000E+00 0.  1.
         13    1    4    4    0    0  0.58404906659E+02  0.23943789080E+02 -0.19713318909E+03  0.20699259020E+03  0.00000000000E+00 0. -1.
         21    1    1    2  502  503 -0.50404695439E+00  0.27390548371E+02 -0.60207645757E+02  0.66147235853E+02  0.00000000000E+00 0. -1.
         21    1    1    2  503  501  0.18077266703E+02  0.27284428793E+02  0.34440641445E+02  0.47511950171E+02  0.00000000000E+00 0.  1.
<scales pt_clust_5="13000.00000" pt_clust_6="13000.00000" pt_clust_7="13000.00000" pt_clust_8="13000.00000" pt_clust_9="27.39519" pt_clust_10="33.18381"></scales>
<clustering>
<clus scale="   27.395">  2  9  1 -1</clus>
<clus scale="   33.184">  1 10  2 -1</clus>
<clus scale="   91.173">  7  8 -1 -1</clus>
<clus scale="   91.271">  5  6 -1 -1</clus>
<clus scale="  142.576">  2  7  1 -1</clus>
<clus scale="   27.395">  2  5  1 -1</clus>
</clustering>
</event>
<event>
10    2  0.2445576E-006  0.9851196E+02  0.7546771E-02  0.1284385E+00
          1   -1    0    0  502    0  0.00000000000E+00  0.00000000000E+00  0.17883125057E+03  0.17883125057E+03  0.00000000000E+00 0. -1.
         -1   -1    0    0    0  501 -0.00000000000E+00 -0.00000000000E+00 -0.10488171312E+03  0.10488171312E+03  0.00000000000E+00 0.  1.
         23    2    1    2    0    0 -0.33913430249E+02 -0.24375124217E+02  0.24314511979E+02  0.10447923683E+03  0.92630707671E+02 0.  0.
         23    2    1    2    0    0  0.35637205693E+02 -0.12226890848E+01  0.52888625571E+02  0.11097039442E+03  0.90805926710E+02 0.  0.
        -13    1    4    4    0    0  0.57149147811E+02  0.24786173286E+02  0.43363369058E+02  0.75899678904E+02  0.00000000000E+00 0.  1.
         13    1    4    4    0    0 -0.21511942118E+02 -0.26008862370E+02  0.95252565132E+01  0.35070715520E+02  0.00000000000E+00 0. -1.
        -13    1    3    3    0    0  0.48749124357E-01  0.25119725280E+02  0.35430924451E+02  0.43432169898E+02  0.00000000000E+00 0. -1.
         13    1    3    3    0    0 -0.33962179373E+02 -0.49494849498E+02 -0.11116412471E+02  0.61047066930E+02  0.00000000000E+00 0.  1.
         21    1    1    2  502  503 -0.20691142389E+02  0.87272224613E+01  0.22720115168E+02  0.31945131373E+02  0.00000000000E+00 0. -1.
         21    1    1    2  503  501  0.18967366944E+02  0.16870590841E+02 -0.25973715264E+02  0.36318201067E+02  0.00000000000E+00 0. -1.
<scales pt_clust_5="13000.00000" pt_clust_6="13000.00000" pt_clust_7="13000.00000" pt_clust_8="13000.00000" pt_clust_9="22.45635" pt_clust_10="25.06435"></scales>
<clustering>
<clus scale="   22.456">  1  9  2 -1</clus>
<clus scale="   25.064">  2 10  1 -1</clus>
<clus scale="   90.806">  5  6 -1 -1</clus>
<clus scale="   92.631">  7  8 -1 -1</clus>
<clus scale="   96.798">  1  5  2 -1</clus>
<clus scale="   22.456">  1  5  2 -1</clus>
</clustering>
</event>
<event>
10    2  0.2445576E-006  0.1148780E+03  0.7546771E-02  0.1252029E+00
          1   -1    0    0  502    0  0.00000000000E+00  0.00000000000E+00  0.50592590619E+02  0.50592590619E+02  0.00000000000E+00 0. -1.
         -1   -1    0    0    0  501 -0.00000000000E+00 -0.00000000000E+00 -0.47907337895E+03  0.47907337895E+03  0.00000000000E+00 0.  1.
         23    2    1    2    0    0  0.81099482815E+02  0.32100763676E+02 -0.16553918082E+03  0.20830513509E+03  0.91543562189E+02 0.  0.
         23    2    1    2    0    0 -0.56181242535E+02  0.80320172508E+01 -0.11910911075E+03  0.16020302230E+03  0.90869041901E+02 0.  0.
        -13    1    4    4    0    0 -0.73705266762E+02 -0.10368777499E+02 -0.59117512929E+02  0.95051871261E+02  0.00000000000E+00 0. -1.
         13    1    4    4    0    0  0.17524024227E+02  0.18400794750E+02 -0.59991597816E+02  0.65151151034E+02  0.00000000000E+00 0.  1.
        -13    1    3    3    0    0  0.82799849338E+02  0.57605634813E+02 -0.13081172178E+03  0.16518453550E+03  0.00000000000E+00 0.  1.
         13    1    3    3    0    0 -0.17003665235E+01 -0.25504871138E+02 -0.34727459039E+02  0.43120599594E+02  0.00000000000E+00 0. -1.
         21    1    1    2  502  503 -0.27249000196E+02 -0.83609742842E+01 -0.24307651848E+02  0.37460323557E+02  0.00000000000E+00 0. -1.
         21    1    1    2  503  501  0.23307599164E+01 -0.31771806642E+02 -0.11952484492E+03  0.12369748863E+03  0.00000000000E+00 0.  1.
<scales pt_clust_5="13000.00000" pt_clust_6="13000.00000" pt_clust_7="13000.00000" pt_clust_8="13000.00000" pt_clust_9="28.50288" pt_clust_10="32.18489"></scales>
<clustering>
<clus scale="   28.503">  1  9  2 -1</clus>
<clus scale="   32.185">  2 10  1 -1</clus>
<clus scale="   90.869">  5  6 -1 -1</clus>
<clus scale="   91.544">  7  8 -1 -1</clus>
<clus scale="  114.341">  1  5  2 -1</clus>
<clus scale="   28.503">  1  5  2 -1</clus>
</clustering>
</event>
<event>
10    2  0.2445576E-006  0.1021326E+03  0.7546771E-02  0.1276214E+00
         -3   -1    0    0    0  501 -0.00000000000E+00  0.00000000000E+00  0.67769049953E+02  0.67769049953E+02  0.00000000000E+00 0.  1.
          3   -1    0    0  502    0  0.00000000000E+00 -0.00000000000E+00 -0.41448856027E+03  0.41448856027E+03  0.00000000000E+00 0. -1.
         23    2    1    2    0    0  0.38119505876E+02  0.52061094111E+02 -0.76985429746E+02  0.13616273655E+03  0.91924317692E+02 0.  0.
         23    2    1    2    0    0 -0.27159983728E+02 -0.72438592913E+01 -0.92252599065E+02  0.13373729335E+03  0.92655185416E+02 0.  0.
        -11    1    4    4    0    0  0.32875047710E+02  0.49425204669E+01 -0.19168532776E+02  0.38374860512E+02  0.00000000000E+00 0. -1.
         11    1    4    4    0    0 -0.60035031438E+02 -0.12186379758E+02 -0.73084066288E+02  0.95362432837E+02  0.00000000000E+00 0.  1.
        -13    1    3    3    0    0  0.22870473016E+02 -0.60509562853E+01 -0.72103365549E+02  0.75885228677E+02  0.00000000000E+00 0.  1.
         13    1    3    3    0    0  0.15249032860E+02  0.58112050396E+02 -0.48820641971E+01  0.60277507872E+02  0.00000000000E+00 0. -1.
         21    1    1    2  502  503  0.18849792821E+01 -0.24713984095E+02 -0.18553145014E+03  0.18717973488E+03  0.00000000000E+00 0. -1.
         21    1    1    2  503  501 -0.12844501430E+02 -0.20103250725E+02  0.80499686320E+01  0.25177845453E+02  0.00000000000E+00 0. -1.
<scales pt_clust_5="13000.00000" pt_clust_6="13000.00000" pt_clust_7="13000.00000" pt_clust_8="13000.00000" pt_clust_9="25.09403" pt_clust_10="23.85628"></scales>
<clustering>
<clus scale="   23.856">  1 10  2 -1</clus>
<clus scale="   25.094">  2  9  1 -1</clus>
<clus scale="   91.924">  7  8 -1 -1</clus>
<clus scale="   92.655">  5  6 -1 -1</clus>
<clus scale="  101.470">  1  7  2 -1</clus>
<clus scale="   25.094">  2  5  1 -1</clus>
</clustering>
</event>
<event>
10    2  0.2445576E-006  0.1195577E+03  0.7546771E-02  0.1244287E+00
         -2   -1    0    0    0  501 -0.00000000000E+00  0.00000000000E+00  0.10440235148E+03  0.10440235148E+03  0.00000000000E+00 0.  1.
          2   -1    0    0  502    0  0.00000000000E+00 -0.00000000000E+00 -0.65642845721E+03  0.65642845721E+03  0.00000000000E+00 0. -1.
         23    2    1    2    0    0  0.44468550703E+02 -0.53376884443E+02 -0.58662035131E+02  0.12845150294E+03  0.90730427355E+02 0.  0.
         23    2    1    2    0    0 -0.75423715282E+02 -0.75482566968E+01 -0.48902214604E+03  0.50285021032E+03  0.89274641970E+02 0.  0.
        -11    1    4    4    0    0 -0.22605960619E+02 -0.44218856769E+02 -0.27225839337E+03  0.27675073534E+03  0.00000000000E+00 0.  1.
         11    1    4    4    0    0 -0.52817754663E+02  0.36670600072E+02 -0.21676375267E+03  0.22609947498E+03  0.00000000000E+00 0. -1.
        -11    1    3    3    0    0 -0.16932179364E+02 -0.18591903933E+02 -0.51760130498E+02  0.57545362099E+02  0.00000000000E+00 0. -1.
         11    1    3    3    0    0  0.61400730067E+02 -0.34784980509E+02 -0.69019046325E+01  0.70906140844E+02  0.00000000000E+00 0.  1.
         21    1    1    2  502  503 -0.11657997371E+02  0.23170783890E+02 -0.50146973262E+02  0.56458064580E+02  0.00000000000E+00 0. -1.
         21    1    1    2  503  501  0.42613161951E+02  0.37754357250E+02  0.45805048699E+02  0.73071030847E+02  0.00000000000E+00 0.  1.
<scales pt_clust_5="13000.00000" pt_clust_6="13000.00000" pt_clust_7="13000.00000" pt_clust_8="13000.00000" pt_clust_9="25.93828" pt_clust_10="57.08508"></scales>
<clustering>
<clus scale="   25.938">  2  9  1 -1</clus>
<clus scale="   57.085">  1 10  2 -1</clus>
<clus scale="   89.275">  5  6 -1 -1</clus>
<clus scale="   90.730">  7  8 -1 -1</clus>
<clus scale="  118.457">  2  5  1 -1</clus>
<clus scale="   25.938">  2  5  1 -1</clus>
</clustering>
</event>
<event>
10    2  0.2445576E-006  0.1099597E+03  0.7546771E-02  0.1262782E+00
         -2   -1    0    0    0  501 -0.00000000000E+00  0.00000000000E+00  0.14885568346E+03  0.14885568346E+03  0.00000000000E+00 0.  1.
          2   -1    0    0  502    0  0.00000000000E+00 -0.00000000000E+00 -0.28463623057E+03  0.28463623057E+03  0.00000000000E+00 0. -1.
         23    2    1    2    0    0 -0.28068388279E+02  0.32149894863E+02  0.39018090644E+02  0.10311405277E+03  0.85373569215E+02 0.  0.
         23    2    1    2    0    0  0.91066795584E+02 -0.29574022577E+02 -0.28391387501E+02  0.13503484061E+03  0.90887585652E+02 0.  0.
        -11    1    4    4    0    0  0.26581888943E+02 -0.56189339486E+02 -0.15936406006E+02  0.64170146704E+02  0.00000000000E+00 0.  1.
         11    1    4    4    0    0  0.64484906641E+02  0.26615316909E+02 -0.12454981495E+02  0.70864693908E+02  0.00000000000E+00 0. -1.
        -11    1    3    3    0    0  0.90780918437E+01 -0.25181202973E+02  0.15109950275E+02  0.30737848526E+02  0.00000000000E+00 0.  1.
         11    1    3    3    0    0 -0.37146480123E+02  0.57331097836E+02  0.23908140368E+02  0.72376204242E+02  0.00000000000E+00 0. -1.
         21    1    1    2  502  503 -0.63587375724E+02 -0.29822829966E+02 -0.15207203474E+03  0.16750719175E+03  0.00000000000E+00 0. -1.
         21    1    1    2  503  501  0.58896841797E+00  0.27246957679E+02  0.56647844900E+01  0.27835828888E+02  0.00000000000E+00 0. -1.
<scales pt_clust_5="13000.00000" pt_clust_6="13000.00000" pt_clust_7="13000.00000" pt_clust_8="13000.00000" pt_clust_9="69.54116" pt_clust_10="27.25332"></scales>
<clustering>
<clus scale="   27.253">  1 10  2 -1</clus>
<clus scale="   69.541">  2  9  1 -1</clus>
<clus scale="   85.374">  7  8 -1 -1</clus>
<clus scale="   90.888">  5  6 -1 -1</clus>
<clus scale="  105.448">  1  7  2 -1</clus>
<clus scale="   69.541">  2  5  1 -1</clus>
</clustering>
</event>
<event>
10    2  0.2445576E-006  0.1415737E+03  0.7546771E-02  0.1215003E+00
          1   -1    0    0  502    0  0.00000000000E+00  0.00000000000E+00  0.38166273159E+03  0.38166273159E+03  0.00000000000E+00 0. -1.
         -1   -1    0    0    0  501 -0.00000000000E+00 -0.00000000000E+00 -0.29136836899E+03  0.29136836899E+03  0.00000000000E+00 0.  1.
         23    2    1    2    0    0  0.12217966695E+03 -0.44522871188E+02 -0.17619014842E+03  0.22708583380E+03  0.60123626304E+02 0.  0.
         23    2    1    2    0    0 -0.13840485497E+03  0.18927944707E+00  0.87759418458E+02  0.18287479004E+03  0.81151300658E+02 0.  0.
        -11    1    4    4    0    0 -0.96741416887E+02  0.38156176750E+02  0.54150390432E+02  0.11724785861E+03  0.00000000000E+00 0. -1.
         11    1    4    4    0    0 -0.41663438082E+02 -0.37966897303E+02  0.33609028026E+02  0.65626931427E+02  0.00000000000E+00 0.  1.
        -11    1    3    3    0    0  0.95161604592E+02 -0.12123318474E+02 -0.91993701677E+02  0.13291180154E+03  0.00000000000E+00 0.  1.
         11    1    3    3    0    0  0.27018062357E+02 -0.32399552714E+02 -0.84196446742E+02  0.94174032267E+02  0.00000000000E+00 0. -1.
         21    1    1    2  502  503  0.32830409577E+02  0.21269161856E+02  0.21412782823E+03  0.21767163311E+03  0.00000000000E+00 0. -1.
         21    1    1    2  503  501 -0.16605221557E+02  0.23064429886E+02 -0.35402735670E+02  0.45398843618E+02  0.00000000000E+00 0. -1.
<scales pt_clust_5="13000.00000" pt_clust_6="13000.00000" pt_clust_7="13000.00000" pt_clust_8="13000.00000" pt_clust_9="39.10860" pt_clust_10="28.42009"></scales>
<clustering>
<clus scale="   28.420">  2 10  1 -1</clus>
<clus scale="   39.109">  1  9  2 -1</clus>
<clus scale="   60.124">  7  8 -1 -1</clus>
<clus scale="   81.151">  5  6 -1 -1</clus>
<clus scale="  130.662">  2  7  1 -1</clus>
<clus scale="   39.109">  1  5  2 -1</clus>
</clustering>
</event>
<event>
10    2  0.2445576E-006  0.1010742E+03  0.7546771E-02  0.1278508E+00
          2   -1    0    0  502    0  0.00000000000E+00  0.00000000000E+00  0.18066175068E+03  0.18066175068E+03  0.00000000000E+00 0. -1.
         -2   -1    0    0    0  501 -0.00000000000E+00 -0.00000000000E+00 -0.21233270998E+03  0.21233270998E+03  0.00000000000E+00 0.  1.
         23    2    1    2    0    0  0.26112671040E+02 -0.85289227004E+01 -0.38607350299E+02  0.10195931472E+03  0.90280453305E+02 0.  0.
         23    2    1    2    0    0 -0.25238461549E+02 -0.21306084087E+02  0.51611452702E+02  0.10991332850E+03  0.91248389421E+02 0.  0.
        -11    1    4    4    0    0 -0.38385270377E+02 -0.48291878965E+02  0.16777299784E+02  0.63929745376E+02  0.00000000000E+00 0.  1.
         11    1    4    4    0    0  0.13146808828E+02  0.26985794878E+02  0.34834152918E+02  0.45983583126E+02  0.00000000000E+00 0. -1.
        -13    1    3    3    0    0 -0.57044318321E+01  0.31574100483E+02  0.76273548492E+01  0.32979401236E+02  0.00000000000E+00 0. -1.
         13    1    3    3    0    0  0.31817102872E+02 -0.40103023184E+02 -0.46234705148E+02  0.68979913481E+02  0.00000000000E+00 0.  1.
         21    1    1    2  502  503 -0.77097839288E+02 -0.11975739504E+02  0.96340379141E+01  0.78614946709E+02  0.00000000000E+00 0. -1.
         21    1    1    2  503  501  0.76223629797E+02  0.41810746291E+02 -0.54309099616E+02  0.10250687073E+03  0.00000000000E+00 0.  1.
<scales pt_clust_5="13000.00000" pt_clust_6="13000.00000" pt_clust_7="13000.00000" pt_clust_8="13000.00000" pt_clust_9="78.02240" pt_clust_10="74.13903"></scales>
<clustering>
<clus scale="   78.022">  1  9  2 -1</clus>
<clus scale="   74.139">  2 10  1 -1</clus>
<clus scale="   90.280">  7  8 -1 -1</clus>
<clus scale="   91.248">  5  6 -1 -1</clus>
<clus scale="  100.201">  2  7  1 -1</clus>
<clus scale="   78.022">  1  5  2 -1</clus>
</clustering>
</event>
<event>
10    2  0.2445576E-006  0.1347822E+03  0.7546771E-02  0.1226020E+00
         -2   -1    0    0    0  501 -0.00000000000E+00  0.00000000000E+00  0.25869799923E+03  0.25869799923E+03  0.00000000000E+00 0.  1.
          2   -1    0    0  502    0  0.00000000000E+00 -0.00000000000E+00 -0.12630191932E+04  0.12630191932E+04  0.00000000000E+00 0. -1.
         23    2    1    2    0    0 -0.19298039494E+02 -0.89734327726E+02  0.12436424758E+03  0.18849609783E+03  0.10788720463E+03 0.  0.
         23    2    1    2    0    0  0.10341073702E+03  0.88018727802E+02 -0.58648016201E+03  0.60853613843E+03  0.88972885575E+02 0.  0.
        -11    1    4    4    0    0 -0.10039481527E+01  0.49590515002E+02 -0.22089238835E+03  0.22639274352E+03  0.00000000000E+00 0.  1.
         11    1    4    4    0    0  0.10441468517E+03  0.38428212800E+02 -0.36558777366E+03  0.38214339491E+03  0.00000000000E+00 0. -1.
        -13    1    3    3    0    0 -0.27924909694E+02 -0.10779722254E+03  0.12630676189E+03  0.16838479702E+03  0.00000000000E+00 0.  1.
         13    1    3    3    0    0  0.86268702005E+01  0.18062894812E+02 -0.19425143149E+01  0.20111300811E+02  0.00000000000E+00 0. -1.
         21    1    1    2  502  503 -0.10712140249E+03 -0.86669376182E+01 -0.62703536363E+03  0.63617879399E+03  0.00000000000E+00 0. -1.
         21    1    1    2  503  501  0.23008704971E+02  0.10382537542E+02  0.84830084052E+02  0.88506162218E+02  0.00000000000E+00 0. -1.
<scales pt_clust_5="13000.00000" pt_clust_6="13000.00000" pt_clust_7="13000.00000" pt_clust_8="13000.00000" pt_clust_9="106.83996" pt_clust_10="25.24277"></scales>
<clustering>
<clus scale="   25.243">  1 10  2 -1</clus>
<clus scale="   88.973">  5  6 -1 -1</clus>
<clus scale="  106.840">  2  9  1 -1</clus>
<clus scale="  107.887">  7  8 -1 -1</clus>
<clus scale="  120.178">  2  5  1 -1</clus>
<clus scale="  106.840">  2  5  1 -1</clus>
</clustering>
</event>
<event>
10    2  0.2445576E-006  0.1695461E+03  0.7546771E-02  0.1178696E+00
          2   -1    0    0  502    0  0.00000000000E+00  0.00000000000E+00  0.12042832479E+04  0.12042832479E+04  0.00000000000E+00 0. -1.
         -2   -1    0    0    0  501 -0.00000000000E+00 -0.00000000000E+00 -0.64168774256E+02  0.64168774256E+02  0.00000000000E+00 0.  1.
         23    2    1    2    0    0  0.86723763464E+02 -0.75828793516E+02  0.13666751058E+03  0.20042730620E+03  0.90675683325E+02 0.  0.
         23    2    1    2    0    0 -0.11986863508E+03  0.15939170052E+03  0.71719682516E+03  0.75023220044E+03  0.93289145586E+02 0.  0.
        -11    1    4    4    0    0 -0.83423077629E+02  0.68155984099E+02  0.50547072677E+03  0.51682231344E+03  0.00000000000E+00 0. -1.
         11    1    4    4    0    0 -0.36445557449E+02  0.91235716417E+02  0.21172609839E+03  0.23340988700E+03  0.00000000000E+00 0.  1.
        -13    1    3    3    0    0  0.58054530696E+02 -0.91915348990E+02  0.80229425326E+02  0.13511299198E+03  0.00000000000E+00 0.  1.
         13    1    3    3    0    0  0.28669232768E+02  0.16086555473E+02  0.56438085251E+02  0.65314314215E+02  0.00000000000E+00 0. -1.
         21    1    1    2  502  503  0.24690620337E+02 -0.63361716533E+02  0.28790895481E+03  0.29583086403E+03  0.00000000000E+00 0. -1.
         21    1    1    2  503  501  0.84542512772E+01 -0.20201190467E+02 -0.16588169382E+01  0.21961651453E+02  0.00000000000E+00 0. -1.
<scales pt_clust_5="13000.00000" pt_clust_6="13000.00000" pt_clust_7="13000.00000" pt_clust_8="13000.00000" pt_clust_9="69.65862" pt_clust_10="21.89891"></scales>
<clustering>
<clus scale="   21.899">  2 10  1 -1</clus>
<clus scale="   69.659">  1  9  2 -1</clus>
<clus scale="   90.676">  7  8 -1 -1</clus>
<clus scale="   93.289">  5  6 -1 -1</clus>
<clus scale="  168.122">  2  7  1 -1</clus>
<clus scale="   69.659">  1  5  2 -1</clus>
</clustering>
</event>
<event>
10    2  0.2445576E-006  0.1791887E+03  0.7546771E-02  0.1168679E+00
          1   -1    0    0  502    0  0.00000000000E+00  0.00000000000E+00  0.44047735611E+03  0.44047735611E+03  0.00000000000E+00 0. -1.
         -1   -1    0    0    0  501 -0.00000000000E+00 -0.00000000000E+00 -0.40164417035E+03  0.40164417035E+03  0.00000000000E+00 0.  1.
         23    2    1    2    0    0 -0.89581837431E+02  0.15205270938E+03 -0.26283970198E+03  0.32957784992E+03  0.91607413424E+02 0.  0.
         23    2    1    2    0    0  0.76565477683E+02 -0.70953996980E+02  0.96274768679E+02  0.16937573144E+03  0.92317740744E+02 0.  0.
        -11    1    3    3    0    0 -0.42384332308E+02  0.81991866039E+02 -0.60628316995E+02  0.11043047833E+03  0.00000000000E+00 0. -1.
         11    1    3    3    0    0 -0.47197505123E+02  0.70060843344E+02 -0.20221138498E+03  0.21914737159E+03  0.00000000000E+00 0.  1.
        -13    1    4    4    0    0  0.31785394176E+02 -0.51603823755E+01 -0.12544300414E+02  0.34558650177E+02  0.00000000000E+00 0.  1.
         13    1    4    4    0    0  0.44780083507E+02 -0.65793614604E+02  0.10881906909E+03  0.13481708126E+03  0.00000000000E+00 0. -1.
         21    1    1    2  502  503  0.23737191745E+02 -0.59018544554E+02  0.26825198565E+03  0.27569144107E+03  0.00000000000E+00 0. -1.
         21    1    1    2  503  501 -0.10720831997E+02 -0.22080167849E+02 -0.62853866592E+02  0.67476504033E+02  0.00000000000E+00 0. -1.
<scales pt_clust_5="13000.00000" pt_clust_6="13000.00000" pt_clust_7="13000.00000" pt_clust_8="13000.00000" pt_clust_9="63.79578" pt_clust_10="24.54527"></scales>
<clustering>
<clus scale="   24.545">  2 10  1 -1</clus>
<clus scale="   63.796">  1  9  2 -1</clus>
<clus scale="   91.607">  5  6 -1 -1</clus>
<clus scale="   92.318">  7  8 -1 -1</clus>
<clus scale="  178.824">  2  5  1 -1</clus>
<clus scale="   63.796">  1  5  2 -1</clus>
</clustering>
</event>
<event>
10    2  0.2445576E-006  0.1082621E+03  0.7546771E-02  0.1264860E+00
          2   -1    0    0  502    0  0.00000000000E+00  0.00000000000E+00  0.30957881725E+03  0.30957881725E+03  0.00000000000E+00 0. -1.
         -2   -1    0    0    0  501 -0.00000000000E+00 -0.00000000000E+00 -0.10101024724E+03  0.10101024724E+03  0.00000000000E+00 0.  1.
         23    2    1    2    0    0  0.26330447063E+02 -0.47926786842E+02  0.11456509739E+02  0.10957948182E+03  0.94266334824E+02 0.  0.
         23    2    1    2    0    0 -0.14640839887E+02  0.54801600169E+02  0.67565593844E+02  0.12729365650E+03  0.91765984655E+02 0.  0.
        -13    1    3    3    0    0 -0.25029338658E+02 -0.33117849432E+01 -0.22252591857E+02  0.33654324500E+02  0.00000000000E+00 0. -1.
         13    1    3    3    0    0  0.51359785721E+02 -0.44615001898E+02  0.33709101597E+02  0.75925157321E+02  0.00000000000E+00 0.  1.
        -13    1    4    4    0    0 -0.64551617023E+01  0.20004209608E+02  0.84972351741E+02  0.87533639677E+02  0.00000000000E+00 0. -1.
         13    1    4    4    0    0 -0.81856781845E+01  0.34797390561E+02 -0.17406757897E+02  0.39760016822E+02  0.00000000000E+00 0.  1.
         21    1    1    2  502  503  0.26149771096E+02 -0.28912065585E+01  0.13293821236E+03  0.13551655954E+03  0.00000000000E+00 0. -1.
         21    1    1    2  503  501 -0.37839378272E+02 -0.39836067690E+01 -0.33917459309E+01  0.38199366636E+02  0.00000000000E+00 0.  1.
<scales pt_clust_5="13000.00000" pt_clust_6="13000.00000" pt_clust_7="13000.00000" pt_clust_8="13000.00000" pt_clust_9="26.30912" pt_clust_10="35.50178"></scales>
<clustering>
<clus scale="   26.309">  1  9  2 -1</clus>
<clus scale="   35.502">  2 10  1 -1</clus>
<clus scale="   91.766">  7  8 -1 -1</clus>
<clus scale="   94.266">  5  6 -1 -1</clus>
<clus scale="  106.092">  1  7  2 -1</clus>
<clus scale="   26.309">  1  5  2 -1</clus>
</clustering>
</event>
<event>
10    2  0.2445576E-006  0.1934233E+03  0.7546771E-02  0.1155768E+00
         -4   -1    0    0    0  501 -0.00000000000E+00  0.00000000000E+00  0.73173905480E+03  0.73173905480E+03  0.00000000000E+00 0.  1.
          4   -1    0    0  503    0  0.00000000000E+00 -0.00000000000E+00 -0.16217899404E+03  0.16217899404E+03  0.00000000000E+00 0. -1.
         23    2    1    2    0    0  0.17555737048E+03 -0.48225100234E+02  0.38326447539E+03  0.43413612171E+03  0.91850222970E+02 0.  0.
         23    2    1    2    0    0 -0.16119706626E+03 -0.94642507687E+02  0.21399569751E+03  0.29756964597E+03  0.88384598306E+02 0.  0.
        -11    1    3    3    0    0  0.16366224955E+03 -0.10194979097E+02  0.31338998575E+03  0.35369839227E+03  0.00000000000E+00 0.  1.
         11    1    3    3    0    0  0.11895120928E+02 -0.38030121137E+02  0.69874489640E+02  0.80437729444E+02  0.00000000000E+00 0. -1.
        -11    1    4    4    0    0 -0.88197231530E+02 -0.10026649610E+03  0.13643070808E+03  0.19090694068E+03  0.00000000000E+00 0.  1.
         11    1    4    4    0    0 -0.72999834731E+02  0.56239884114E+01  0.77564989425E+02  0.10666270530E+03  0.00000000000E+00 0. -1.
         21    1    1    2  502  501 -0.31762570128E+02  0.11953657400E+03 -0.40874164594E+02  0.13026338977E+03  0.00000000000E+00 0. -1.
         21    1    1    2  503  502  0.17402265912E+02  0.23331033924E+02  0.13174052449E+02  0.31948891385E+02  0.00000000000E+00 0. -1.
<scales pt_clust_5="13000.00000" pt_clust_6="13000.00000" pt_clust_7="13000.00000" pt_clust_8="13000.00000" pt_clust_9="134.41813" pt_clust_10="29.10629"></scales>
<clustering>
<clus scale="   29.106">  2 10  1 -1</clus>
<clus scale="   88.385">  7  8 -1 -1</clus>
<clus scale="   91.850">  5  6 -1 -1</clus>
<clus scale="  134.418">  2  9  1 -1</clus>
<clus scale="  191.802">  2  7  1 -1</clus>
<clus scale="   29.106">  2  5  1 -1</clus>
</clustering>
</event>
<event>
10    2  0.2445576E-006  0.2153646E+03  0.7546771E-02  0.1137478E+00
         -1   -1    0    0    0  501 -0.00000000000E+00  0.00000000000E+00  0.30516897222E+03  0.30516897222E+03  0.00000000000E+00 0.  1.
          1   -1    0    0  502    0  0.00000000000E+00 -0.00000000000E+00 -0.10244168909E+04  0.10244168909E+04  0.00000000000E+00 0. -1.
         23    2    1    2    0    0 -0.37497403032E+02 -0.20081710221E+03 -0.33537793181E+03  0.40286847958E+03  0.89950491506E+02 0.  0.
         23    2    1    2    0    0 -0.53479933589E+01  0.19899554848E+03 -0.38109665134E+03  0.43949652345E+03  0.91075282642E+02 0.  0.
        -11    1    3    3    0    0 -0.59320315768E+02 -0.14983311084E+03 -0.20188829862E+03  0.25831714246E+03  0.00000000000E+00 0.  1.
         11    1    3    3    0    0  0.21822912735E+02 -0.50983991371E+02 -0.13348963318E+03  0.14455133712E+03  0.00000000000E+00 0. -1.
        -13    1    4    4    0    0 -0.36446509707E+02  0.37945475726E+02 -0.67389376615E+02  0.85495820239E+02  0.00000000000E+00 0.  1.
         13    1    4    4    0    0  0.31098516348E+02  0.16105007276E+03 -0.31370727473E+03  0.35400070321E+03  0.00000000000E+00 0. -1.
         21    1    1    2  502  503  0.24657604149E+02 -0.39810486904E+02 -0.24058930731E+03  0.24510423722E+03  0.00000000000E+00 0. -1.
         21    1    1    2  503  501  0.18187792242E+02  0.41632040637E+02  0.23781597183E+03  0.24211662283E+03  0.00000000000E+00 0.  1.
<scales pt_clust_5="13000.00000" pt_clust_6="13000.00000" pt_clust_7="13000.00000" pt_clust_8="13000.00000" pt_clust_9="45.95253" pt_clust_10="45.43152"></scales>
<clustering>
<clus scale="   45.432">  1 10  2 -1</clus>
<clus scale="   45.953">  2  9  1 -1</clus>
<clus scale="   89.950">  5  6 -1 -1</clus>
<clus scale="   91.075">  7  8 -1 -1</clus>
<clus scale="  214.891">  1  5  2 -1</clus>
<clus scale="   45.953">  2  5  1 -1</clus>
</clustering>
</event>
<event>
10    2  0.2445576E-006  0.1139883E+03  0.7546771E-02  0.1254146E+00
         -1   -1    0    0    0  501 -0.00000000000E+00  0.00000000000E+00  0.14975127322E+03  0.14975127322E+03  0.00000000000E+00 0.  1.
          1   -1    0    0  502    0  0.00000000000E+00 -0.00000000000E+00 -0.26922113758E+03  0.26922113758E+03  0.00000000000E+00 0. -1.
         23    2    1    2    0    0 -0.17895878438E+02 -0.53683802817E+02  0.13795291798E+02  0.10848992753E+03  0.91528908823E+02 0.  0.
         23    2    1    2    0    0  0.46039960106E+02  0.77411229389E+02  0.78153568014E+01  0.12708383480E+03  0.89314304022E+02 0.  0.
        -11    1    4    4    0    0  0.68128082851E+02  0.79422760758E+02  0.55018030765E+01  0.10478397032E+03  0.00000000000E+00 0.  1.
         11    1    4    4    0    0 -0.22088122744E+02 -0.20115313690E+01  0.23135537249E+01  0.22299864476E+02  0.00000000000E+00 0. -1.
        -13    1    3    3    0    0  0.86544890836E+01 -0.73605208544E+02  0.13280780363E+02  0.75292802000E+02  0.00000000000E+00 0.  1.
         13    1    3    3    0    0 -0.26550367521E+02  0.19921405726E+02  0.51451143448E+00  0.33197125533E+02  0.00000000000E+00 0. -1.
         21    1    1    2  502  503 -0.36284726373E+02 -0.47625867247E+02 -0.14588965878E+03  0.15769780322E+03  0.00000000000E+00 0. -1.
         21    1    1    2  503  501  0.81406447038E+01  0.23898440676E+02  0.48091458250E+01  0.25700845249E+02  0.00000000000E+00 0. -1.
<scales pt_clust_5="13000.00000" pt_clust_6="13000.00000" pt_clust_7="13000.00000" pt_clust_8="13000.00000" pt_clust_9="58.82323" pt_clust_10="25.24689"></scales>
<clustering>
<clus scale="   25.247">  1 10  2 -1</clus>
<clus scale="   58.823">  2  9  1 -1</clus>
<clus scale="   89.314">  5  6 -1 -1</clus>
<clus scale="   91.529">  7  8 -1 -1</clus>
<clus scale="  112.218">  2  5  1 -1</clus>
<clus scale="   58.823">  2  5  1 -1</clus>
</clustering>
</event>
<event>
10    2  0.2445576E-006  0.9726235E+02  0.7546771E-02  0.1287356E+00
         -2   -1    0    0    0  501 -0.00000000000E+00  0.00000000000E+00  0.38225107239E+03  0.38225107239E+03  0.00000000000E+00 0.  1.
          2   -1    0    0  502    0  0.00000000000E+00 -0.00000000000E+00 -0.43382837271E+03  0.43382837271E+03  0.00000000000E+00 0. -1.
         23    2    1    2    0    0  0.12485777809E+02  0.88543681014E+00  0.23087518013E+02  0.93576599834E+02  0.89815744181E+02 0.  0.
         23    2    1    2    0    0  0.16979882858E+02 -0.68703254938E+02 -0.36205331298E+03  0.38022950344E+03  0.92105484050E+02 0.  0.
        -13    1    4    4    0    0  0.43428202774E+02 -0.71789405786E+02 -0.31680874297E+03  0.32773084567E+03  0.00000000000E+00 0. -1.
         13    1    4    4    0    0 -0.26448319916E+02  0.30861508481E+01 -0.45244570002E+02  0.52498657774E+02  0.00000000000E+00 0.  1.
        -13    1    3    3    0    0 -0.36558374984E+02  0.13735101106E+02  0.16707728369E+02  0.42477240625E+02  0.00000000000E+00 0.  1.
         13    1    3    3    0    0  0.49044152793E+02 -0.12849664296E+02  0.63797896439E+01  0.51099359209E+02  0.00000000000E+00 0. -1.
         21    1    1    2  502  503 -0.79815082666E+01  0.32941805892E+02 -0.15041062506E+02  0.37082349048E+02  0.00000000000E+00 0.  1.
         21    1    1    2  503  501 -0.21484152401E+02  0.34876012236E+02  0.30242955715E+03  0.30519099277E+03  0.00000000000E+00 0.  1.
<scales pt_clust_5="13000.00000" pt_clust_6="13000.00000" pt_clust_7="13000.00000" pt_clust_8="13000.00000" pt_clust_9="33.89494" pt_clust_10="41.07140"></scales>
<clustering>
<clus scale="   33.895">  2  9  1 -1</clus>
<clus scale="   41.071">  1 10  2 -1</clus>
<clus scale="   89.816">  7  8 -1 -1</clus>
<clus scale="   92.105">  5  6 -1 -1</clus>
<clus scale="   95.097">  1  7  2 -1</clus>
<clus scale="   33.895">  2  5  1 -1</clus>
</clustering>
</event>
<event>
10    2  0.2445576E-006  0.1154836E+03  0.7546771E-02  0.1256123E+00
          2   -1    0    0  502    0  0.00000000000E+00  0.00000000000E+00  0.52793840389E+03  0.52793840389E+03  0.00000000000E+00 0. -1.
         -2   -1    0    0    0  501 -0.00000000000E+00 -0.00000000000E+00 -0.17770807877E+03  0.17770807877E+03  0.00000000000E+00 0.  1.
         23    2    1    2    0    0  0.84727732521E+02 -0.56543863702E+02 -0.11220474111E+03  0.16960565018E+03  0.76158883031E+02 0.  0.
         23    2    1    2    0    0 -0.67501590565E+02  0.53458901284E+02  0.37446108869E+03  0.39497309748E+03  0.91478532649E+02 0.  0.
        -11    1    3    3    0    0  0.68697143983E+02 -0.43257240065E+02 -0.12204278619E+03  0.14657737913E+03  0.00000000000E+00 0.  1.
         11    1    3    3    0    0  0.16030588538E+02 -0.13286623637E+02  0.98380450853E+01  0.23028271052E+02  0.00000000000E+00 0. -1.
        -13    1    4    4    0    0 -0.18237357210E+02 -0.10134916713E+02  0.12809057624E+02  0.24482436398E+02  0.00000000000E+00 0.  1.
         13    1    4    4    0    0 -0.49264233355E+02  0.63593817996E+02  0.36165203107E+03  0.37049066109E+03  0.00000000000E+00 0. -1.
         21    1    1    2  502  503  0.38789132952E+02  0.65485864392E+01  0.73092501988E+02  0.83005991749E+02  0.00000000000E+00 0. -1.
         21    1    1    2  503  501 -0.56015274907E+02 -0.34636240209E+01  0.14881475546E+02  0.58061743246E+02  0.00000000000E+00 0. -1.
<scales pt_clust_5="13000.00000" pt_clust_6="13000.00000" pt_clust_7="13000.00000" pt_clust_8="13000.00000" pt_clust_9="39.33803" pt_clust_10="52.95200"></scales>
<clustering>
<clus scale="   39.338">  1  9  2 -1</clus>
<clus scale="   52.952">  2 10  1 -1</clus>
<clus scale="   76.159">  5  6 -1 -1</clus>
<clus scale="   91.479">  7  8 -1 -1</clus>
<clus scale="  103.770">  2  5  1 -1</clus>
<clus scale="   39.338">  1  5  2 -1</clus>
</clustering>
</event>
<event>
10    2  0.2445576E-006  0.1289129E+03  0.7546771E-02  0.1229251E+00
         -1   -1    0    0    0  501 -0.00000000000E+00  0.00000000000E+00  0.79189281956E+02  0.79189281956E+02  0.00000000000E+00 0.  1.
          1   -1    0    0  502    0  0.00000000000E+00 -0.00000000000E+00 -0.87389289540E+03  0.87389289540E+03  0.00000000000E+00 0. -1.
         23    2    1    2    0    0  0.10043509065E+02 -0.37478001069E+02 -0.28015021649E+02  0.10415784536E+03  0.92512391997E+02 0.  0.
         23    2    1    2    0    0  0.35737681050E+02  0.17264963189E+03 -0.41351080970E+03  0.45882043792E+03  0.91869076828E+02 0.  0.
        -11    1    4    4    0    0  0.22983558541E+02  0.12267220408E+03 -0.17592103157E+03  0.21569636753E+03  0.00000000000E+00 0.  1.
         11    1    4    4    0    0  0.12754122509E+02  0.49977427807E+02 -0.23758977813E+03  0.24312407039E+03  0.00000000000E+00 0. -1.
        -11    1    3    3    0    0  0.43746109537E+02 -0.12095463072E+01 -0.32403615399E+02  0.54453460797E+02  0.00000000000E+00 0. -1.
         11    1    3    3    0    0 -0.33702600472E+02 -0.36268454761E+02  0.43885937492E+01  0.49704384560E+02  0.00000000000E+00 0.  1.
         21    1    1    2  502  503 -0.23922550878E+02 -0.84860465278E+02 -0.30367478706E+03  0.31621505863E+03  0.00000000000E+00 0. -1.
         21    1    1    2  503  501 -0.21858639237E+02 -0.50311165540E+02 -0.49502995045E+02  0.73888835460E+02  0.00000000000E+00 0. -1.
<scales pt_clust_5="13000.00000" pt_clust_6="13000.00000" pt_clust_7="13000.00000" pt_clust_8="13000.00000" pt_clust_9="93.25752" pt_clust_10="54.85448"></scales>
<clustering>
<clus scale="   54.854">  1 10  2 -1</clus>
<clus scale="   91.869">  5  6 -1 -1</clus>
<clus scale="   92.512">  7  8 -1 -1</clus>
<clus scale="   93.258">  2  9  1 -1</clus>
<clus scale="  128.452">  2  5  1 -1</clus>
<clus scale="   93.258">  2  5  1 -1</clus>
</clustering>
</event>
<event>
10    2  0.2445576E-006  0.1032449E+03  0.7546771E-02  0.1273645E+00
          3   -1    0    0  502    0  0.00000000000E+00  0.00000000000E+00  0.14589756550E+03  0.14589756550E+03  0.00000000000E+00 0. -1.
         -3   -1    0    0    0  501 -0.00000000000E+00 -0.00000000000E+00 -0.19191949510E+03  0.19191949510E+03  0.00000000000E+00 0.  1.
         23    2    1    2    0    0  0.40869175097E+02 -0.57223943949E+02 -0.12037445872E+03  0.16648983899E+03  0.91016410274E+02 0.  0.
         23    2    1    2    0    0 -0.39615158826E+01  0.30444625999E+02  0.60564896640E+02  0.11360645459E+03  0.91081013166E+02 0.  0.
        -11    1    3    3    0    0  0.48299982858E+02 -0.30508557398E+02 -0.17211153277E+02  0.59664765278E+02  0.00000000000E+00 0. -1.
         11    1    3    3    0    0 -0.74308077607E+01 -0.26715386551E+02 -0.10316330545E+03  0.10682507371E+03  0.00000000000E+00 0.  1.
        -11    1    4    4    0    0  0.29048564600E+02  0.25842509555E+02  0.69023454789E+02  0.79220525853E+02  0.00000000000E+00 0. -1.
         11    1    4    4    0    0 -0.33010080483E+02  0.46021164441E+01 -0.84585581484E+01  0.34385928738E+02  0.00000000000E+00 0.  1.
         21    1    1    2  502  503 -0.22330758005E+02  0.11806029601E+02  0.23659340108E+02  0.34609384022E+02  0.00000000000E+00 0. -1.
         21    1    1    2  503  501 -0.14576901209E+02  0.14973288348E+02 -0.98717076172E+01  0.23111382999E+02  0.00000000000E+00 0.  1.
<scales pt_clust_5="13000.00000" pt_clust_6="13000.00000" pt_clust_7="13000.00000" pt_clust_8="13000.00000" pt_clust_9="25.88093" pt_clust_10="20.89702"></scales>
<clustering>
<clus scale="   20.897">  2 10  1 -1</clus>
<clus scale="   25.881">  1  9  2 -1</clus>
<clus scale="   91.016">  5  6 -1 -1</clus>
<clus scale="   91.081">  7  8 -1 -1</clus>
<clus scale="  103.188">  2  5  1 -1</clus>
<clus scale="   25.881">  1  5  2 -1</clus>
</clustering>
</event>
<event>
10    2  0.2445576E-006  0.9733767E+02  0.7546771E-02  0.1287796E+00
         -3   -1    0    0    0  501 -0.00000000000E+00  0.00000000000E+00  0.11686155235E+03  0.11686155235E+03  0.00000000000E+00 0.  1.
          3   -1    0    0  502    0  0.00000000000E+00 -0.00000000000E+00 -0.24763535173E+03  0.24763535173E+03  0.00000000000E+00 0. -1.
         23    2    1    2    0    0  0.60816386187E+02 -0.16575144928E+02 -0.11236891143E+02  0.10926365527E+03  0.88537621281E+02 0.  0.
         23    2    1    2    0    0  0.74032832335E+01  0.31632669238E+02 -0.83233000241E+02  0.12822974220E+03  0.91976627955E+02 0.  0.
        -11    1    3    3    0    0  0.82606515971E+02 -0.12110445929E+02  0.17484696523E+01  0.83507823152E+02  0.00000000000E+00 0. -1.
         11    1    3    3    0    0 -0.21790129783E+02 -0.44646989989E+01 -0.12985360796E+02  0.25755832119E+02  0.00000000000E+00 0.  1.
        -11    1    4    4    0    0  0.24431471427E+02 -0.16210862200E+02 -0.69787225379E+02  0.75696404640E+02  0.00000000000E+00 0. -1.
         11    1    4    4    0    0 -0.17028188193E+02  0.47843531438E+02 -0.13445774862E+02  0.52533337561E+02  0.00000000000E+00 0.  1.
         21    1    1    2  502  503  0.21570189927E+02  0.15227122276E+02 -0.12951650309E+02  0.29408903278E+02  0.00000000000E+00 0. -1.
         21    1    1    2  503  501 -0.89789859348E+02 -0.30284646585E+02 -0.23352257688E+02  0.97594603332E+02  0.00000000000E+00 0.  1.
<scales pt_clust_5="13000.00000" pt_clust_6="13000.00000" pt_clust_7="13000.00000" pt_clust_8="13000.00000" pt_clust_9="26.40338" pt_clust_10="88.02492"></scales>
<clustering>
<clus scale="   26.403">  2  9  1 -1</clus>
<clus scale="   88.025">  1 10  2 -1</clus>
<clus scale="   88.538">  5  6 -1 -1</clus>
<clus scale="   91.977">  7  8 -1 -1</clus>
<clus scale="   94.095">  1  5  2 -1</clus>
<clus scale="   26.403">  2  5  1 -1</clus>
</clustering>
</event>
<event>
10    2  0.2445576E-006  0.1681821E+03  0.7546771E-02  0.1180129E+00
         -1   -1    0    0    0  501 -0.00000000000E+00  0.00000000000E+00  0.10435987937E+03  0.10435987937E+03  0.00000000000E+00 0.  1.
          1   -1    0    0  502    0  0.00000000000E+00 -0.00000000000E+00 -0.66538174332E+03  0.66538174332E+03  0.00000000000E+00 0. -1.
         23    2    1    2    0    0  0.38573732305E+02 -0.99104913989E+02 -0.21552970731E+02  0.14191696188E+03  0.91466806669E+02 0.  0.
         23    2    1    2    0    0 -0.37768931649E+02  0.11905663048E+03 -0.32371227078E+03  0.35948061288E+03  0.93998421905E+02 0.  0.
        -13    1    4    4    0    0 -0.58089973609E+02  0.11272182726E+03 -0.30781887445E+03  0.33291607777E+03  0.00000000000E+00 0.  1.
         13    1    4    4    0    0  0.20321041960E+02  0.63348032213E+01 -0.15893396333E+02  0.26564535102E+02  0.00000000000E+00 0. -1.
        -13    1    3    3    0    0  0.31232081968E+02 -0.55157289029E+02 -0.56794434994E+02  0.85108033248E+02  0.00000000000E+00 0. -1.
         13    1    3    3    0    0  0.73416503373E+01 -0.43947624960E+02  0.35241464263E+02  0.56808928636E+02  0.00000000000E+00 0.  1.
         21    1    1    2  502  503 -0.31596545626E+02  0.41083745987E+02 -0.18722490599E+03  0.19426626393E+03  0.00000000000E+00 0.  1.
         21    1    1    2  503  501  0.30791744970E+02 -0.61035462478E+02 -0.28531716453E+02  0.74077783997E+02  0.00000000000E+00 0.  1.
<scales pt_clust_5="13000.00000" pt_clust_6="13000.00000" pt_clust_7="13000.00000" pt_clust_8="13000.00000" pt_clust_9="51.82872" pt_clust_10="62.86824"></scales>
<clustering>
<clus scale="   51.829">  2  9  1 -1</clus>
<clus scale="   62.868">  1 10  2 -1</clus>
<clus scale="   91.467">  7  8 -1 -1</clus>
<clus scale="   93.998">  5  6 -1 -1</clus>
<clus scale="  166.780">  1  7  2 -1</clus>
<clus scale="   51.829">  2  5  1 -1</clus>
</clustering>
</event>
<event>
10    2  0.2445576E-006  0.1191895E+03  0.7546771E-02  0.1245376E+00
         -1   -1    0    0    0  501 -0.00000000000E+00  0.00000000000E+00  0.13626248360E+03  0.13626248360E+03  0.00000000000E+00 0.  1.
          1   -1    0    0  502    0  0.00000000000E+00 -0.00000000000E+00 -0.34373427999E+03  0.34373427999E+03  0.00000000000E+00 0. -1.
         23    2    1    2    0    0  0.86336528627E+02 -0.98213307088E+00 -0.79574919932E+01  0.12648620616E+03  0.92089510307E+02 0.  0.
         23    2    1    2    0    0 -0.68022616568E+02  0.34795452260E+02 -0.15443469455E+03  0.19670752133E+03  0.94899811414E+02 0.  0.
        -11    1    4    4    0    0  0.11966772752E+02  0.36375388328E+02 -0.73652813063E+02  0.83012706245E+02  0.00000000000E+00 0. -1.
         11    1    4    4    0    0 -0.79989389320E+02 -0.15799360679E+01 -0.80781881484E+02  0.11369481509E+03  0.00000000000E+00 0.  1.
        -13    1    3    3    0    0  0.56289725172E+02 -0.42064692456E+02  0.12963490030E+02  0.71456445371E+02  0.00000000000E+00 0.  1.
         13    1    3    3    0    0  0.30046803455E+02  0.41082559385E+02 -0.20920982023E+02  0.55029760787E+02  0.00000000000E+00 0. -1.
         21    1    1    2  502  503  0.45469016596E+01 -0.24890083085E+02 -0.96534670061E+02  0.99795456182E+02  0.00000000000E+00 0. -1.
         21    1    1    2  503  501 -0.22860813718E+02 -0.89232361041E+01  0.51455060214E+02  0.57007579917E+02  0.00000000000E+00 0.  1.
<scales pt_clust_5="13000.00000" pt_clust_6="13000.00000" pt_clust_7="13000.00000" pt_clust_8="13000.00000" pt_clust_9="25.39931" pt_clust_10="24.54060"></scales>
<clustering>
<clus scale="   24.541">  1 10  2 -1</clus>
<clus scale="   25.399">  2  9  1 -1</clus>
<clus scale="   92.090">  7  8 -1 -1</clus>
<clus scale="   94.900">  5  6 -1 -1</clus>
<clus scale="  116.964">  1  7  2 -1</clus>
<clus scale="   25.399">  2  5  1 -1</clus>
</clustering>
</event>
<event>
10    2  0.2445576E-006  0.1545613E+03  0.7546771E-02  0.1195159E+00
          1   -1    0    0  502    0  0.00000000000E+00  0.00000000000E+00  0.39801363487E+03  0.39801363487E+03  0.00000000000E+00 0. -1.
         -1   -1    0    0    0  501 -0.00000000000E+00 -0.00000000000E+00 -0.19203476084E+03  0.19203476084E+03  0.00000000000E+00 0.  1.
         23    2    1    2    0    0  0.11300799683E+03  0.10870870969E+03 -0.59155166676E+02  0.19103703377E+03  0.91692004103E+02 0.  0.
         23    2    1    2    0    0 -0.62692431572E+02 -0.10629375145E+03  0.24264062593E+03  0.28691807159E+03  0.90657618989E+02 0.  0.
        -11    1    3    3    0    0  0.11752321287E+02  0.64580762131E+02  0.20810077204E+00  0.65641718434E+02  0.00000000000E+00 0.  1.
         11    1    3    3    0    0  0.10125567554E+03  0.44127947557E+02 -0.59363267448E+02  0.12539531533E+03  0.00000000000E+00 0. -1.
        -11    1    4    4    0    0 -0.24456926695E+02  0.69040633263E+01  0.14182025956E+02  0.29102185726E+02  0.00000000000E+00 0.  1.
         11    1    4    4    0    0 -0.38235504877E+02 -0.11319781477E+03  0.22845859998E+03  0.25781588587E+03  0.00000000000E+00 0. -1.
         21    1    1    2  502  503 -0.16811076140E+02  0.19838938923E+02  0.54699823131E+02  0.60566215245E+02  0.00000000000E+00 0. -1.
         21    1    1    2  503  501 -0.33504489119E+02 -0.22253897163E+02 -0.32206408352E+02  0.51527075106E+02  0.00000000000E+00 0.  1.
<scales pt_clust_5="13000.00000" pt_clust_6="13000.00000" pt_clust_7="13000.00000" pt_clust_8="13000.00000" pt_clust_9="26.00376" pt_clust_10="40.31429"></scales>
<clustering>
<clus scale="   26.004">  1  9  2 -1</clus>
<clus scale="   40.314">  2 10  1 -1</clus>
<clus scale="   90.658">  7  8 -1 -1</clus>
<clus scale="   91.692">  5  6 -1 -1</clus>
<clus scale="  153.950">  1  7  2 -1</clus>
<clus scale="   26.004">  1  5  2 -1</clus>
</clustering>
</event>
<event>
10    2  0.2445576E-006  0.1166933E+03  0.7546771E-02  0.1254122E+00
         -1   -1    0    0    0  501 -0.00000000000E+00  0.00000000000E+00  0.51394889156E+03  0.51394889156E+03  0.00000000000E+00 0.  1.
          1   -1    0    0  502    0  0.00000000000E+00 -0.00000000000E+00 -0.67199085978E+02  0.67199085978E+02  0.00000000000E+00 0. -1.
         23    2    1    2    0    0 -0.46479779915E+02  0.37315660848E+02  0.21313737024E+03  0.23975667905E+03  0.92211160222E+02 0.  0.
         23    2    1    2    0    0  0.24524268565E+02 -0.30995238363E+02  0.15476318068E+03  0.19152990654E+03  0.10568783495E+03 0.  0.
        -11    1    3    3    0    0 -0.49366464726E+02  0.58603700722E+02  0.20093637867E+03  0.21505085411E+03  0.00000000000E+00 0.  1.
         11    1    3    3    0    0  0.28866848102E+01 -0.21288039874E+02  0.12200991571E+02  0.24705824944E+02  0.00000000000E+00 0. -1.
        -11    1    4    4    0    0  0.44390070500E+02  0.21751924771E+02  0.10615711436E+03  0.11710233781E+03  0.00000000000E+00 0.  1.
         11    1    4    4    0    0 -0.19865801934E+02 -0.52747163133E+02  0.48606066314E+02  0.74427568734E+02  0.00000000000E+00 0. -1.
         21    1    1    2  502  503 -0.72274614005E+01 -0.20600913088E+02 -0.29526038321E+02  0.36720849082E+02  0.00000000000E+00 0. -1.
         21    1    1    2  503  501  0.29182972751E+02  0.14280490604E+02  0.10837529299E+03  0.11314054287E+03  0.00000000000E+00 0.  1.
<scales pt_clust_5="13000.00000" pt_clust_6="13000.00000" pt_clust_7="13000.00000" pt_clust_8="13000.00000" pt_clust_9="21.83194" pt_clust_10="31.42089"></scales>
<clustering>
<clus scale="   21.832">  2  9  1 -1</clus>
<clus scale="   31.421">  1 10  2 -1</clus>
<clus scale="   92.211">  5  6 -1 -1</clus>
<clus scale="  104.644">  1  5  2 -1</clus>
<clus scale="  105.688">  7  8 -1 -1</clus>
<clus scale="   21.832">  2  5  1 -1</clus>
</clustering>
</event>
<event>
10    2  0.2445576E-006  0.3852066E+03  0.7546771E-02  0.1049333E+00
          1   -1    0    0  502    0  0.00000000000E+00  0.00000000000E+00  0.69622170503E+03  0.69622170503E+03  0.00000000000E+00 0. -1.
         -1   -1    0    0    0  501 -0.00000000000E+00 -0.00000000000E+00 -0.56044324227E+03  0.56044324227E+03  0.00000000000E+00 0.  1.
         23    2    1    2    0    0  0.31021461414E+03  0.70549760795E+02 -0.16996045172E+03  0.37403490708E+03  0.99021113871E+02 0.  0.
         23    2    1    2    0    0 -0.40482690257E+03 -0.23966013250E+02  0.48941130340E+03  0.64125148396E+03  0.84975590317E+02 0.  0.
        -11    1    3    3    0    0  0.21182680317E+03  0.18123871913E+01 -0.12437847076E+03  0.24564992016E+03  0.00000000000E+00 0.  1.
         11    1    3    3    0    0  0.98387810977E+02  0.68737373603E+02 -0.45581980959E+02  0.12838498692E+03  0.00000000000E+00 0. -1.
        -13    1    4    4    0    0 -0.27168347254E+03  0.59247384471E+01  0.37539048208E+03  0.46342747633E+03  0.00000000000E+00 0. -1.
         13    1    4    4    0    0 -0.13314343002E+03 -0.29890751697E+02  0.11402082132E+03  0.17782400763E+03  0.00000000000E+00 0.  1.
         21    1    1    2  502  503  0.20730999671E+02  0.15658766994E+02  0.76216258773E+01  0.27075090252E+02  0.00000000000E+00 0.  1.
         21    1    1    2  503  501  0.73881288753E+02 -0.62242514539E+02 -0.19129401480E+03  0.21430346600E+03  0.00000000000E+00 0.  1.
<scales pt_clust_5="13000.00000" pt_clust_6="13000.00000" pt_clust_7="13000.00000" pt_clust_8="13000.00000" pt_clust_9="25.98021" pt_clust_10="96.70392"></scales>
<clustering>
<clus scale="   25.980">  1  9  2 -1</clus>
<clus scale="   84.976">  7  8 -1 -1</clus>
<clus scale="   96.704">  2 10  1 -1</clus>
<clus scale="   99.021">  5  6 -1 -1</clus>
<clus scale="  381.837">  1  7  2 -1</clus>
<clus scale="   25.980">  1  5  2 -1</clus>
</clustering>
</event>
<event>
10    2  0.2445576E-006  0.4540825E+03  0.7546771E-02  0.1079627E+00
          1   -1    0    0  502    0  0.00000000000E+00  0.00000000000E+00  0.57866782787E+03  0.57866782787E+03  0.00000000000E+00 0. -1.
         -1   -1    0    0    0  501 -0.00000000000E+00 -0.00000000000E+00 -0.93222423803E+03  0.93222423803E+03  0.00000000000E+00 0.  1.
         23    2    1    2    0    0  0.17833571224E+02 -0.36397741988E+02 -0.78104006068E+02  0.12545511192E+03  0.89419894083E+02 0.  0.
         23    2    1    2    0    0 -0.43516863755E+03 -0.12251636887E+03 -0.25865596902E+03  0.52839906172E+03  0.88998058227E+02 0.  0.
        -13    1    4    4    0    0 -0.60196717587E+02 -0.41640093155E+02 -0.68541813662E+02  0.10027722766E+03  0.00000000000E+00 0. -1.
         13    1    4    4    0    0 -0.37497191997E+03 -0.80876275710E+02 -0.19011415535E+03  0.42812183406E+03  0.00000000000E+00 0.  1.
        -13    1    3    3    0    0  0.41196202635E+02 -0.46562996340E+02 -0.25870261668E+02  0.67338771733E+02  0.00000000000E+00 0.  1.
         13    1    3    3    0    0 -0.23362631411E+02  0.10165254352E+02 -0.52233744399E+02  0.58116340184E+02  0.00000000000E+00 0. -1.
         21    1    1    2  502  503  0.28323303008E+02 -0.56419000737E+02  0.30289617725E+03  0.30940492454E+03  0.00000000000E+00 0. -1.
         21    1    1    2  503  501  0.38901176332E+03  0.21533311159E+03 -0.31969261233E+03  0.54763296772E+03  0.00000000000E+00 0. -1.
<scales pt_clust_5="13000.00000" pt_clust_6="13000.00000" pt_clust_7="13000.00000" pt_clust_8="13000.00000" pt_clust_9="63.12934" pt_clust_10="445.27551"></scales>
<clustering>
<clus scale="   63.129">  1  9  2 -1</clus>
<clus scale="   88.998">  5  6 -1 -1</clus>
<clus scale="   89.420">  7  8 -1 -1</clus>
<clus scale="  100.565">  2  7  1 -1</clus>
<clus scale="  445.276">  2 10  1 -1</clus>
<clus scale="   63.129">  1  5  2 -1</clus>
</clustering>
</event>
<event>
10    2  0.2445576E-006  0.1265738E+03  0.7546771E-02  0.1233474E+00
         -1   -1    0    0    0  501 -0.00000000000E+00  0.00000000000E+00  0.63682203301E+02  0.63682203301E+02  0.00000000000E+00 0.  1.
          1   -1    0    0  502    0  0.00000000000E+00 -0.00000000000E+00 -0.60980540209E+03  0.60980540209E+03  0.00000000000E+00 0. -1.
         23    2    1    2    0    0  0.71397026313E+02 -0.41563312890E+02 -0.96756958216E+02  0.15531412914E+03  0.89081566009E+02 0.  0.
         23    2    1    2    0    0 -0.95727921586E+02 -0.66823167688E+01 -0.32533857445E+03  0.34991864538E+03  0.85961514824E+02 0.  0.
        -11    1    3    3    0    0 -0.11456235292E+02 -0.27173563346E+02 -0.34292042840E+01  0.29688504745E+02  0.00000000000E+00 0. -1.
         11    1    3    3    0    0  0.82853261606E+02 -0.14389749544E+02 -0.93327753932E+02  0.12562562440E+03  0.00000000000E+00 0.  1.
        -13    1    4    4    0    0 -0.22050218258E+02 -0.41765183358E+02 -0.11904605992E+03  0.12807227275E+03  0.00000000000E+00 0.  1.
         13    1    4    4    0    0 -0.73677703328E+02  0.35082866589E+02 -0.20629251453E+03  0.22184637263E+03  0.00000000000E+00 0. -1.
         21    1    1    2  502  503 -0.24723220707E+00  0.22793434793E+02 -0.13033633465E+03  0.13231463231E+03  0.00000000000E+00 0.  1.
         21    1    1    2  503  501  0.24578127480E+02  0.25452194866E+02  0.63086685273E+01  0.35940198560E+02  0.00000000000E+00 0.  1.
<scales pt_clust_5="13000.00000" pt_clust_6="13000.00000" pt_clust_7="13000.00000" pt_clust_8="13000.00000" pt_clust_9="22.79478" pt_clust_10="35.88799"></scales>
<clustering>
<clus scale="   22.795">  2  9  1 -1</clus>
<clus scale="   35.888">  1 10  2 -1</clus>
<clus scale="   85.962">  7  8 -1 -1</clus>
<clus scale="   89.082">  5  6 -1 -1</clus>
<clus scale="  124.398">  2  7  1 -1</clus>
<clus scale="   22.795">  2  5  1 -1</clus>
</clustering>
</event>
<event>
10    2  0.2445576E-006  0.1682935E+03  0.7546771E-02  0.1199973E+00
          2   -1    0    0  502    0  0.00000000000E+00  0.00000000000E+00  0.28275655411E+03  0.28275655411E+03  0.00000000000E+00 0. -1.
         -2   -1    0    0    0  501 -0.00000000000E+00 -0.00000000000E+00 -0.33956794317E+03  0.33956794317E+03  0.00000000000E+00 0.  1.
         23    2    1    2    0    0  0.57993869095E+02 -0.19019743210E+02 -0.75528599166E+02  0.13228074565E+03  0.89825313217E+02 0.  0.
         23    2    1    2    0    0  0.32885472520E+02  0.14463834722E+03  0.14383279770E+03  0.22598413304E+03  0.91538237400E+02 0.  0.
        -11    1    4    4    0    0  0.58205893944E+02  0.51573681780E+02  0.60679376024E+02  0.98639532728E+02  0.00000000000E+00 0.  1.
         11    1    4    4    0    0 -0.25320421424E+02  0.93064665438E+02  0.83153421672E+02  0.12734460032E+03  0.00000000000E+00 0. -1.
        -13    1    3    3    0    0  0.15490849739E+01 -0.45140481447E+02 -0.22083989955E+02  0.50276886756E+02  0.00000000000E+00 0.  1.
         13    1    3    3    0    0  0.56444784121E+02  0.26120738237E+02 -0.53444609212E+02  0.82003858899E+02  0.00000000000E+00 0. -1.
         21    1    1    2  502  503 -0.20823110682E+02 -0.32850665024E+01  0.41052459258E+02  0.46148651243E+02  0.00000000000E+00 0. -1.
         21    1    1    2  503  501 -0.70056230933E+02 -0.12233353750E+03 -0.16616804685E+03  0.21791096733E+03  0.00000000000E+00 0.  1.
<scales pt_clust_5="13000.00000" pt_clust_6="13000.00000" pt_clust_7="13000.00000" pt_clust_8="13000.00000" pt_clust_9="21.08065" pt_clust_10="141.22124"></scales>
<clustering>
<clus scale="   21.081">  1  9  2 -1</clus>
<clus scale="   89.825">  7  8 -1 -1</clus>
<clus scale="   91.538">  5  6 -1 -1</clus>
<clus scale="  107.369">  2  7  1 -1</clus>
<clus scale="  141.221">  2 10  1 -1</clus>
<clus scale="   21.081">  1  5  2 -1</clus>
</clustering>
</event>
<event>
10    2  0.2445576E-006  0.1134095E+03  0.7546771E-02  0.1258547E+00
         -1   -1    0    0    0  501 -0.00000000000E+00  0.00000000000E+00  0.22160918468E+03  0.22160918468E+03  0.00000000000E+00 0.  1.
          1   -1    0    0  502    0  0.00000000000E+00 -0.00000000000E+00 -0.17567552721E+03  0.17567552721E+03  0.00000000000E+00 0. -1.
         23    2    1    2    0    0 -0.40324383455E+02 -0.52985781000E+02  0.92946755261E+02  0.15282974963E+03  0.10141145975E+03 0.  0.
         23    2    1    2    0    0 -0.98366553900E+01  0.37695963517E+02 -0.35892661926E+02  0.10553783361E+03  0.91280916339E+02 0.  0.
        -13    1    3    3    0    0 -0.35850445826E+02 -0.19003800216E+02 -0.12092771447E+02  0.42339508852E+02  0.00000000000E+00 0. -1.
         13    1    3    3    0    0 -0.44739376290E+01 -0.33981980784E+02  0.10503952671E+03  0.11049024078E+03  0.00000000000E+00 0.  1.
        -13    1    4    4    0    0 -0.31564296866E+02  0.23734883446E+02  0.19778135668E+02  0.44168135339E+02  0.00000000000E+00 0.  1.
         13    1    4    4    0    0  0.21727641475E+02  0.13961080071E+02 -0.55670797594E+02  0.61369698269E+02  0.00000000000E+00 0. -1.
         21    1    1    2  502  503  0.11473615368E+02  0.20299919091E+02 -0.66901346534E+02  0.70848576082E+02  0.00000000000E+00 0. -1.
         21    1    1    2  503  501  0.38687423477E+02 -0.50101016076E+01  0.55780910667E+02  0.68068552564E+02  0.00000000000E+00 0.  1.
<scales pt_clust_5="13000.00000" pt_clust_6="13000.00000" pt_clust_7="13000.00000" pt_clust_8="13000.00000" pt_clust_9="23.31803" pt_clust_10="39.53461"></scales>
<clustering>
<clus scale="   23.318">  2  9  1 -1</clus>
<clus scale="   39.535">  1 10  2 -1</clus>
<clus scale="   91.281">  7  8 -1 -1</clus>
<clus scale="  101.411">  5  6 -1 -1</clus>
<clus scale="  104.449">  2  7  1 -1</clus>
<clus scale="   23.318">  2  5  1 -1</clus>
</clustering>
</event>
<event>
10    2  0.2445576E-006  0.1374186E+03  0.7546771E-02  0.1217022E+00
          2   -1    0    0  502    0  0.00000000000E+00  0.00000000000E+00  0.41500344395E+02  0.41500344395E+02  0.00000000000E+00 0. -1.
         -2   -1    0    0    0  501 -0.00000000000E+00 -0.00000000000E+00 -0.80836374837E+03  0.80836374837E+03  0.00000000000E+00 0.  1.
         23    2    1    2    0    0 -0.11982202070E+02 -0.90968059019E+02 -0.40544763889E+03  0.42578288966E+03  0.92111455977E+02 0.  0.
         23    2    1    2    0    0  0.19455767240E+02  0.10168514326E+03 -0.17631687132E+03  0.22394265075E+03  0.91347011309E+02 0.  0.
        -11    1    4    4    0    0  0.43659176908E+02  0.20499844193E+02 -0.94859313487E+02  0.10641737027E+03  0.00000000000E+00 0.  1.
         11    1    4    4    0    0 -0.24203409667E+02  0.81185299066E+02 -0.81457557834E+02  0.11752528048E+03  0.00000000000E+00 0. -1.
        -13    1    3    3    0    0  0.24516643615E+02 -0.26777233934E+01 -0.32530298930E+02  0.40822253309E+02  0.00000000000E+00 0. -1.
         13    1    3    3    0    0 -0.36498845685E+02 -0.88290335626E+02 -0.37291733996E+03  0.38496063635E+03  0.00000000000E+00 0.  1.
         21    1    1    2  502  503 -0.20654377974E+02  0.10760900562E+02 -0.13957171928E+02  0.27151481702E+02  0.00000000000E+00 0. -1.
         21    1    1    2  503  501  0.13180812804E+02 -0.21477984802E+02 -0.17114172184E+03  0.17298707065E+03  0.00000000000E+00 0.  1.
<scales pt_clust_5="13000.00000" pt_clust_6="13000.00000" pt_clust_7="13000.00000" pt_clust_8="13000.00000" pt_clust_9="23.28949" pt_clust_10="24.67395"></scales>
<clustering>
<clus scale="   23.289">  1  9  2 -1</clus>
<clus scale="   24.674">  2 10  1 -1</clus>
<clus scale="   91.347">  5  6 -1 -1</clus>
<clus scale="   92.111">  7  8 -1 -1</clus>
<clus scale="  136.907">  1  5  2 -1</clus>
<clus scale="   23.289">  1  5  2 -1</clus>
</clustering>
</event>
<event>
10    2  0.2445576E-006  0.9539322E+02  0.7546771E-02  0.1291600E+00
         -1   -1    0    0    0  501 -0.00000000000E+00  0.00000000000E+00  0.36641032737E+02  0.36641032737E+02  0.00000000000E+00 0.  1.
          1   -1    0    0  502    0  0.00000000000E+00 -0.00000000000E+00 -0.70096649549E+03  0.70096649549E+03  0.00000000000E+00 0. -1.
         23    2    1    2    0    0 -0.30934832474E+01  0.14263384867E+02 -0.98046094860E+02  0.13563900832E+03  0.92584502349E+02 0.  0.
         23    2    1    2    0    0 -0.24908136943E+02  0.32406414924E+02 -0.41715511216E+03  0.42976149963E+03  0.94899778442E+02 0.  0.
        -11    1    3    3    0    0  0.23235301231E+02  0.38840792186E+02 -0.19604467656E+02  0.49323640509E+02  0.00000000000E+00 0.  1.
         11    1    3    3    0    0 -0.26328784478E+02 -0.24577407319E+02 -0.78441627204E+02  0.86315367815E+02  0.00000000000E+00 0. -1.
        -11    1    4    4    0    0  0.24517729927E+02  0.45946358066E+02 -0.21154548892E+03  0.21786160925E+03  0.00000000000E+00 0.  1.
         11    1    4    4    0    0 -0.49425866870E+02 -0.13539943142E+02 -0.20560962324E+03  0.21189989038E+03  0.00000000000E+00 0. -1.
         21    1    1    2  502  503  0.30041153298E+02 -0.20192781449E+02 -0.13924599233E+03  0.14387378390E+03  0.00000000000E+00 0. -1.
         21    1    1    2  503  501 -0.20395331080E+01 -0.26477018341E+02 -0.98782634058E+01  0.28333236375E+02  0.00000000000E+00 0. -1.
<scales pt_clust_5="13000.00000" pt_clust_6="13000.00000" pt_clust_7="13000.00000" pt_clust_8="13000.00000" pt_clust_9="37.35178" pt_clust_10="26.55546"></scales>
<clustering>
<clus scale="   26.555">  1 10  2 -1</clus>
<clus scale="   37.352">  2  9  1 -1</clus>
<clus scale="   92.585">  5  6 -1 -1</clus>
<clus scale="   93.090">  1  5  2 -1</clus>
<clus scale="   94.900">  7  8 -1 -1</clus>
<clus scale="   37.352">  2  5  1 -1</clus>
</clustering>
</event>
<event>
10    2  0.2445576E-006  0.1953008E+03  0.7546771E-02  0.1153773E+00
          1   -1    0    0  502    0  0.00000000000E+00  0.00000000000E+00  0.90866498726E+03  0.90866498726E+03  0.00000000000E+00 0. -1.
         -1   -1    0    0    0  501 -0.00000000000E+00 -0.00000000000E+00 -0.85172368154E+02  0.85172368154E+02  0.00000000000E+00 0.  1.
         23    2    1    2    0    0 -0.29625616343E+01  0.18591399343E+03  0.16864067181E+03  0.26763652130E+03  0.92826944491E+02 0.  0.
         23    2    1    2    0    0 -0.61690391998E+02 -0.14499142934E+03  0.37701529493E+03  0.41901284938E+03  0.92752446279E+02 0.  0.
        -13    1    4    4    0    0 -0.26433162977E+02 -0.13303104938E+03  0.22688109581E+03  0.26433123886E+03  0.00000000000E+00 0. -1.
         13    1    4    4    0    0 -0.35257229020E+02 -0.11960379958E+02  0.15013419912E+03  0.15468161052E+03  0.00000000000E+00 0.  1.
        -13    1    3    3    0    0 -0.39053216790E+02  0.84828820587E+02  0.11345502679E+03  0.14694599569E+03  0.00000000000E+00 0.  1.
         13    1    3    3    0    0  0.36090655156E+02  0.10108517284E+03  0.55185645017E+02  0.12069052562E+03  0.00000000000E+00 0. -1.
         21    1    1    2  502  503 -0.36752225990E+01 -0.30125466348E+02  0.20308229346E+03  0.20533745129E+03  0.00000000000E+00 0. -1.
         21    1    1    2  503  501  0.68328176231E+02 -0.10797097743E+02  0.74754358903E+02  0.10185053344E+03  0.00000000000E+00 0.  1.
<scales pt_clust_5="13000.00000" pt_clust_6="13000.00000" pt_clust_7="13000.00000" pt_clust_8="13000.00000" pt_clust_9="30.34882" pt_clust_10="69.41453"></scales>
<clustering>
<clus scale="   30.349">  1  9  2 -1</clus>
<clus scale="   69.415">  2 10  1 -1</clus>
<clus scale="   92.752">  5  6 -1 -1</clus>
<clus scale="   92.827">  7  8 -1 -1</clus>
<clus scale="  195.265">  1  5  2 -1</clus>
<clus scale="   30.349">  1  5  2 -1</clus>
</clustering>
</event>
<event>
10    2  0.2445576E-006  0.9275660E+02  0.7546771E-02  0.1297142E+00
          2   -1    0    0  502    0  0.00000000000E+00  0.00000000000E+00  0.26111528647E+03  0.26111528647E+03  0.00000000000E+00 0. -1.
         -2   -1    0    0    0  501 -0.00000000000E+00 -0.00000000000E+00 -0.24086012885E+03  0.24086012885E+03  0.00000000000E+00 0.  1.
         23    2    1    2    0    0  0.13423400863E+02  0.18577064987E+02 -0.18660264963E+03  0.20949729731E+03  0.92429831197E+02 0.  0.
         23    2    1    2    0    0  0.26348801719E+01  0.26994563283E+02  0.18218613983E+03  0.20544965045E+03  0.91006155214E+02 0.  0.
        -13    1    3    3    0    0  0.19185001714E+01 -0.28944854908E+02 -0.18446287120E+02  0.34376602175E+02  0.00000000000E+00 0. -1.
         13    1    3    3    0    0  0.11504900692E+02  0.47521919895E+02 -0.16815636251E+03  0.17512069513E+03  0.00000000000E+00 0.  1.
        -13    1    4    4    0    0 -0.27659966970E+02  0.28703106773E+02  0.16666842436E+03  0.17136891723E+03  0.00000000000E+00 0.  1.
         13    1    4    4    0    0  0.30294847142E+02 -0.17085434905E+01  0.15517715462E+02  0.34080733229E+02  0.00000000000E+00 0. -1.
         21    1    1    2  502  503  0.44659152900E+01 -0.34702435488E+02  0.44418416943E+02  0.56543781195E+02  0.00000000000E+00 0. -1.
         21    1    1    2  503  501 -0.20524196325E+02 -0.10869192782E+02 -0.19746749514E+02  0.30484686367E+02  0.00000000000E+00 0. -1.
<scales pt_clust_5="13000.00000" pt_clust_6="13000.00000" pt_clust_7="13000.00000" pt_clust_8="13000.00000" pt_clust_9="35.22324" pt_clust_10="23.22460"></scales>
<clustering>
<clus scale="   23.225">  2 10  1 -1</clus>
<clus scale="   35.223">  1  9  2 -1</clus>
<clus scale="   91.006">  7  8 -1 -1</clus>
<clus scale="   91.338">  1  7  2 -1</clus>
<clus scale="   92.430">  5  6 -1 -1</clus>
<clus scale="   35.223">  1  5  2 -1</clus>
</clustering>
</event>
<event>
10    2  0.2445576E-006  0.9951227E+02  0.7546771E-02  0.1282236E+00
          1   -1    0    0  502    0  0.00000000000E+00  0.00000000000E+00  0.34351480919E+03  0.34351480919E+03  0.00000000000E+00 0. -1.
         -1   -1    0    0    0  501 -0.00000000000E+00 -0.00000000000E+00 -0.11709878394E+03  0.11709878394E+03  0.00000000000E+00 0.  1.
         23    2    1    2    0    0  0.60184906253E+02 -0.17691849939E+02 -0.46377900365E+02  0.12043937010E+03  0.91757875595E+02 0.  0.
         23    2    1    2    0    0 -0.21918069372E+02 -0.82245179776E+01  0.10674021517E+03  0.14150818220E+03  0.89905770869E+02 0.  0.
        -13    1    4    4    0    0 -0.12888558366E+02 -0.45013429011E+02  0.29123135239E+02  0.55140554352E+02  0.00000000000E+00 0.  1.
         13    1    4    4    0    0 -0.90295110063E+01  0.36788911034E+02  0.77617079929E+02  0.86367627852E+02  0.00000000000E+00 0. -1.
        -13    1    3    3    0    0 -0.53478247993E+01  0.19821060283E+02  0.13069189166E+02  0.24336749296E+02  0.00000000000E+00 0. -1.
         13    1    3    3    0    0  0.65532731053E+02 -0.37512910222E+02 -0.59447089531E+02  0.96102620808E+02  0.00000000000E+00 0.  1.
         21    1    1    2  502  503 -0.16321021851E+02  0.14049599695E+02  0.17173388640E+03  0.17307886856E+03  0.00000000000E+00 0. -1.
         21    1    1    2  503  501 -0.21945815030E+02  0.11866768221E+02 -0.56801759438E+01  0.25587172257E+02  0.00000000000E+00 0. -1.
<scales pt_clust_5="13000.00000" pt_clust_6="13000.00000" pt_clust_7="13000.00000" pt_clust_8="13000.00000" pt_clust_9="21.53525" pt_clust_10="26.17396"></scales>
<clustering>
<clus scale="   21.535">  1  9  2 -1</clus>
<clus scale="   26.174">  2 10  1 -1</clus>
<clus scale="   89.906">  5  6 -1 -1</clus>
<clus scale="   91.758">  7  8 -1 -1</clus>
<clus scale="   97.807">  1  5  2 -1</clus>
<clus scale="   21.535">  1  5  2 -1</clus>
</clustering>
</event>
<event>
10    2  0.2445576E-006  0.3177371E+03  0.7546771E-02  0.1076809E+00
         -2   -1    0    0    0  501 -0.00000000000E+00  0.00000000000E+00  0.27233939115E+03  0.27233939115E+03  0.00000000000E+00 0.  1.
          2   -1    0    0  502    0  0.00000000000E+00 -0.00000000000E+00 -0.15714882945E+04  0.15714882945E+04  0.00000000000E+00 0. -1.
         23    2    1    2    0    0  0.18900518796E+02  0.26767519293E+03 -0.12637654267E+03  0.31147043144E+03  0.95055565878E+02 0.  0.
         23    2    1    2    0    0  0.13412248212E+03 -0.33178211327E+03 -0.81974114599E+02  0.37841993825E+03  0.91726132075E+02 0.  0.
        -11    1    4    4    0    0  0.62661861136E+02 -0.69259289586E+02  0.28083568068E+01  0.93441130681E+02  0.00000000000E+00 0.  1.
         11    1    4    4    0    0  0.71460620988E+02 -0.26252282368E+03 -0.84782471405E+02  0.28497880757E+03  0.00000000000E+00 0. -1.
        -13    1    3    3    0    0  0.32638717065E+02  0.60984331444E+02 -0.68483033828E+00  0.69172563390E+02  0.00000000000E+00 0.  1.
         13    1    3    3    0    0 -0.13738198269E+02  0.20669086149E+03 -0.12569171233E+03  0.24229786805E+03  0.00000000000E+00 0. -1.
         21    1    1    2  502  503 -0.15167293295E+03  0.84405707998E+02 -0.11114653562E+04  0.11249374383E+04  0.00000000000E+00 0.  1.
         21    1    1    2  503  501 -0.13500679731E+01 -0.20298787661E+02  0.20667110088E+02  0.28999877645E+02  0.00000000000E+00 0.  1.
<scales pt_clust_5="13000.00000" pt_clust_6="13000.00000" pt_clust_7="13000.00000" pt_clust_8="13000.00000" pt_clust_9="173.34127" pt_clust_10="20.34363"></scales>
<clustering>
<clus scale="   20.344">  1 10  2 -1</clus>
<clus scale="   91.726">  5  6 -1 -1</clus>
<clus scale="   95.056">  7  8 -1 -1</clus>
<clus scale="  173.341">  2  9  1 -1</clus>
<clus scale="  316.757">  2  5  1 -1</clus>
<clus scale="  173.341">  2  5  1 -1</clus>
</clustering>
</event>
<event>
10    2  0.2445576E-006  0.1052031E+03  0.7546771E-02  0.1275229E+00
          2   -1    0    0  502    0  0.00000000000E+00  0.00000000000E+00  0.24332591741E+03  0.24332591741E+03  0.00000000000E+00 0. -1.
         -2   -1    0    0    0  501 -0.00000000000E+00 -0.00000000000E+00 -0.35130016299E+03  0.35130016299E+03  0.00000000000E+00 0.  1.
         23    2    1    2    0    0  0.15191616924E+01  0.25577918937E+02 -0.11872163054E+03  0.14456719374E+03  0.78411160924E+02 0.  0.
         23    2    1    2    0    0 -0.53648198980E+02 -0.65384037895E+02  0.34571857039E+01  0.12421758220E+03  0.90911242035E+02 0.  0.
        -11    1    4    4    0    0 -0.13207447701E+02  0.23075209144E+02 -0.28981098181E+01  0.26745111560E+02  0.00000000000E+00 0.  1.
         11    1    4    4    0    0 -0.40440751279E+02 -0.88459247039E+02  0.63552955220E+01  0.97472470636E+02  0.00000000000E+00 0. -1.
        -13    1    3    3    0    0 -0.28245872896E+02 -0.65031757571E+01 -0.16453946361E+02  0.33329461163E+02  0.00000000000E+00 0. -1.
         13    1    3    3    0    0  0.29765034588E+02  0.32081094695E+02 -0.10226768418E+03  0.11123773257E+03  0.00000000000E+00 0.  1.
         21    1    1    2  502  503  0.35009965778E+02  0.99506349337E+01  0.16267191201E+03  0.16669392249E+03  0.00000000000E+00 0. -1.
         21    1    1    2  503  501  0.17119071510E+02  0.29855484024E+02 -0.15538171275E+03  0.15914738198E+03  0.00000000000E+00 0.  1.
<scales pt_clust_5="13000.00000" pt_clust_6="13000.00000" pt_clust_7="13000.00000" pt_clust_8="13000.00000" pt_clust_9="36.65271" pt_clust_10="34.41530"></scales>
<clustering>
<clus scale="   34.415">  2 10  1 -1</clus>
<clus scale="   36.653">  1  9  2 -1</clus>
<clus scale="   78.411">  7  8 -1 -1</clus>
<clus scale="   90.911">  5  6 -1 -1</clus>
<clus scale="   94.611">  2  7  1 -1</clus>
<clus scale="   36.653">  1  5  2 -1</clus>
</clustering>
</event>
<event>
10    2  0.2445576E-006  0.1245869E+03  0.7546771E-02  0.1235741E+00
          3   -1    0    0  502    0  0.00000000000E+00  0.00000000000E+00  0.17734332350E+03  0.17734332350E+03  0.00000000000E+00 0. -1.
         -3   -1    0    0    0  501 -0.00000000000E+00 -0.00000000000E+00 -0.49823150908E+03  0.49823150908E+03  0.00000000000E+00 0.  1.
         23    2    1    2    0    0 -0.92401294087E+02  0.34189354765E+02 -0.18064203244E+02  0.13583503145E+03  0.91749273571E+02 0.  0.
         23    2    1    2    0    0  0.97823971229E+01 -0.97461901690E+02  0.75637812541E+01  0.13448107329E+03  0.91833712282E+02 0.  0.
        -11    1    4    4    0    0  0.45019739569E+02 -0.21217086126E+02  0.84588034974E+01  0.50482601470E+02  0.00000000000E+00 0.  1.
         11    1    4    4    0    0 -0.35237342446E+02 -0.76244815564E+02 -0.89502224330E+00  0.83998471819E+02  0.00000000000E+00 0. -1.
        -11    1    3    3    0    0 -0.16133172190E+01  0.22377342342E+02  0.25905955431E+02  0.34270494154E+02  0.00000000000E+00 0.  1.
         11    1    3    3    0    0 -0.90787976868E+02  0.11812012422E+02 -0.43970158676E+02  0.10156453729E+03  0.00000000000E+00 0. -1.
         21    1    1    2  502  503  0.24208974280E+02  0.17299734997E+00  0.38748857612E+02  0.45690024404E+02  0.00000000000E+00 0. -1.
         21    1    1    2  503  501  0.58409922684E+02  0.63099549576E+02 -0.34913662120E+03  0.35956870344E+03  0.00000000000E+00 0.  1.
<scales pt_clust_5="13000.00000" pt_clust_6="13000.00000" pt_clust_7="13000.00000" pt_clust_8="13000.00000" pt_clust_9="24.20959" pt_clust_10="86.62654"></scales>
<clustering>
<clus scale="   24.210">  1  9  2 -1</clus>
<clus scale="   86.627">  2 10  1 -1</clus>
<clus scale="   91.749">  7  8 -1 -1</clus>
<clus scale="   91.834">  5  6 -1 -1</clus>
<clus scale="  124.525">  2  7  1 -1</clus>
<clus scale="   24.210">  1  5  2 -1</clus>
</clustering>
</event>
<event>
10    2  0.2445576E-006  0.2441970E+03  0.7546771E-02  0.1117552E+00
         -2   -1    0    0    0  501 -0.00000000000E+00  0.00000000000E+00  0.64399212080E+03  0.64399212080E+03  0.00000000000E+00 0.  1.
          2   -1    0    0  502    0  0.00000000000E+00 -0.00000000000E+00 -0.41088621738E+03  0.41088621738E+03  0.00000000000E+00 0. -1.
         23    2    1    2    0    0 -0.29387118528E+03  0.12761388371E+03  0.40641982280E+03  0.52391318844E+03  0.81623402296E+02 0.  0.
         23    2    1    2    0    0  0.19337531293E+03 -0.26565605578E+02 -0.22831983463E+03  0.31375609112E+03  0.90626678085E+02 0.  0.
        -11    1    4    4    0    0  0.85966377397E+02 -0.51912768688E+02 -0.77399242771E+02  0.12679036390E+03  0.00000000000E+00 0.  1.
         11    1    4    4    0    0  0.10740893553E+03  0.25347163109E+02 -0.15092059186E+03  0.18696572723E+03  0.00000000000E+00 0. -1.
        -13    1    3    3    0    0 -0.62494761760E+02 -0.70433571464E+01  0.75122035424E+02  0.97972058943E+02  0.00000000000E+00 0.  1.
         13    1    3    3    0    0 -0.23137642353E+03  0.13465724086E+03  0.33129778737E+03  0.42594112950E+03  0.00000000000E+00 0. -1.
         21    1    1    2  502  503  0.10918382077E+02 -0.58574360411E+02 -0.46306408416E+02  0.75461581120E+02  0.00000000000E+00 0. -1.
         21    1    1    2  503  501  0.89577490277E+02 -0.42473917724E+02  0.10131232367E+03  0.14174747750E+03  0.00000000000E+00 0.  1.
<scales pt_clust_5="13000.00000" pt_clust_6="13000.00000" pt_clust_7="13000.00000" pt_clust_8="13000.00000" pt_clust_9="59.58328" pt_clust_10="101.19495"></scales>
<clustering>
<clus scale="   59.583">  2  9  1 -1</clus>
<clus scale="   81.623">  7  8 -1 -1</clus>
<clus scale="   90.627">  5  6 -1 -1</clus>
<clus scale="  101.195">  1 10  2 -1</clus>
<clus scale="  241.001">  1  7  2 -1</clus>
<clus scale="   59.583">  2  5  1 -1</clus>
</clustering>
</event>
<event>
10    2  0.2445576E-006  0.9893786E+02  0.7546771E-02  0.1283647E+00
         -2   -1    0    0    0  501 -0.00000000000E+00  0.00000000000E+00  0.64879291671E+02  0.64879291671E+02  0.00000000000E+00 0.  1.
          2   -1    0    0  502    0  0.00000000000E+00 -0.00000000000E+00 -0.44608124833E+03  0.44608124833E+03  0.00000000000E+00 0. -1.
         23    2    1    2    0    0  0.29026198493E+00 -0.19121802522E+02 -0.72679798699E+02  0.11929820428E+03  0.92649775071E+02 0.  0.
         23    2    1    2    0    0 -0.82555453184E+02 -0.26882646733E+02 -0.21851547251E+03  0.25193474883E+03  0.90465608897E+02 0.  0.
        -11    1    3    3    0    0 -0.31567146970E+02  0.16551358533E+02 -0.60049610153E+02  0.69831138589E+02  0.00000000000E+00 0. -1.
         11    1    3    3    0    0  0.31857408955E+02 -0.35673161055E+02 -0.12630188546E+02  0.49467065687E+02  0.00000000000E+00 0.  1.
        -13    1    4    4    0    0 -0.12386173938E+02 -0.33688994230E+02 -0.19601466632E+02  0.40897226448E+02  0.00000000000E+00 0.  1.
         13    1    4    4    0    0 -0.70169279247E+02  0.68063474965E+01 -0.19891400588E+03  0.21103752238E+03  0.00000000000E+00 0. -1.
         21    1    1    2  502  503  0.51205000691E+02  0.22690070700E+02 -0.83206255778E+02  0.10029991229E+03  0.00000000000E+00 0.  1.
         21    1    1    2  503  501  0.31060190508E+02  0.23314378555E+02 -0.68004296708E+01  0.39427674614E+02  0.00000000000E+00 0. -1.
<scales pt_clust_5="13000.00000" pt_clust_6="13000.00000" pt_clust_7="13000.00000" pt_clust_8="13000.00000" pt_clust_9="62.68560" pt_clust_10="38.83678"></scales>
<clustering>
<clus scale="   38.837">  1 10  2 -1</clus>
<clus scale="   62.686">  2  9  1 -1</clus>
<clus scale="   90.466">  7  8 -1 -1</clus>
<clus scale="   92.650">  5  6 -1 -1</clus>
<clus scale="   96.896">  2  7  1 -1</clus>
<clus scale="   62.686">  2  5  1 -1</clus>
</clustering>
</event>
<event>
10    2  0.2445576E-006  0.2256550E+03  0.7546771E-02  0.1131093E+00
         -2   -1    0    0    0  501 -0.00000000000E+00  0.00000000000E+00  0.92485322380E+03  0.92485322380E+03  0.00000000000E+00 0.  1.
          2   -1    0    0  502    0  0.00000000000E+00 -0.00000000000E+00 -0.89890697436E+02  0.89890697436E+02  0.00000000000E+00 0. -1.
         23    2    1    2    0    0  0.19179169295E+03  0.32738966424E+02  0.46314722825E+03  0.51040349836E+03  0.90280023762E+02 0.  0.
         23    2    1    2    0    0 -0.17732770177E+03 -0.76034089975E+02  0.17515811296E+03  0.28167094787E+03  0.10691988442E+03 0.  0.
        -11    1    3    3    0    0  0.10625816073E+03 -0.19743845745E+02  0.17947126532E+03  0.20950071896E+03  0.00000000000E+00 0. -1.
         11    1    3    3    0    0  0.85533532216E+02  0.52482812169E+02  0.28367596293E+03  0.30090277940E+03  0.00000000000E+00 0.  1.
        -11    1    4    4    0    0 -0.13799879386E+03 -0.20256391220E+02  0.15905537800E+03  0.21154810745E+03  0.00000000000E+00 0. -1.
         11    1    4    4    0    0 -0.39328907911E+02 -0.55777698755E+02  0.16102734953E+02  0.70122840422E+02  0.00000000000E+00 0.  1.
         21    1    1    2  502  503 -0.28508910491E+02  0.25387873850E+02  0.17364828897E+02  0.41938519271E+02  0.00000000000E+00 0. -1.
         21    1    1    2  503  501  0.14044919314E+02  0.17907249701E+02  0.17929235626E+03  0.18073095574E+03  0.00000000000E+00 0.  1.
<scales pt_clust_5="13000.00000" pt_clust_6="13000.00000" pt_clust_7="13000.00000" pt_clust_8="13000.00000" pt_clust_9="38.24186" pt_clust_10="22.75806"></scales>
<clustering>
<clus scale="   22.758">  1 10  2 -1</clus>
<clus scale="   38.242">  2  9  1 -1</clus>
<clus scale="   90.280">  5  6 -1 -1</clus>
<clus scale="  106.920">  7  8 -1 -1</clus>
<clus scale="  218.263">  1  5  2 -1</clus>
<clus scale="   38.242">  2  5  1 -1</clus>
</clustering>
</event>
<event>
10    2  0.2445576E-006  0.1275733E+03  0.7546771E-02  0.1243360E+00
         -1   -1    0    0    0  501 -0.00000000000E+00  0.00000000000E+00  0.21841077343E+03  0.21841077343E+03  0.00000000000E+00 0.  1.
          1   -1    0    0  502    0  0.00000000000E+00 -0.00000000000E+00 -0.45614790267E+03  0.45614790267E+03  0.00000000000E+00 0. -1.
         23    2    1    2    0    0 -0.76490648037E+02  0.59972875053E+01  0.11935195745E+03  0.16891205799E+03  0.91649369296E+02 0.  0.
         23    2    1    2    0    0 -0.54388294845E+02 -0.12499795181E+02 -0.17807480223E+03  0.20637828572E+03  0.88130755862E+02 0.  0.
        -11    1    4    4    0    0  0.10328582728E+02  0.25260428260E+02 -0.30883695722E+02  0.41213729733E+02  0.00000000000E+00 0.  1.
         11    1    4    4    0    0 -0.64716877573E+02 -0.37760223441E+02 -0.14719110651E+03  0.16516455598E+03  0.00000000000E+00 0. -1.
        -13    1    3    3    0    0 -0.69655635557E+02  0.27242463426E+02  0.36723513791E+02  0.83322721052E+02  0.00000000000E+00 0. -1.
         13    1    3    3    0    0 -0.68350124796E+01 -0.21245175921E+02  0.82628443664E+02  0.85589336940E+02  0.00000000000E+00 0.  1.
         21    1    1    2  502  503  0.14749220702E+02  0.35703298709E+02 -0.17525785281E+03  0.17946470411E+03  0.00000000000E+00 0. -1.
         21    1    1    2  503  501  0.11612972218E+03 -0.29200791033E+02 -0.37564316461E+01  0.11980362828E+03  0.00000000000E+00 0.  1.
<scales pt_clust_5="13000.00000" pt_clust_6="13000.00000" pt_clust_7="13000.00000" pt_clust_8="13000.00000" pt_clust_9="38.62985" pt_clust_10="88.74313"></scales>
<clustering>
<clus scale="   38.630">  2  9  1 -1</clus>
<clus scale="   88.131">  5  6 -1 -1</clus>
<clus scale="   91.649">  7  8 -1 -1</clus>
<clus scale="   99.344">  2  5  1 -1</clus>
<clus scale="   88.743">  2 10  1 -1</clus>
<clus scale="   38.630">  2  5  1 -1</clus>
</clustering>
</event>
<event>
10    2  0.2445576E-006  0.9392022E+02  0.7546771E-02  0.1296136E+00
         -1   -1    0    0    0  501 -0.00000000000E+00  0.00000000000E+00  0.46366720705E+03  0.46366720705E+03  0.00000000000E+00 0.  1.
          1   -1    0    0  503    0  0.00000000000E+00 -0.00000000000E+00 -0.80554148022E+02  0.80554148022E+02  0.00000000000E+00 0. -1.
         23    2    1    2    0    0  0.14894185488E+02  0.61487418545E+01  0.37476407949E+03  0.38648011335E+03  0.93054387048E+02 0.  0.
         23    2    1    2    0    0  0.21889643723E+02 -0.63149402256E+01 -0.10551049253E+02  0.92216915153E+02  0.88733307318E+02 0.  0.
        -13    1    3    3    0    0 -0.20776338690E+02  0.40096039152E+02  0.17382609893E+03  0.17959638436E+03  0.00000000000E+00 0.  1.
         13    1    3    3    0    0  0.35670524178E+02 -0.33947297298E+02  0.20093798056E+03  0.20688372899E+03  0.00000000000E+00 0. -1.
        -13    1    4    4    0    0  0.38609167424E+02  0.19337843918E+02 -0.32917960121E+02  0.54297441147E+02  0.00000000000E+00 0.  1.
         13    1    4    4    0    0 -0.16719523702E+02 -0.25652784144E+02  0.22366910868E+02  0.37919474006E+02  0.00000000000E+00 0. -1.
         21    1    1    2  502  501 -0.33220672575E+02  0.21575021332E+02  0.54338650268E+01  0.39982765299E+02  0.00000000000E+00 0. -1.
         21    1    1    2  503  502 -0.35631566354E+01 -0.21408822960E+02  0.13466163765E+02  0.25541561274E+02  0.00000000000E+00 0. -1.
<scales pt_clust_5="13000.00000" pt_clust_6="13000.00000" pt_clust_7="13000.00000" pt_clust_8="13000.00000" pt_clust_9="37.88319" pt_clust_10="21.70331"></scales>
<clustering>
<clus scale="   21.703">  2 10  1 -1</clus>
<clus scale="   37.883">  2  9  1 -1</clus>
<clus scale="   88.733">  7  8 -1 -1</clus>
<clus scale="   89.641">  2  7  1 -1</clus>
<clus scale="   93.054">  5  6 -1 -1</clus>
<clus scale="   21.703">  2  5  1 -1</clus>
</clustering>
</event>
<event>
10    2  0.2445576E-006  0.1009968E+03  0.7546771E-02  0.1278310E+00
          1   -1    0    0  502    0  0.00000000000E+00  0.00000000000E+00  0.31331693593E+03  0.31331693593E+03  0.00000000000E+00 0. -1.
         -1   -1    0    0    0  501 -0.00000000000E+00 -0.00000000000E+00 -0.14967591107E+03  0.14967591107E+03  0.00000000000E+00 0.  1.
         23    2    1    2    0    0  0.37858152109E+02 -0.77723503406E+01 -0.88806879473E+02  0.13311082834E+03  0.91313644489E+02 0.  0.
         23    2    1    2    0    0 -0.26276554009E+02  0.59571686878E+01  0.94313676615E+02  0.13415219855E+03  0.91519383901E+02 0.  0.
        -13    1    4    4    0    0  0.15990804098E+02  0.25103686886E+02  0.81815851116E+00  0.29775330298E+02  0.00000000000E+00 0.  1.
         13    1    4    4    0    0 -0.42267358107E+02 -0.19146518199E+02  0.93495518104E+02  0.10437686825E+03  0.00000000000E+00 0. -1.
        -13    1    3    3    0    0  0.65110837093E+02  0.47949705450E+00 -0.39455567366E+02  0.76134045082E+02  0.00000000000E+00 0.  1.
         13    1    3    3    0    0 -0.27252684984E+02 -0.82518473951E+01 -0.49351312107E+02  0.56976783262E+02  0.00000000000E+00 0. -1.
         21    1    1    2  502  503 -0.22635280259E+02 -0.15250119739E+02  0.17000754548E+03  0.17218445802E+03  0.00000000000E+00 0. -1.
         21    1    1    2  503  501  0.11053682159E+02  0.17065301392E+02 -0.11873317760E+02  0.23545362080E+02  0.00000000000E+00 0.  1.
<scales pt_clust_5="13000.00000" pt_clust_6="13000.00000" pt_clust_7="13000.00000" pt_clust_8="13000.00000" pt_clust_9="27.13908" pt_clust_10="20.33245"></scales>
<clustering>
<clus scale="   20.332">  2 10  1 -1</clus>
<clus scale="   27.139">  1  9  2 -1</clus>
<clus scale="   91.314">  7  8 -1 -1</clus>
<clus scale="   91.519">  5  6 -1 -1</clus>
<clus scale="  100.810">  2  7  1 -1</clus>
<clus scale="   27.139">  1  5  2 -1</clus>
</clustering>
</event>
<event>
10    2  0.2445576E-006  0.1439965E+03  0.7546771E-02  0.1213074E+00
         -1   -1    0    0    0  501 -0.00000000000E+00  0.00000000000E+00  0.24620882216E+03  0.24620882216E+03  0.00000000000E+00 0.  1.
          1   -1    0    0  502    0  0.00000000000E+00 -0.00000000000E+00 -0.22047903917E+03  0.22047903917E+03  0.00000000000E+00 0. -1.
         23    2    1    2    0    0 -0.36899558012E+02  0.54701639935E+02  0.97464475305E+02  0.16203587652E+03  0.11136630792E+03 0.  0.
         23    2    1    2    0    0  0.10832936711E+03 -0.35956079984E+02 -0.84956196856E+02  0.16925567436E+03  0.91661532011E+02 0.  0.
        -11    1    3    3    0    0  0.27077998354E+02  0.70121014827E+01 -0.86393754948E+01  0.29275012741E+02  0.00000000000E+00 0.  1.
         11    1    3    3    0    0 -0.63977556366E+02  0.47689538452E+02  0.10610385080E+03  0.13276086378E+03  0.00000000000E+00 0. -1.
        -13    1    4    4    0    0  0.28690711978E+02 -0.36319441493E+01  0.18823648134E+02  0.34506198011E+02  0.00000000000E+00 0.  1.
         13    1    4    4    0    0  0.79638655133E+02 -0.32324135835E+02 -0.10377984499E+03  0.13474947634E+03  0.00000000000E+00 0. -1.
         21    1    1    2  502  503 -0.11741498661E+02  0.19326003374E+02 -0.40594318001E+02  0.46467793698E+02  0.00000000000E+00 0.  1.
         21    1    1    2  503  501 -0.59688310438E+02 -0.38071563324E+02  0.53815822549E+02  0.88928516762E+02  0.00000000000E+00 0.  1.
<scales pt_clust_5="13000.00000" pt_clust_6="13000.00000" pt_clust_7="13000.00000" pt_clust_8="13000.00000" pt_clust_9="22.61321" pt_clust_10="70.78304"></scales>
<clustering>
<clus scale="   22.613">  2  9  1 -1</clus>
<clus scale="   70.783">  1 10  2 -1</clus>
<clus scale="   91.662">  7  8 -1 -1</clus>
<clus scale="  111.366">  5  6 -1 -1</clus>
<clus scale="  129.361">  2  7  1 -1</clus>
<clus scale="   22.613">  2  5  1 -1</clus>
</clustering>
</event>
<event>
10    2  0.2445576E-006  0.1035207E+03  0.7546771E-02  0.1274452E+00
         -1   -1    0    0    0  501 -0.00000000000E+00  0.00000000000E+00  0.12763321057E+03  0.12763321057E+03  0.00000000000E+00 0.  1.
          1   -1    0    0  502    0  0.00000000000E+00 -0.00000000000E+00 -0.20146043555E+03  0.20146043555E+03  0.00000000000E+00 0. -1.
         23    2    1    2    0    0  0.28014093189E+02  0.57261913081E+01  0.40170473835E+02  0.10189050561E+03  0.89165180884E+02 0.  0.
         23    2    1    2    0    0 -0.44549951215E+02 -0.62005807925E-01 -0.12639788369E+03  0.16269344983E+03  0.92238991849E+02 0.  0.
        -11    1    3    3    0    0  0.38916091100E+02  0.37776168565E+02  0.41060343367E+02  0.68025383905E+02  0.00000000000E+00 0.  1.
         11    1    3    3    0    0 -0.10901997911E+02 -0.32049977257E+02 -0.88986953197E+00  0.33865121710E+02  0.00000000000E+00 0. -1.
        -13    1    4    4    0    0 -0.29321870257E+02  0.42734104875E+02 -0.41450670474E+02  0.66363648766E+02  0.00000000000E+00 0.  1.
         13    1    4    4    0    0 -0.15228080958E+02 -0.42796110683E+02 -0.84947213219E+02  0.96329801063E+02  0.00000000000E+00 0. -1.
         21    1    1    2  502  503 -0.93838091420E+01 -0.19242444960E+02 -0.13602623341E+02  0.25364520966E+02  0.00000000000E+00 0. -1.
         21    1    1    2  503  501  0.25919667168E+02  0.13578259460E+02  0.26002808226E+02  0.39145169711E+02  0.00000000000E+00 0.  1.
<scales pt_clust_5="13000.00000" pt_clust_6="13000.00000" pt_clust_7="13000.00000" pt_clust_8="13000.00000" pt_clust_9="21.40859" pt_clust_10="28.64194"></scales>
<clustering>
<clus scale="   21.409">  2  9  1 -1</clus>
<clus scale="   28.642">  1 10  2 -1</clus>
<clus scale="   89.165">  5  6 -1 -1</clus>
<clus scale="   92.239">  7  8 -1 -1</clus>
<clus scale="  100.792">  1  5  2 -1</clus>
<clus scale="   21.409">  2  5  1 -1</clus>
</clustering>
</event>
<event>
10    2  0.2445576E-006  0.1054418E+03  0.7546771E-02  0.1270508E+00
          1   -1    0    0  502    0  0.00000000000E+00  0.00000000000E+00  0.50528303081E+03  0.50528303081E+03  0.00000000000E+00 0. -1.
         -1   -1    0    0    0  501 -0.00000000000E+00 -0.00000000000E+00 -0.57588009195E+02  0.57588009195E+02  0.00000000000E+00 0.  1.
         23    2    1    2    0    0 -0.27341077408E+02  0.43019819905E+02  0.10374919720E+03  0.14711971162E+03  0.91005902054E+02 0.  0.
         23    2    1    2    0    0  0.30398370613E+02 -0.42581350312E+02  0.68403419738E+02  0.12317075228E+03  0.88061194944E+02 0.  0.
        -11    1    4    4    0    0 -0.22559494649E+02  0.32894093350E+01  0.42955373720E+02  0.48630393213E+02  0.00000000000E+00 0.  1.
         11    1    4    4    0    0  0.52957865262E+02 -0.45870759647E+02  0.25448046018E+02  0.74540359067E+02  0.00000000000E+00 0. -1.
        -11    1    3    3    0    0 -0.27257459797E+02  0.15991262222E+02 -0.76281486262E+01  0.32509663694E+02  0.00000000000E+00 0.  1.
         11    1    3    3    0    0 -0.83617611523E-01  0.27028557683E+02  0.11137734582E+03  0.11461004792E+03  0.00000000000E+00 0. -1.
         21    1    1    2  502  503 -0.19012247516E+02  0.24872196081E+02  0.25348041649E+03  0.25540636883E+03  0.00000000000E+00 0.  1.
         21    1    1    2  503  501  0.15954954311E+02 -0.25310665674E+02  0.22061988185E+02  0.37174207276E+02  0.00000000000E+00 0. -1.
<scales pt_clust_5="13000.00000" pt_clust_6="13000.00000" pt_clust_7="13000.00000" pt_clust_8="13000.00000" pt_clust_9="30.73293" pt_clust_10="29.91973"></scales>
<clustering>
<clus scale="   29.920">  2 10  1 -1</clus>
<clus scale="   30.733">  1  9  2 -1</clus>
<clus scale="   88.061">  5  6 -1 -1</clus>
<clus scale="   91.006">  7  8 -1 -1</clus>
<clus scale="  102.911">  1  5  2 -1</clus>
<clus scale="   30.733">  1  5  2 -1</clus>
</clustering>
</event>
<event>
10    2  0.2445576E-006  0.1591990E+03  0.7546771E-02  0.1189627E+00
          1   -1    0    0  502    0  0.00000000000E+00  0.00000000000E+00  0.11743119490E+04  0.11743119490E+04  0.00000000000E+00 0. -1.
         -1   -1    0    0    0  501 -0.00000000000E+00 -0.00000000000E+00 -0.44041542196E+02  0.44041542196E+02  0.00000000000E+00 0.  1.
         23    2    1    2    0    0  0.11683692821E+03  0.73490658817E+02  0.51230567251E+03  0.53799209499E+03  0.89031721595E+02 0.  0.
         23    2    1    2    0    0 -0.93760666898E+02 -0.86496942347E+02  0.50855352489E+03  0.53178929428E+03  0.88884093817E+02 0.  0.
        -11    1    3    3    0    0  0.32479714254E+02  0.72796696182E+02  0.26139892945E+03  0.27328317023E+03  0.00000000000E+00 0.  1.
         11    1    3    3    0    0  0.84357213958E+02  0.69396263500E+00  0.25090674306E+03  0.26470892475E+03  0.00000000000E+00 0. -1.
        -13    1    4    4    0    0 -0.39827154663E+02 -0.15985377858E+02  0.55692334273E+02  0.70309107878E+02  0.00000000000E+00 0.  1.
         13    1    4    4    0    0 -0.53933512235E+02 -0.70511564489E+02  0.45286119062E+03  0.46148018640E+03  0.00000000000E+00 0. -1.
         21    1    1    2  502  503 -0.33816104996E+02  0.35529136448E+02  0.11316621821E+03  0.12333872644E+03  0.00000000000E+00 0.  1.
         21    1    1    2  503  501  0.10739843683E+02 -0.22522852917E+02 -0.37550088497E+01  0.25233375465E+02  0.00000000000E+00 0. -1.
<scales pt_clust_5="13000.00000" pt_clust_6="13000.00000" pt_clust_7="13000.00000" pt_clust_8="13000.00000" pt_clust_9="44.98628" pt_clust_10="24.95242"></scales>
<clustering>
<clus scale="   24.952">  2 10  1 -1</clus>
<clus scale="   44.986">  2  9  1 -1</clus>
<clus scale="   88.884">  7  8 -1 -1</clus>
<clus scale="   89.032">  5  6 -1 -1</clus>
<clus scale="  159.117">  1  7  2 -1</clus>
<clus scale="  159.117">  1  5  2 -1</clus>
</clustering>
</event>
<event>
10    2  0.2445576E-006  0.1177551E+03  0.7546771E-02  0.1255627E+00
          1   -1    0    0  502    0  0.00000000000E+00  0.00000000000E+00  0.46271826920E+03  0.46271826920E+03  0.00000000000E+00 0. -1.
         -1   -1    0    0    0  501 -0.00000000000E+00 -0.00000000000E+00 -0.49977811808E+02  0.49977811808E+02  0.00000000000E+00 0.  1.
         23    2    1    2    0    0  0.27278080644E+02 -0.40171115253E+02  0.11937920010E+03  0.17032422505E+03  0.11136038810E+03 0.  0.
         23    2    1    2    0    0 -0.24206858910E+02  0.16354872774E+02  0.13061036258E+03  0.16191933055E+03  0.91133687031E+02 0.  0.
        -13    1    3    3    0    0  0.29248161907E+01 -0.41010696140E+02  0.13517182979E+03  0.14128643005E+03  0.00000000000E+00 0.  1.
         13    1    3    3    0    0  0.24353264453E+02  0.83958088665E+00 -0.15792629693E+02  0.29037794995E+02  0.00000000000E+00 0. -1.
        -13    1    4    4    0    0 -0.18828538844E+02 -0.18189512127E+02 -0.54410660830E+00  0.26185268347E+02  0.00000000000E+00 0.  1.
         13    1    4    4    0    0 -0.53783200665E+01  0.34544384901E+02  0.13115446919E+03  0.13573406221E+03  0.00000000000E+00 0. -1.
         21    1    1    2  502  503 -0.35569391891E+02  0.29912647981E+00  0.98295313031E+02  0.10453343809E+03  0.00000000000E+00 0. -1.
         21    1    1    2  503  501  0.32498170157E+02  0.23517115999E+02  0.64455581688E+02  0.75919087318E+02  0.00000000000E+00 0.  1.
<scales pt_clust_5="13000.00000" pt_clust_6="13000.00000" pt_clust_7="13000.00000" pt_clust_8="13000.00000" pt_clust_9="35.57065" pt_clust_10="34.79308"></scales>
<clustering>
<clus scale="   35.571">  1  9  2 -1</clus>
<clus scale="   34.793">  1 10  2 -1</clus>
<clus scale="   91.134">  7  8 -1 -1</clus>
<clus scale="   98.846">  1  7  2 -1</clus>
<clus scale="  111.360">  5  6 -1 -1</clus>
<clus scale="   35.571">  1  5  2 -1</clus>
</clustering>
</event>
<event>
10    2  0.2445576E-006  0.1750936E+03  0.7546771E-02  0.1172813E+00
          1   -1    0    0  502    0  0.00000000000E+00  0.00000000000E+00  0.44570851193E+03  0.44570851193E+03  0.00000000000E+00 0. -1.
         -1   -1    0    0    0  501 -0.00000000000E+00 -0.00000000000E+00 -0.36924214714E+03  0.36924214714E+03  0.00000000000E+00 0.  1.
         23    2    1    2    0    0  0.11262167111E+03 -0.12191262593E+03 -0.80557584237E+02  0.20500325717E+03  0.89389495502E+02 0.  0.
         23    2    1    2    0    0 -0.15902516495E+03  0.11817475058E+01 -0.11043142526E+03  0.21382085531E+03  0.90740613096E+02 0.  0.
        -11    1    4    4    0    0 -0.97695997318E+02 -0.68292196507E+01 -0.11589171142E+03  0.15173013843E+03  0.00000000000E+00 0.  1.
         11    1    4    4    0    0 -0.61329167627E+02  0.80109671565E+01  0.54602861595E+01  0.62090716871E+02  0.00000000000E+00 0. -1.
        -13    1    3    3    0    0  0.19487070864E+02  0.12940728776E+02 -0.26580456380E+01  0.23543015923E+02  0.00000000000E+00 0.  1.
         13    1    3    3    0    0  0.93134600242E+02 -0.13485335471E+03 -0.77899538599E+02  0.18146024124E+03  0.00000000000E+00 0. -1.
         21    1    1    2  502  503  0.67628621437E+02  0.97442993396E+02  0.31640819460E+03  0.33790962254E+03  0.00000000000E+00 0. -1.
         21    1    1    2  503  501 -0.21225127598E+02  0.23287885030E+02 -0.48952820304E+02  0.58216924055E+02  0.00000000000E+00 0. -1.
<scales pt_clust_5="13000.00000" pt_clust_6="13000.00000" pt_clust_7="13000.00000" pt_clust_8="13000.00000" pt_clust_9="118.85586" pt_clust_10="31.50923"></scales>
<clustering>
<clus scale="   31.509">  2 10  1 -1</clus>
<clus scale="   89.389">  7  8 -1 -1</clus>
<clus scale="   90.741">  5  6 -1 -1</clus>
<clus scale="  118.856">  1  9  2 -1</clus>
<clus scale="  174.397">  2  7  1 -1</clus>
<clus scale="  118.856">  1  5  2 -1</clus>
</clustering>
</event>
<event>
10    2  0.2445576E-006  0.1051154E+03  0.7546771E-02  0.1284691E+00
          1   -1    0    0  502    0  0.00000000000E+00  0.00000000000E+00  0.32162531626E+03  0.32162531626E+03  0.00000000000E+00 0. -1.
         -1   -1    0    0    0  501 -0.00000000000E+00 -0.00000000000E+00 -0.11909888577E+03  0.11909888577E+03  0.00000000000E+00 0.  1.
         23    2    1    2    0    0  0.77774614726E+02  0.42312456900E+02  0.97848544061E+02  0.14370349733E+03  0.56895719230E+02 0.  0.
         23    2    1    2    0    0 -0.22279732596E+02 -0.10482015397E+01  0.90202638892E+02  0.12901568469E+03  0.89504444711E+02 0.  0.
        -11    1    4    4    0    0  0.27820718127E+02 -0.23899236289E+02  0.42728605689E+02  0.56310741394E+02  0.00000000000E+00 0.  1.
         11    1    4    4    0    0 -0.50100450722E+02  0.22851034749E+02  0.47474033203E+02  0.72704943300E+02  0.00000000000E+00 0. -1.
        -13    1    3    3    0    0  0.64699551663E+02  0.26544650590E+02  0.10113373471E+03  0.12295805283E+03  0.00000000000E+00 0. -1.
         13    1    3    3    0    0  0.13075063062E+02  0.15767806310E+02 -0.32851906491E+01  0.20745444500E+02  0.00000000000E+00 0.  1.
         21    1    1    2  502  503 -0.23923230602E+02 -0.14857400365E+01  0.80908311335E+02  0.84384140862E+02  0.00000000000E+00 0. -1.
         21    1    1    2  503  501 -0.31571651528E+02 -0.39778515324E+02 -0.66433063798E+02  0.83620879134E+02  0.00000000000E+00 0.  1.
<scales pt_clust_5="13000.00000" pt_clust_6="13000.00000" pt_clust_7="13000.00000" pt_clust_8="13000.00000" pt_clust_9="23.96932" pt_clust_10="51.36551"></scales>
<clustering>
<clus scale="   23.969">  1  9  2 -1</clus>
<clus scale="   51.366">  2 10  1 -1</clus>
<clus scale="   56.896">  7  8 -1 -1</clus>
<clus scale="   79.217">  2  7  1 -1</clus>
<clus scale="   89.504">  5  6 -1 -1</clus>
<clus scale="   23.969">  1  5  2 -1</clus>
</clustering>
</event>
<event>
10    2  0.2445576E-006  0.3344981E+03  0.7546771E-02  0.1069318E+00
         -2   -1    0    0    0  501 -0.00000000000E+00  0.00000000000E+00  0.14916243356E+03  0.14916243356E+03  0.00000000000E+00 0.  1.
          2   -1    0    0  502    0  0.00000000000E+00 -0.00000000000E+00 -0.10000105352E+04  0.10000105352E+04  0.00000000000E+00 0. -1.
         23    2    1    2    0    0 -0.30237259443E+03 -0.93282309419E+02 -0.21857005561E+03  0.39500862703E+03  0.90156370277E+02 0.  0.
         23    2    1    2    0    0  0.29995668309E+03  0.14507765441E+03 -0.53083039826E+03  0.63393665160E+03  0.95253498566E+02 0.  0.
        -13    1    4    4    0    0  0.13433576987E+03  0.11414123955E+03 -0.23925548224E+03  0.29718261627E+03  0.00000000000E+00 0.  1.
         13    1    4    4    0    0  0.16562091323E+03  0.30936414867E+02 -0.29157491601E+03  0.33675403533E+03  0.00000000000E+00 0. -1.
        -13    1    3    3    0    0 -0.25202514469E+03 -0.46166076460E+02 -0.14597375633E+03  0.29488356636E+03  0.00000000000E+00 0. -1.
         13    1    3    3    0    0 -0.50347449736E+02 -0.47116232959E+02 -0.72596299285E+02  0.10012506066E+03  0.00000000000E+00 0.  1.
         21    1    1    2  502  503 -0.13082235366E+02 -0.20812352238E+02 -0.67024238078E+02  0.71390107003E+02  0.00000000000E+00 0. -1.
         21    1    1    2  503  501  0.15498146702E+02 -0.30982992756E+02 -0.34423409673E+02  0.48837583118E+02  0.00000000000E+00 0.  1.
<scales pt_clust_5="13000.00000" pt_clust_6="13000.00000" pt_clust_7="13000.00000" pt_clust_8="13000.00000" pt_clust_9="24.58249" pt_clust_10="35.22629"></scales>
<clustering>
<clus scale="   24.582">  2  9  1 -1</clus>
<clus scale="   35.226">  1 10  2 -1</clus>
<clus scale="   90.156">  7  8 -1 -1</clus>
<clus scale="   95.253">  5  6 -1 -1</clus>
<clus scale="  333.082">  1  7  2 -1</clus>
<clus scale="   24.582">  2  5  1 -1</clus>
</clustering>
</event>
<event>
10    2  0.2445576E-006  0.1003379E+03  0.7546771E-02  0.1281558E+00
         -1   -1    0    0    0  501 -0.00000000000E+00  0.00000000000E+00  0.27376888372E+03  0.27376888372E+03  0.00000000000E+00 0.  1.
          1   -1    0    0  502    0  0.00000000000E+00 -0.00000000000E+00 -0.62639032006E+02  0.62639032006E+02  0.00000000000E+00 0. -1.
         23    2    1    2    0    0 -0.11227002358E+02 -0.17064025784E+02  0.86039289910E+02  0.13043587184E+03  0.95882900956E+02 0.  0.
         23    2    1    2    0    0  0.44591410165E+02  0.28651890975E+01  0.85233582528E+02  0.13314649289E+03  0.92014247853E+02 0.  0.
        -11    1    4    4    0    0  0.46636810847E+02  0.39380074558E+02  0.71670063788E+02  0.94140216919E+02  0.00000000000E+00 0. -1.
         11    1    4    4    0    0 -0.20454006825E+01 -0.36514885460E+02  0.13563518741E+02  0.39006275966E+02  0.00000000000E+00 0.  1.
        -11    1    3    3    0    0 -0.28458995774E+02 -0.69294710442E+00  0.99243531564E+02  0.10324569324E+03  0.00000000000E+00 0.  1.
         11    1    3    3    0    0  0.17231993416E+02 -0.16371078680E+02 -0.13204241654E+02  0.27190178593E+02  0.00000000000E+00 0. -1.
         21    1    1    2  502  503 -0.13631664383E+02 -0.14876279865E+02  0.66602189827E+00  0.20188352128E+02  0.00000000000E+00 0. -1.
         21    1    1    2  503  501 -0.19732743423E+02  0.29075116552E+02  0.39190957382E+02  0.52637198881E+02  0.00000000000E+00 0. -1.
<scales pt_clust_5="13000.00000" pt_clust_6="13000.00000" pt_clust_7="13000.00000" pt_clust_8="13000.00000" pt_clust_9="20.17736" pt_clust_10="34.63725"></scales>
<clustering>
<clus scale="   20.177">  2  9  1 -1</clus>
<clus scale="   34.637">  1 10  2 -1</clus>
<clus scale="   92.014">  5  6 -1 -1</clus>
<clus scale="   95.883">  7  8 -1 -1</clus>
<clus scale="   96.648">  2  5  1 -1</clus>
<clus scale="   20.177">  2  5  1 -1</clus>
</clustering>
</event>
<event>
10    2  0.2445576E-006  0.1069097E+03  0.7546771E-02  0.1266605E+00
          1   -1    0    0  502    0  0.00000000000E+00  0.00000000000E+00  0.48112130893E+02  0.48112130893E+02  0.00000000000E+00 0. -1.
         -1   -1    0    0    0  501 -0.00000000000E+00 -0.00000000000E+00 -0.43437542361E+03  0.43437542361E+03  0.00000000000E+00 0.  1.
         23    2    1    2    0    0  0.41551375150E+01 -0.71178748632E+02 -0.20823807473E+03  0.23826032136E+03  0.91220642080E+02 0.  0.
         23    2    1    2    0    0 -0.17423836551E+02  0.36127815499E+02 -0.14699978085E+03  0.17784483181E+03  0.91711719531E+02 0.  0.
        -11    1    4    4    0    0  0.12398424371E+02  0.59981827264E+02 -0.10024608710E+03  0.11747688500E+03  0.00000000000E+00 0. -1.
         11    1    4    4    0    0 -0.29822260922E+02 -0.23854011765E+02 -0.46753693742E+02  0.60367946812E+02  0.00000000000E+00 0.  1.
        -13    1    3    3    0    0  0.31822203223E+02  0.37487476265E+01 -0.34744850235E+02  0.47264260754E+02  0.00000000000E+00 0. -1.
         13    1    3    3    0    0 -0.27667065708E+02 -0.74927496259E+02 -0.17349322450E+03  0.19099606061E+03  0.00000000000E+00 0.  1.
         21    1    1    2  502  503 -0.10940475771E+02  0.22604564462E+02 -0.65531762541E-02  0.25112952586E+02  0.00000000000E+00 0. -1.
         21    1    1    2  503  501  0.24209174806E+02  0.12446368670E+02 -0.31018883966E+02  0.41269448753E+02  0.00000000000E+00 0.  1.
<scales pt_clust_5="13000.00000" pt_clust_6="13000.00000" pt_clust_7="13000.00000" pt_clust_8="13000.00000" pt_clust_9="25.11295" pt_clust_10="27.54724"></scales>
<clustering>
<clus scale="   25.113">  1  9  2 -1</clus>
<clus scale="   27.547">  1 10  2 -1</clus>
<clus scale="   91.221">  7  8 -1 -1</clus>
<clus scale="   91.712">  5  6 -1 -1</clus>
<clus scale="  106.489">  2  7  1 -1</clus>
<clus scale="   25.113">  1  5  2 -1</clus>
</clustering>
</event>
<event>
10    2  0.2445576E-006  0.1076159E+03  0.7546771E-02  0.1269941E+00
          1   -1    0    0  502    0  0.00000000000E+00  0.00000000000E+00  0.53089919142E+03  0.53089919142E+03  0.00000000000E+00 0. -1.
         -1   -1    0    0    0  501 -0.00000000000E+00 -0.00000000000E+00 -0.71766860001E+02  0.71766860001E+02  0.00000000000E+00 0.  1.
         23    2    1    2    0    0 -0.34539738305E+02 -0.42241256685E+02  0.78118397286E+01  0.10653284696E+03  0.91164167047E+02 0.  0.
         23    2    1    2    0    0  0.18172094531E+01  0.28146819763E+02  0.27604709733E+03  0.29548619929E+03  0.10156056476E+03 0.  0.
        -11    1    4    4    0    0  0.24409071917E+02  0.58893872303E+02  0.13381371635E+03  0.14822416021E+03  0.00000000000E+00 0.  1.
         11    1    4    4    0    0 -0.22591862464E+02 -0.30747052540E+02  0.14223338098E+03  0.14726203908E+03  0.00000000000E+00 0. -1.
        -11    1    3    3    0    0 -0.36647523040E+02  0.12270173776E+02  0.28679156710E+02  0.48125794944E+02  0.00000000000E+00 0.  1.
         11    1    3    3    0    0  0.21077847348E+01 -0.54511430461E+02 -0.20867316981E+02  0.58407052018E+02  0.00000000000E+00 0. -1.
         21    1    1    2  502  503  0.26276789895E+02 -0.77497527041E+01  0.17574432741E+03  0.17786679558E+03  0.00000000000E+00 0. -1.
         21    1    1    2  503  501  0.64457389571E+01  0.21844189627E+02 -0.47093304018E+00  0.22780209592E+02  0.00000000000E+00 0.  1.
<scales pt_clust_5="13000.00000" pt_clust_6="13000.00000" pt_clust_7="13000.00000" pt_clust_8="13000.00000" pt_clust_9="27.39878" pt_clust_10="22.77534"></scales>
<clustering>
<clus scale="   22.775">  2 10  1 -1</clus>
<clus scale="   27.399">  1  9  2 -1</clus>
<clus scale="   91.164">  7  8 -1 -1</clus>
<clus scale="   97.865">  2  7  1 -1</clus>
<clus scale="  101.561">  5  6 -1 -1</clus>
<clus scale="   27.399">  1  5  2 -1</clus>
</clustering>
</event>
<event>
10    2  0.2445576E-006  0.1033082E+03  0.7546771E-02  0.1275626E+00
         -1   -1    0    0    0  501 -0.00000000000E+00  0.00000000000E+00  0.26667903655E+03  0.26667903655E+03  0.00000000000E+00 0.  1.
          1   -1    0    0  502    0  0.00000000000E+00 -0.00000000000E+00 -0.22451003222E+03  0.22451003222E+03  0.00000000000E+00 0. -1.
         23    2    1    2    0    0 -0.55789684845E+02 -0.38368339202E+02  0.19736965287E+03  0.22600816618E+03  0.86834860036E+02 0.  0.
         23    2    1    2    0    0  0.38956632303E+02 -0.86031266656E+01 -0.56923490063E+02  0.11494690085E+03  0.91547109754E+02 0.  0.
        -11    1    3    3    0    0 -0.16067707840E+02  0.25470854201E+02  0.90192922397E+02  0.95087848327E+02  0.00000000000E+00 0. -1.
         11    1    3    3    0    0 -0.39721977005E+02 -0.63839193403E+02  0.10717673047E+03  0.13092031785E+03  0.00000000000E+00 0.  1.
        -11    1    4    4    0    0  0.59311344878E+02  0.50609578112E+00 -0.67844371628E+02  0.90116316646E+02  0.00000000000E+00 0. -1.
         11    1    4    4    0    0 -0.20354712575E+02 -0.91092224467E+01  0.10920881565E+02  0.24830584201E+02  0.00000000000E+00 0.  1.
         21    1    1    2  502  503  0.62129019034E+01  0.25117035157E+02 -0.11683110626E+03  0.11966191121E+03  0.00000000000E+00 0.  1.
         21    1    1    2  503  501  0.10620150639E+02  0.21854430710E+02  0.18553947787E+02  0.30572090536E+02  0.00000000000E+00 0. -1.
<scales pt_clust_5="13000.00000" pt_clust_6="13000.00000" pt_clust_7="13000.00000" pt_clust_8="13000.00000" pt_clust_9="26.01298" pt_clust_10="24.29823"></scales>
<clustering>
<clus scale="   24.298">  1 10  2 -1</clus>
<clus scale="   26.013">  2  9  1 -1</clus>
<clus scale="   86.835">  5  6 -1 -1</clus>
<clus scale="   91.547">  7  8 -1 -1</clus>
<clus scale="   99.156">  1  5  2 -1</clus>
<clus scale="   26.013">  2  5  1 -1</clus>
</clustering>
</event>
<event>
10    2  0.2445576E-006  0.1630390E+03  0.7546771E-02  0.1187537E+00
          1   -1    0    0  502    0  0.00000000000E+00  0.00000000000E+00  0.31611801276E+03  0.31611801276E+03  0.00000000000E+00 0. -1.
         -1   -1    0    0    0  501 -0.00000000000E+00 -0.00000000000E+00 -0.23357064977E+03  0.23357064977E+03  0.00000000000E+00 0.  1.
         23    2    1    2    0    0 -0.63325628772E+02 -0.10463837155E+03 -0.20994583610E+02  0.14663878401E+03  0.78120652683E+02 0.  0.
         23    2    1    2    0    0  0.49759820490E+02  0.17361264084E+03  0.90969458567E+02  0.22249410667E+03  0.92794376516E+02 0.  0.
        -11    1    4    4    0    0  0.21535563037E+02  0.12854143933E+03  0.10514514938E+03  0.16745800829E+03  0.00000000000E+00 0. -1.
         11    1    4    4    0    0  0.28224257453E+02  0.45071201510E+02 -0.14175690817E+02  0.55036098376E+02  0.00000000000E+00 0.  1.
        -11    1    3    3    0    0  0.69685907709E+01 -0.59886809821E+02 -0.19251891158E+02  0.63290019443E+02  0.00000000000E+00 0.  1.
         11    1    3    3    0    0 -0.70294219543E+02 -0.44751561732E+02 -0.17426924521E+01  0.83348764571E+02  0.00000000000E+00 0. -1.
         21    1    1    2  502  503 -0.23441926049E+02 -0.65967618139E+02  0.78319749680E+02  0.10504872074E+03  0.00000000000E+00 0.  1.
         21    1    1    2  503  501  0.37007734331E+02 -0.30066511525E+01 -0.65747261648E+02  0.75507051099E+02  0.00000000000E+00 0. -1.
<scales pt_clust_5="13000.00000" pt_clust_6="13000.00000" pt_clust_7="13000.00000" pt_clust_8="13000.00000" pt_clust_9="69.28746" pt_clust_10="37.12967"></scales>
<clustering>
<clus scale="   37.130">  2 10  1 -1</clus>
<clus scale="   69.287">  1  9  2 -1</clus>
<clus scale="   78.121">  7  8 -1 -1</clus>
<clus scale="   92.794">  5  6 -1 -1</clus>
<clus scale="  155.157">  2  7  1 -1</clus>
<clus scale="   69.287">  1  5  2 -1</clus>
</clustering>
</event>
<event>
10    2  0.2445576E-006  0.1732904E+03  0.7546771E-02  0.1175181E+00
          1   -1    0    0  502    0  0.00000000000E+00  0.00000000000E+00  0.12643439892E+04  0.12643439892E+04  0.00000000000E+00 0. -1.
         -1   -1    0    0    0  501 -0.00000000000E+00 -0.00000000000E+00 -0.72370595734E+02  0.72370595734E+02  0.00000000000E+00 0.  1.
         23    2    1    2    0    0  0.98371273896E+01  0.12030451283E+03  0.14300659866E+03  0.20963781782E+03  0.94483768539E+02 0.  0.
         23    2    1    2    0    0 -0.63233860650E+02 -0.24573274976E+03  0.73721655546E+03  0.78474900170E+03  0.89216817810E+02 0.  0.
        -11    1    4    4    0    0 -0.84770642800E+02 -0.21003507143E+03  0.59947601962E+03  0.64083717995E+03  0.00000000000E+00 0. -1.
         11    1    4    4    0    0  0.21536782150E+02 -0.35697678330E+02  0.13774053584E+03  0.14391182174E+03  0.00000000000E+00 0.  1.
        -13    1    3    3    0    0  0.32496782138E+02  0.10110375539E+03  0.61117625253E+02  0.12252907541E+03  0.00000000000E+00 0.  1.
         13    1    3    3    0    0 -0.22659654748E+02  0.19200757443E+02  0.81888973404E+02  0.87108742414E+02  0.00000000000E+00 0. -1.
         21    1    1    2  502  503  0.41220641591E+02  0.74918439937E+02  0.23087270085E+03  0.24619934593E+03  0.00000000000E+00 0. -1.
         21    1    1    2  503  501  0.12176091669E+02  0.50509796995E+02  0.80877538504E+02  0.96128419499E+02  0.00000000000E+00 0. -1.
<scales pt_clust_5="13000.00000" pt_clust_6="13000.00000" pt_clust_7="13000.00000" pt_clust_8="13000.00000" pt_clust_9="141.42166" pt_clust_10="29.33876"></scales>
<clustering>
<clus scale="   29.339">  9 10 -1 -1</clus>
<clus scale="   89.217">  5  6 -1 -1</clus>
<clus scale="   94.484">  7  8 -1 -1</clus>
<clus scale="  141.422">  1  9  2 -1</clus>
<clus scale="  170.476">  1  5  2 -1</clus>
<clus scale="  141.422">  1  5  2 -1</clus>
</clustering>
</event>
<event>
10    2  0.2445576E-006  0.1160973E+03  0.7546771E-02  0.1251052E+00
         -1   -1    0    0    0  501 -0.00000000000E+00  0.00000000000E+00  0.48645342936E+03  0.48645342936E+03  0.00000000000E+00 0.  1.
          1   -1    0    0  502    0  0.00000000000E+00 -0.00000000000E+00 -0.11330624416E+03  0.11330624416E+03  0.00000000000E+00 0. -1.
         23    2    1    2    0    0  0.32084287063E+02  0.52332809990E+01  0.16736435686E+03  0.19486419058E+03  0.94363319759E+02 0.  0.
         23    2    1    2    0    0 -0.11413067807E+03  0.47611483720E+02  0.14411465637E+03  0.21034761657E+03  0.90467787413E+02 0.  0.
        -13    1    3    3    0    0  0.54618867141E+02 -0.33928075454E+01  0.16080164574E+03  0.16985847363E+03  0.00000000000E+00 0.  1.
         13    1    3    3    0    0 -0.22534580078E+02  0.86260885444E+01  0.65627111204E+01  0.25005716949E+02  0.00000000000E+00 0. -1.
        -13    1    4    4    0    0 -0.97708855137E+02 -0.43318111401E+01  0.10346660129E+03  0.14237669242E+03  0.00000000000E+00 0. -1.
         13    1    4    4    0    0 -0.16421822929E+02  0.51943294860E+02  0.40648055073E+02  0.67970924155E+02  0.00000000000E+00 0.  1.
         21    1    1    2  502  503  0.52941418345E+02 -0.44031757899E+02 -0.45905755609E+02  0.82758249608E+02  0.00000000000E+00 0.  1.
         21    1    1    2  503  501  0.29104972658E+02 -0.88130068198E+01  0.10757392758E+03  0.11178961677E+03  0.00000000000E+00 0.  1.
<scales pt_clust_5="13000.00000" pt_clust_6="13000.00000" pt_clust_7="13000.00000" pt_clust_8="13000.00000" pt_clust_9="70.23155" pt_clust_10="30.41001"></scales>
<clustering>
<clus scale="   30.410">  1 10  2 -1</clus>
<clus scale="   70.232">  2  9  1 -1</clus>
<clus scale="   90.468">  7  8 -1 -1</clus>
<clus scale="   94.363">  5  6 -1 -1</clus>
<clus scale="  112.954">  2  7  1 -1</clus>
<clus scale="   70.232">  2  5  1 -1</clus>
</clustering>
</event>
<event>
10    2  0.2445576E-006  0.9452795E+02  0.7546771E-02  0.1293237E+00
          2   -1    0    0  502    0  0.00000000000E+00  0.00000000000E+00  0.95255370161E+03  0.95255370161E+03  0.00000000000E+00 0. -1.
         -2   -1    0    0    0  501 -0.00000000000E+00 -0.00000000000E+00 -0.80610871829E+02  0.80610871829E+02  0.00000000000E+00 0.  1.
         23    2    1    2    0    0 -0.45752230261E+02 -0.18162986652E+02  0.28137893145E+03  0.30027035420E+03  0.92547403473E+02 0.  0.
         23    2    1    2    0    0 -0.20927297141E+00  0.97085759586E+01  0.45570386834E+03  0.46475819566E+03  0.90773699786E+02 0.  0.
        -11    1    3    3    0    0 -0.43950376062E+02 -0.50892971150E+02  0.14240706531E+03  0.15748492727E+03  0.00000000000E+00 0.  1.
         11    1    3    3    0    0 -0.18018541987E+01  0.32729984498E+02  0.13897186614E+03  0.14278542693E+03  0.00000000000E+00 0. -1.
        -13    1    4    4    0    0  0.20529844899E+02 -0.34712700809E+02  0.15919652590E+03  0.16422539385E+03  0.00000000000E+00 0.  1.
         13    1    4    4    0    0 -0.20739117870E+02  0.44421276767E+02  0.29650734244E+03  0.30053280181E+03  0.00000000000E+00 0. -1.
         21    1    1    2  502  503  0.61123494193E+02  0.55767763606E+02  0.18182642903E+03  0.19976730286E+03  0.00000000000E+00 0. -1.
         21    1    1    2  503  501 -0.15161990961E+02 -0.47313352913E+02 -0.46966399036E+02  0.68368720714E+02  0.00000000000E+00 0.  1.
<scales pt_clust_5="13000.00000" pt_clust_6="13000.00000" pt_clust_7="13000.00000" pt_clust_8="13000.00000" pt_clust_9="66.59968" pt_clust_10="49.68339"></scales>
<clustering>
<clus scale="   49.683">  2 10  1 -1</clus>
<clus scale="   66.600">  2  9  1 -1</clus>
<clus scale="   90.774">  7  8 -1 -1</clus>
<clus scale="   92.547">  5  6 -1 -1</clus>
<clus scale="   92.792">  1  7  2 -1</clus>
<clus scale="   92.792">  1  5  2 -1</clus>
</clustering>
</event>
<event>
10    2  0.2445576E-006  0.1327526E+03  0.7546771E-02  0.1234498E+00
          2   -1    0    0  502    0  0.00000000000E+00  0.00000000000E+00  0.37480405030E+03  0.37480405030E+03  0.00000000000E+00 0. -1.
         -2   -1    0    0    0  501 -0.00000000000E+00 -0.00000000000E+00 -0.20078571393E+03  0.20078571393E+03  0.00000000000E+00 0.  1.
         23    2    1    2    0    0 -0.25541474151E+02  0.57264374496E+02 -0.26778423995E+02  0.11254930836E+03  0.89547123534E+02 0.  0.
         23    2    1    2    0    0 -0.93583240784E+02  0.18025758868E+02  0.26361152425E+03  0.29485185389E+03  0.91453972505E+02 0.  0.
        -11    1    3    3    0    0  0.17291482657E+02  0.57271627322E+02  0.37623371817E+01  0.59943221883E+02  0.00000000000E+00 0. -1.
         11    1    3    3    0    0 -0.42832956808E+02 -0.72528264106E-02 -0.30540761177E+02  0.52606086481E+02  0.00000000000E+00 0.  1.
        -13    1    4    4    0    0  0.99031435603E+01  0.24924438632E+02  0.74280055626E+02  0.78973581388E+02  0.00000000000E+00 0.  1.
         13    1    4    4    0    0 -0.10348638434E+03 -0.68986797648E+01  0.18933146862E+03  0.21587827250E+03  0.00000000000E+00 0. -1.
         21    1    1    2  502  503  0.85473776482E+02 -0.70476334230E+02 -0.18466302681E+02  0.11231066061E+03  0.00000000000E+00 0.  1.
         21    1    1    2  503  501  0.33650938453E+02 -0.48137991334E+01 -0.44348461202E+02  0.55877941371E+02  0.00000000000E+00 0.  1.
<scales pt_clust_5="13000.00000" pt_clust_6="13000.00000" pt_clust_7="13000.00000" pt_clust_8="13000.00000" pt_clust_9="96.22589" pt_clust_10="33.99350"></scales>
<clustering>
<clus scale="   33.994">  2 10  1 -1</clus>
<clus scale="   89.547">  5  6 -1 -1</clus>
<clus scale="   91.454">  7  8 -1 -1</clus>
<clus scale="  105.582">  2  5  1 -1</clus>
<clus scale="   96.226">  2  9  1 -1</clus>
<clus scale="  132.753">  1  5  2 -1</clus>
</clustering>
</event>
<event>
10    2  0.2445576E-006  0.1372460E+03  0.7546771E-02  0.1217705E+00
          1   -1    0    0  502    0  0.00000000000E+00  0.00000000000E+00  0.50994162826E+03  0.50994162826E+03  0.00000000000E+00 0. -1.
         -1   -1    0    0    0  501 -0.00000000000E+00 -0.00000000000E+00 -0.10755978206E+03  0.10755978206E+03  0.00000000000E+00 0.  1.
         23    2    1    2    0    0  0.10872225717E+03 -0.71019388522E+02  0.51900111191E+02  0.16801975697E+03  0.93127517094E+02 0.  0.
         23    2    1    2    0    0 -0.17098922984E+01  0.91177815906E+02  0.99662085987E+02  0.16258680858E+03  0.90474422329E+02 0.  0.
        -13    1    3    3    0    0  0.56169352068E+02 -0.84506053560E+02  0.51434435487E+02  0.11376190203E+03  0.00000000000E+00 0.  1.
         13    1    3    3    0    0  0.52552905104E+02  0.13486665037E+02  0.46567570368E+00  0.54257854939E+02  0.00000000000E+00 0. -1.
        -13    1    4    4    0    0 -0.33514573524E+02  0.24731804680E+02  0.39936292497E+01  0.41843014660E+02  0.00000000000E+00 0.  1.
         13    1    4    4    0    0  0.31804681225E+02  0.66446011226E+02  0.95668456737E+02  0.12074379392E+03  0.00000000000E+00 0. -1.
         21    1    1    2  502  503 -0.10949882851E+03  0.44944197059E+00  0.23928203035E+03  0.26314650956E+03  0.00000000000E+00 0.  1.
         21    1    1    2  503  501  0.24864636398E+01 -0.20607869355E+02  0.11537618668E+02  0.23748335211E+02  0.00000000000E+00 0.  1.
<scales pt_clust_5="13000.00000" pt_clust_6="13000.00000" pt_clust_7="13000.00000" pt_clust_8="13000.00000" pt_clust_9="109.22424" pt_clust_10="20.75733"></scales>
<clustering>
<clus scale="   20.757">  2 10  1 -1</clus>
<clus scale="   90.474">  7  8 -1 -1</clus>
<clus scale="   93.128">  5  6 -1 -1</clus>
<clus scale="  109.224">  1  9  2 -1</clus>
<clus scale="  135.460">  1  7  2 -1</clus>
<clus scale="  109.224">  1  5  2 -1</clus>
</clustering>
</event>
<event>
10    2  0.2445576E-006  0.1102957E+03  0.7546771E-02  0.1260174E+00
          1   -1    0    0  502    0  0.00000000000E+00  0.00000000000E+00  0.43765591350E+02  0.43765591350E+02  0.00000000000E+00 0. -1.
         -1   -1    0    0    0  501 -0.00000000000E+00 -0.00000000000E+00 -0.54613072855E+03  0.54613072855E+03  0.00000000000E+00 0.  1.
         23    2    1    2    0    0 -0.15865833881E+02  0.84895080284E+02 -0.24946256423E+03  0.27929099665E+03  0.91175602660E+02 0.  0.
         23    2    1    2    0    0  0.20875248669E+01 -0.39866833995E+02 -0.18777788347E+03  0.21269500674E+03  0.91569155077E+02 0.  0.
        -11    1    4    4    0    0 -0.11957083730E+02 -0.67101630354E+02 -0.14329567403E+03  0.15867971151E+03  0.00000000000E+00 0. -1.
         11    1    4    4    0    0  0.14044608596E+02  0.27234796359E+02 -0.44482209434E+02  0.54015295236E+02  0.00000000000E+00 0.  1.
        -13    1    3    3    0    0 -0.28437985459E+02  0.10587549370E+02 -0.16710387930E+02  0.34641770789E+02  0.00000000000E+00 0. -1.
         13    1    3    3    0    0  0.12572151577E+02  0.74307530914E+02 -0.23275217630E+03  0.24464922586E+03  0.00000000000E+00 0.  1.
         21    1    1    2  502  503  0.15619456135E+02 -0.16774724934E+02  0.39495015495E+01  0.23258490257E+02  0.00000000000E+00 0. -1.
         21    1    1    2  503  501 -0.18411471205E+01 -0.28253521355E+02 -0.69074191056E+02  0.74651826245E+02  0.00000000000E+00 0.  1.
<scales pt_clust_5="13000.00000" pt_clust_6="13000.00000" pt_clust_7="13000.00000" pt_clust_8="13000.00000" pt_clust_9="22.92071" pt_clust_10="29.80720"></scales>
<clustering>
<clus scale="   22.921">  1  9  2 -1</clus>
<clus scale="   29.807">  2 10  1 -1</clus>
<clus scale="   91.176">  7  8 -1 -1</clus>
<clus scale="   91.569">  5  6 -1 -1</clus>
<clus scale="  109.969">  2  7  1 -1</clus>
<clus scale="   22.921">  1  5  2 -1</clus>
</clustering>
</event>
<event>
10    2  0.2445576E-006  0.1442871E+03  0.7546771E-02  0.1207834E+00
         -1   -1    0    0    0  501 -0.00000000000E+00  0.00000000000E+00  0.47377126794E+03  0.47377126794E+03  0.00000000000E+00 0.  1.
          1   -1    0    0  503    0  0.00000000000E+00 -0.00000000000E+00 -0.10458473135E+03  0.10458473135E+03  0.00000000000E+00 0. -1.
         23    2    1    2    0    0  0.79262874822E+02 -0.90608061140E+02  0.34547997500E+03  0.37699428124E+03  0.90971703804E+02 0.  0.
         23    2    1    2    0    0 -0.25351257390E+02  0.96496159497E+02  0.64590044004E+01  0.13464648337E+03  0.90187369940E+02 0.  0.
        -13    1    3    3    0    0  0.64223753375E+02 -0.64434060795E+02  0.33144581510E+03  0.34370447631E+03  0.00000000000E+00 0.  1.
         13    1    3    3    0    0  0.15039121447E+02 -0.26174000345E+02  0.14034159894E+02  0.33289804925E+02  0.00000000000E+00 0. -1.
        -13    1    4    4    0    0 -0.43836282027E+02  0.59420650672E+02 -0.29765937797E+02  0.79614347960E+02  0.00000000000E+00 0. -1.
         13    1    4    4    0    0  0.18485024637E+02  0.37075508826E+02  0.36224942197E+02  0.55032135409E+02  0.00000000000E+00 0.  1.
         21    1    1    2  502  501 -0.23800678341E+02 -0.11796075733E+02  0.23422355347E+02  0.35415059258E+02  0.00000000000E+00 0.  1.
         21    1    1    2  503  502 -0.30110939091E+02  0.59079773765E+01 -0.61747981483E+01  0.31300175427E+02  0.00000000000E+00 0. -1.
<scales pt_clust_5="13000.00000" pt_clust_6="13000.00000" pt_clust_7="13000.00000" pt_clust_8="13000.00000" pt_clust_9="26.56350" pt_clust_10="31.28448"></scales>
<clustering>
<clus scale="   26.564">  1  9  2 -1</clus>
<clus scale="   31.284">  2 10  1 -1</clus>
<clus scale="   90.187">  7  8 -1 -1</clus>
<clus scale="   90.972">  5  6 -1 -1</clus>
<clus scale="  143.794">  2  7  1 -1</clus>
<clus scale="   31.284">  2  5  1 -1</clus>
</clustering>
</event>
<event>
10    2  0.2445576E-006  0.1531922E+03  0.7546771E-02  0.1197949E+00
         -2   -1    0    0    0  501 -0.00000000000E+00  0.00000000000E+00  0.19361893846E+03  0.19361893846E+03  0.00000000000E+00 0. -1.
          2   -1    0    0  502    0  0.00000000000E+00 -0.00000000000E+00 -0.21081988806E+03  0.21081988806E+03  0.00000000000E+00 0.  1.
         23    2    1    2    0    0 -0.56345964502E+02 -0.90461774535E+02  0.12947626915E+02  0.13636151156E+03  0.84075088021E+02 0.  0.
         23    2    1    2    0    0  0.23999587082E+02  0.13927389580E+03 -0.40339653730E+02  0.17322310636E+03  0.91682924699E+02 0.  0.
        -11    1    4    4    0    0 -0.52400150530E+01  0.13135530337E+03 -0.12452132033E+02  0.13204820738E+03  0.00000000000E+00 0. -1.
         11    1    4    4    0    0  0.29239602135E+02  0.79185924318E+01 -0.27887521697E+02  0.41174898974E+02  0.00000000000E+00 0.  1.
        -13    1    3    3    0    0 -0.21990914329E+02  0.50417656211E+00  0.30447611584E+02  0.37562102686E+02  0.00000000000E+00 0. -1.
         13    1    3    3    0    0 -0.34355050173E+02 -0.90965951097E+02 -0.17499984668E+02  0.98799408878E+02  0.00000000000E+00 0.  1.
         21    1    1    2  502  503  0.55565777300E+02 -0.43144707418E+02  0.90110691625E+01  0.70924049184E+02  0.00000000000E+00 0.  1.
         21    1    1    2  503  501 -0.23219399880E+02 -0.56674138481E+01  0.11800080512E+01  0.23930159413E+02  0.00000000000E+00 0. -1.
<scales pt_clust_5="13000.00000" pt_clust_6="13000.00000" pt_clust_7="13000.00000" pt_clust_8="13000.00000" pt_clust_9="67.19533" pt_clust_10="23.90105"></scales>
<clustering>
<clus scale="   23.901">  1 10  2 -1</clus>
<clus scale="   67.195">  1  9  2 -1</clus>
<clus scale="   84.075">  7  8 -1 -1</clus>
<clus scale="   91.683">  5  6 -1 -1</clus>
<clus scale="  148.764">  1  7  2 -1</clus>
<clus scale="  153.192">  2  5  1 -1</clus>
</clustering>
</event>
<event>
10    2  0.2445576E-006  0.1142859E+03  0.7546771E-02  0.1253340E+00
         -1   -1    0    0    0  501 -0.00000000000E+00  0.00000000000E+00  0.15958562624E+03  0.15958562624E+03  0.00000000000E+00 0.  1.
          1   -1    0    0  502    0  0.00000000000E+00 -0.00000000000E+00 -0.16227466014E+03  0.16227466014E+03  0.00000000000E+00 0. -1.
         23    2    1    2    0    0  0.51490181229E+02 -0.33963350321E+02  0.98577312488E+01  0.10975864559E+03  0.90249861426E+02 0.  0.
         23    2    1    2    0    0 -0.79187826297E+02 -0.34314253861E+00 -0.18842027009E+02  0.12260321471E+03  0.91682586653E+02 0.  0.
        -11    1    4    4    0    0 -0.12429116894E+02 -0.25697672737E+02  0.25724254419E+02  0.38426430959E+02  0.00000000000E+00 0.  1.
         11    1    4    4    0    0 -0.66758709403E+02  0.25354530198E+02 -0.44566281427E+02  0.84176783753E+02  0.00000000000E+00 0. -1.
        -13    1    3    3    0    0 -0.13855746637E+02 -0.39670652906E+02  0.13295454474E+02  0.44073932506E+02  0.00000000000E+00 0.  1.
         13    1    3    3    0    0  0.65345927865E+02  0.57073025849E+01 -0.34377232250E+01  0.65684713080E+02  0.00000000000E+00 0. -1.
         21    1    1    2  502  503 -0.75343279516E+01 -0.19460616120E+02 -0.10062657352E+02  0.23167622891E+02  0.00000000000E+00 0. -1.
         21    1    1    2  503  501  0.35231973020E+02  0.53767108980E+02  0.16357919219E+02  0.66330803192E+02  0.00000000000E+00 0. -1.
<scales pt_clust_5="13000.00000" pt_clust_6="13000.00000" pt_clust_7="13000.00000" pt_clust_8="13000.00000" pt_clust_9="20.86820" pt_clust_10="60.78618"></scales>
<clustering>
<clus scale="   20.868">  2  9  1 -1</clus>
<clus scale="   60.786">  1 10  2 -1</clus>
<clus scale="   90.250">  7  8 -1 -1</clus>
<clus scale="   91.683">  5  6 -1 -1</clus>
<clus scale="  113.140">  1  7  2 -1</clus>
<clus scale="   20.868">  2  5  1 -1</clus>
</clustering>
</event>
<event>
10    2  0.2445576E-006  0.9428588E+02  0.7546771E-02  0.1293903E+00
         -3   -1    0    0    0  501 -0.00000000000E+00  0.00000000000E+00  0.25091264899E+03  0.25091264899E+03  0.00000000000E+00 0.  1.
          3   -1    0    0  502    0  0.00000000000E+00 -0.00000000000E+00 -0.10612329367E+03  0.10612329367E+03  0.00000000000E+00 0. -1.
         23    2    1    2    0    0 -0.98231757860E+01 -0.28254745661E+02  0.48751769669E+02  0.10745606696E+03  0.90968378278E+02 0.  0.
         23    2    1    2    0    0 -0.72092998283E+01 -0.44243058086E+02 -0.31478633593E+01  0.10322289618E+03  0.92928117695E+02 0.  0.
        -11    1    4    4    0    0 -0.45226595555E+02 -0.19909674060E+02 -0.22270274238E+02  0.54201523792E+02  0.00000000000E+00 0. -1.
         11    1    4    4    0    0  0.38017295727E+02 -0.24333384026E+02  0.19122410879E+02  0.49021372384E+02  0.00000000000E+00 0.  1.
        -11    1    3    3    0    0  0.22720283461E+02  0.21907922249E+02  0.32910155852E+02  0.45598757615E+02  0.00000000000E+00 0. -1.
         11    1    3    3    0    0 -0.32543459247E+02 -0.50162667910E+02  0.15841613817E+02  0.61857309349E+02  0.00000000000E+00 0.  1.
         21    1    1    2  502  503 -0.50840354057E+01  0.72203841294E+02  0.38967288490E+02  0.82205180407E+02  0.00000000000E+00 0.  1.
         21    1    1    2  503  501  0.22116511020E+02  0.29396245291E+00  0.60218160517E+02  0.64151799115E+02  0.00000000000E+00 0. -1.
<scales pt_clust_5="13000.00000" pt_clust_6="13000.00000" pt_clust_7="13000.00000" pt_clust_8="13000.00000" pt_clust_9="72.32631" pt_clust_10="22.11846"></scales>
<clustering>
<clus scale="   22.118">  1 10  2 -1</clus>
<clus scale="   72.326">  1  9  2 -1</clus>
<clus scale="   90.968">  7  8 -1 -1</clus>
<clus scale="   92.355">  1  7  2 -1</clus>
<clus scale="   92.928">  5  6 -1 -1</clus>
<clus scale="   94.286">  2  5  1 -1</clus>
</clustering>
</event>
<event>
10    2  0.2445576E-006  0.1005963E+03  0.7546771E-02  0.1279887E+00
          1   -1    0    0  502    0  0.00000000000E+00  0.00000000000E+00  0.24135594815E+03  0.24135594815E+03  0.00000000000E+00 0. -1.
         -1   -1    0    0    0  501 -0.00000000000E+00 -0.00000000000E+00 -0.31538957100E+03  0.31538957100E+03  0.00000000000E+00 0.  1.
         23    2    1    2    0    0  0.54986393120E+02  0.27302216514E+02 -0.20056679999E+03  0.22843073882E+03  0.90469037401E+02 0.  0.
         23    2    1    2    0    0 -0.13770105868E+02 -0.39170683614E+02  0.12514418084E+03  0.16089883798E+03  0.92213945770E+02 0.  0.
        -13    1    4    4    0    0  0.25457937910E+02 -0.38254287674E+02  0.22812602766E+02  0.51302163435E+02  0.00000000000E+00 0.  1.
         13    1    4    4    0    0 -0.39228043779E+02 -0.91639594018E+00  0.10233157807E+03  0.10959667454E+03  0.00000000000E+00 0. -1.
        -13    1    3    3    0    0  0.74152436855E+01  0.27159803784E+02 -0.16902234192E+03  0.17135108067E+03  0.00000000000E+00 0.  1.
         13    1    3    3    0    0  0.47571149434E+02  0.14241272956E+00 -0.31544458070E+02  0.57079658153E+02  0.00000000000E+00 0. -1.
         21    1    1    2  502  503 -0.18839574747E+02  0.18122110442E+02  0.80670444651E+02  0.84800124432E+02  0.00000000000E+00 0.  1.
         21    1    1    2  503  501 -0.22376712504E+02 -0.62536433409E+01 -0.79281448351E+02  0.82615817918E+02  0.00000000000E+00 0.  1.
<scales pt_clust_5="13000.00000" pt_clust_6="13000.00000" pt_clust_7="13000.00000" pt_clust_8="13000.00000" pt_clust_9="26.24523" pt_clust_10="23.23414"></scales>
<clustering>
<clus scale="   23.234">  2 10  1 -1</clus>
<clus scale="   26.245">  1  9  2 -1</clus>
<clus scale="   90.469">  7  8 -1 -1</clus>
<clus scale="   92.214">  5  6 -1 -1</clus>
<clus scale="   98.999">  2  7  1 -1</clus>
<clus scale="   26.245">  1  5  2 -1</clus>
</clustering>
</event>
<event>
10    2  0.2445576E-006  0.1672088E+03  0.7546771E-02  0.1191043E+00
         -1   -1    0    0    0  501 -0.00000000000E+00  0.00000000000E+00  0.45904980999E+03  0.45904980999E+03  0.00000000000E+00 0.  1.
          1   -1    0    0  502    0  0.00000000000E+00 -0.00000000000E+00 -0.29890988287E+03  0.29890988287E+03  0.00000000000E+00 0. -1.
         23    2    1    2    0    0  0.10502056043E+02 -0.94396373702E+02 -0.48644587786E+02  0.14001982406E+03  0.90654766340E+02 0.  0.
         23    2    1    2    0    0  0.49495390619E+02  0.64151040111E+02  0.34739057649E+02  0.12793782067E+03  0.92715339568E+02 0.  0.
        -13    1    3    3    0    0  0.43980453345E+02 -0.19387295693E+02 -0.93556223644E+01  0.48966061517E+02  0.00000000000E+00 0.  1.
         13    1    3    3    0    0 -0.33478397302E+02 -0.75009078009E+02 -0.39288965421E+02  0.91053762544E+02  0.00000000000E+00 0. -1.
        -13    1    4    4    0    0  0.10240690904E+02  0.66313664898E+02 -0.10595246992E+02  0.67931091271E+02  0.00000000000E+00 0.  1.
         13    1    4    4    0    0  0.39254699715E+02 -0.21626247874E+01  0.45334304641E+02  0.60006729397E+02  0.00000000000E+00 0. -1.
         21    1    1    2  502  503  0.92351512364E+02 -0.22540284273E+02 -0.12093946040E+03  0.15382853875E+03  0.00000000000E+00 0. -1.
         21    1    1    2  503  501 -0.15234895903E+03  0.52785617863E+02  0.29498491765E+03  0.33617350939E+03  0.00000000000E+00 0.  1.
<scales pt_clust_5="13000.00000" pt_clust_6="13000.00000" pt_clust_7="13000.00000" pt_clust_8="13000.00000" pt_clust_9="95.06243" pt_clust_10="140.50088"></scales>
<clustering>
<clus scale="   90.655">  5  6 -1 -1</clus>
<clus scale="   92.715">  7  8 -1 -1</clus>
<clus scale="   95.062">  2  9  1 -1</clus>
<clus scale="  133.103">  2  7  1 -1</clus>
<clus scale="  140.501">  1 10  2 -1</clus>
<clus scale="   95.062">  2  5  1 -1</clus>
</clustering>
</event>
<event>
10    2  0.2445576E-006  0.1517335E+03  0.7546771E-02  0.1213229E+00
          2   -1    0    0  502    0  0.00000000000E+00  0.00000000000E+00  0.84949918603E+03  0.84949918603E+03  0.00000000000E+00 0. -1.
         -2   -1    0    0    0  501 -0.00000000000E+00 -0.00000000000E+00 -0.45248176759E+02  0.45248176759E+02  0.00000000000E+00 0.  1.
         23    2    1    2    0    0 -0.13304810669E+02  0.52705878972E+02  0.31854536083E+03  0.34369393018E+03  0.11704462002E+03 0.  0.
         23    2    1    2    0    0 -0.33328197991E+02  0.54266730584E+02  0.35421166752E+03  0.37095863491E+03  0.89937514878E+02 0.  0.
        -11    1    3    3    0    0 -0.51830198866E+02  0.28604774195E+02  0.73040387400E+02  0.94018619501E+02  0.00000000000E+00 0.  1.
         11    1    3    3    0    0  0.38525388197E+02  0.24101104776E+02  0.24550497343E+03  0.24967531068E+03  0.00000000000E+00 0. -1.
        -13    1    4    4    0    0  0.14837739103E+02 -0.17707322238E+02  0.61148815535E+02  0.65367311432E+02  0.00000000000E+00 0. -1.
         13    1    4    4    0    0 -0.48165937094E+02  0.71974052821E+02  0.29306285198E+03  0.30559132348E+03  0.00000000000E+00 0.  1.
         21    1    1    2  502  503  0.50858123263E+02 -0.73960086624E+02  0.97292482076E+02  0.13237246762E+03  0.00000000000E+00 0.  1.
         21    1    1    2  503  501 -0.42251146022E+01 -0.33012522931E+02  0.34201498848E+02  0.47722330068E+02  0.00000000000E+00 0.  1.
<scales pt_clust_5="13000.00000" pt_clust_6="13000.00000" pt_clust_7="13000.00000" pt_clust_8="13000.00000" pt_clust_9="104.15997" pt_clust_10="23.78474"></scales>
<clustering>
<clus scale="   23.785">  9 10 -1 -1</clus>
<clus scale="   89.938">  7  8 -1 -1</clus>
<clus scale="  110.202">  1  7  2 -1</clus>
<clus scale="  104.160">  2  9  1 -1</clus>
<clus scale="  117.045">  5  6 -1 -1</clus>
<clus scale="  110.202">  1  5  2 -1</clus>
</clustering>
</event>
<event>
10    2  0.2445576E-006  0.2676720E+03  0.7546771E-02  0.1123839E+00
         -1   -1    0    0    0  501 -0.00000000000E+00  0.00000000000E+00  0.38083360231E+03  0.38083360231E+03  0.00000000000E+00 0.  1.
          1   -1    0    0  502    0  0.00000000000E+00 -0.00000000000E+00 -0.56980419845E+03  0.56980419845E+03  0.00000000000E+00 0. -1.
         23    2    1    2    0    0  0.31901098295E+03 -0.22874448330E+02  0.17880261385E+03  0.37736236822E+03  0.90226019541E+02 0.  0.
         23    2    1    2    0    0 -0.11481821522E+03  0.24944981306E+01 -0.21253523110E+03  0.25755882892E+03  0.89307787058E+02 0.  0.
        -11    1    4    4    0    0 -0.19498764401E+02  0.20123669410E+02 -0.49484587013E+01  0.28454369211E+02  0.00000000000E+00 0.  1.
         11    1    4    4    0    0 -0.95319450824E+02 -0.17629171279E+02 -0.20758677240E+03  0.22910445971E+03  0.00000000000E+00 0. -1.
        -13    1    3    3    0    0  0.27558151980E+03  0.11469720236E+02  0.16011444399E+03  0.31892532623E+03  0.00000000000E+00 0.  1.
         13    1    3    3    0    0  0.43429463146E+02 -0.34344168566E+02  0.18688169861E+02  0.58437041988E+02  0.00000000000E+00 0. -1.
         21    1    1    2  502  503 -0.25289585445E+02 -0.90671063119E+01 -0.12989421001E+03  0.13264343686E+03  0.00000000000E+00 0. -1.
         21    1    1    2  503  501 -0.17890318228E+03  0.29447056511E+02 -0.25343768889E+02  0.18307316676E+03  0.00000000000E+00 0. -1.
<scales pt_clust_5="13000.00000" pt_clust_6="13000.00000" pt_clust_7="13000.00000" pt_clust_8="13000.00000" pt_clust_9="26.86588" pt_clust_10="252.00708"></scales>
<clustering>
<clus scale="   26.866">  2  9  1 -1</clus>
<clus scale="   89.308">  5  6 -1 -1</clus>
<clus scale="   90.226">  7  8 -1 -1</clus>
<clus scale="  156.400">  2  5  1 -1</clus>
<clus scale="  252.007">  2 10  1 -1</clus>
<clus scale="   26.866">  2  5  1 -1</clus>
</clustering>
</event>
<event>
10    2  0.2445576E-006  0.1080938E+03  0.7546771E-02  0.1264973E+00
         -2   -1    0    0    0  501 -0.00000000000E+00  0.00000000000E+00  0.49008836529E+03  0.49008836529E+03  0.00000000000E+00 0.  1.
          2   -1    0    0  502    0  0.00000000000E+00 -0.00000000000E+00 -0.64481394497E+02  0.64481394497E+02  0.00000000000E+00 0. -1.
         23    2    1    2    0    0  0.23913658706E+01 -0.48144967441E+02  0.34836012249E+03  0.36407260161E+03  0.94182948453E+02 0.  0.
         23    2    1    2    0    0  0.57969995934E+01  0.36130636772E+02  0.54440190522E+02  0.11313646677E+03  0.92179703030E+02 0.  0.
        -11    1    3    3    0    0  0.25858751481E+02 -0.58415297052E+02  0.31798211587E+03  0.32433570259E+03  0.00000000000E+00 0.  1.
         11    1    3    3    0    0 -0.23467385611E+02  0.10270329610E+02  0.30378006617E+02  0.39736899020E+02  0.00000000000E+00 0. -1.
        -11    1    4    4    0    0  0.32130792454E+02 -0.18839948251E+02  0.28471392567E+02  0.46882317226E+02  0.00000000000E+00 0. -1.
         11    1    4    4    0    0 -0.26333792860E+02  0.54970585023E+02  0.25968797955E+02  0.66254149541E+02  0.00000000000E+00 0.  1.
         21    1    1    2  502  503  0.12301696879E+02  0.26323360196E+02 -0.14487092320E+02  0.32467320216E+02  0.00000000000E+00 0. -1.
         21    1    1    2  503  501 -0.20490062343E+02 -0.14309029526E+02  0.37293750101E+02  0.44893371196E+02  0.00000000000E+00 0.  1.
<scales pt_clust_5="13000.00000" pt_clust_6="13000.00000" pt_clust_7="13000.00000" pt_clust_8="13000.00000" pt_clust_9="28.62383" pt_clust_10="24.99182"></scales>
<clustering>
<clus scale="   24.992">  1 10  2 -1</clus>
<clus scale="   28.624">  2  9  1 -1</clus>
<clus scale="   92.180">  7  8 -1 -1</clus>
<clus scale="   94.183">  5  6 -1 -1</clus>
<clus scale="  106.353">  2  7  1 -1</clus>
<clus scale="   28.624">  2  5  1 -1</clus>
</clustering>
</event>
<event>
10    2  0.2445576E-006  0.1009092E+03  0.7546771E-02  0.1280624E+00
         -2   -1    0    0    0  501 -0.00000000000E+00  0.00000000000E+00  0.75290185303E+02  0.75290185303E+02  0.00000000000E+00 0.  1.
          2   -1    0    0  502    0  0.00000000000E+00 -0.00000000000E+00 -0.40025830075E+03  0.40025830075E+03  0.00000000000E+00 0. -1.
         23    2    1    2    0    0  0.64745932214E+02 -0.18737886279E+02 -0.18821398966E+02  0.11161645884E+03  0.86953117859E+02 0.  0.
         23    2    1    2    0    0  0.20519404689E+02  0.36760485888E+01 -0.14414646739E+03  0.17205298019E+03  0.91594020703E+02 0.  0.
        -13    1    4    4    0    0  0.22466630221E+02 -0.36507901555E+02 -0.11396144933E+03  0.12175708720E+03  0.00000000000E+00 0.  1.
         13    1    4    4    0    0 -0.19472255314E+01  0.40183950144E+02 -0.30185018060E+02  0.50295892990E+02  0.00000000000E+00 0. -1.
        -13    1    3    3    0    0  0.75462498980E+01 -0.20282851966E+02  0.29593276742E+02  0.36661996669E+02  0.00000000000E+00 0.  1.
         13    1    3    3    0    0  0.57199682316E+02  0.15449656874E+01 -0.48414675708E+02  0.74954462176E+02  0.00000000000E+00 0. -1.
         21    1    1    2  502  503 -0.23172863249E+02  0.55643899659E+01 -0.10292964884E+03  0.10565252783E+03  0.00000000000E+00 0.  1.
         21    1    1    2  503  501 -0.62092473654E+02  0.94974477244E+01 -0.59070600255E+02  0.86226519194E+02  0.00000000000E+00 0. -1.
<scales pt_clust_5="13000.00000" pt_clust_6="13000.00000" pt_clust_7="13000.00000" pt_clust_8="13000.00000" pt_clust_9="23.83158" pt_clust_10="68.64554"></scales>
<clustering>
<clus scale="   23.832">  2  9  1 -1</clus>
<clus scale="   68.646">  2 10  1 -1</clus>
<clus scale="   86.953">  7  8 -1 -1</clus>
<clus scale="   91.594">  5  6 -1 -1</clus>
<clus scale="   96.716">  1  7  2 -1</clus>
<clus scale="   23.832">  2  5  1 -1</clus>
</clustering>
</event>
<event>
10    2  0.2445576E-006  0.1168195E+03  0.7546771E-02  0.1249384E+00
          2   -1    0    0  502    0  0.00000000000E+00  0.00000000000E+00  0.13128820234E+04  0.13128820234E+04  0.00000000000E+00 0. -1.
         -2   -1    0    0    0  501 -0.00000000000E+00 -0.00000000000E+00 -0.77578684903E+02  0.77578684903E+02  0.00000000000E+00 0.  1.
         23    2    1    2    0    0 -0.90421693328E+02 -0.40330751087E+01  0.34597953661E+03  0.36893574410E+03  0.90660880220E+02 0.  0.
         23    2    1    2    0    0  0.42907123169E+02  0.55206838664E+02  0.56593434524E+03  0.57783817193E+03  0.93415488850E+02 0.  0.
        -11    1    4    4    0    0 -0.28800155862E+02  0.27449217146E+02  0.19010715689E+03  0.19422574392E+03  0.00000000000E+00 0. -1.
         11    1    4    4    0    0  0.71707279031E+02  0.27757621518E+02  0.37582718835E+03  0.38361242801E+03  0.00000000000E+00 0.  1.
        -13    1    3    3    0    0 -0.77301750623E+02  0.32480458010E+02  0.18134711812E+03  0.19979318821E+03  0.00000000000E+00 0.  1.
         13    1    3    3    0    0 -0.13119942706E+02 -0.36513533119E+02  0.16463241849E+03  0.16914255589E+03  0.00000000000E+00 0. -1.
         21    1    1    2  502  503 -0.28065113390E+00 -0.13258033147E+03  0.32314582837E+03  0.34928619991E+03  0.00000000000E+00 0. -1.
         21    1    1    2  503  501  0.47795221293E+02  0.81406567915E+02  0.24362824650E+00  0.94400592333E+02  0.00000000000E+00 0.  1.
<scales pt_clust_5="13000.00000" pt_clust_6="13000.00000" pt_clust_7="13000.00000" pt_clust_8="13000.00000" pt_clust_9="99.76201" pt_clust_10="94.40028"></scales>
<clustering>
<clus scale="   90.661">  7  8 -1 -1</clus>
<clus scale="   93.415">  5  6 -1 -1</clus>
<clus scale="   94.400">  2 10  1 -1</clus>
<clus scale="   99.762">  2  9  1 -1</clus>
<clus scale="  114.629">  2  7  1 -1</clus>
<clus scale="  116.819">  1  5  2 -1</clus>
</clustering>
</event>
<event>
10    2  0.2445576E-006  0.1029677E+03  0.7546771E-02  0.1275588E+00
          1   -1    0    0  502    0  0.00000000000E+00  0.00000000000E+00  0.14622292055E+03  0.14622292055E+03  0.00000000000E+00 0. -1.
         -1   -1    0    0    0  501 -0.00000000000E+00 -0.00000000000E+00 -0.17205549209E+03  0.17205549209E+03  0.00000000000E+00 0.  1.
         23    2    1    2    0    0  0.35152174686E+02  0.40030357468E+01 -0.86655735669E+02  0.13310192893E+03  0.94631956971E+02 0.  0.
         23    2    1    2    0    0 -0.28456220784E+02  0.73170622232E+01  0.50963355539E+02  0.10888798112E+03  0.91629869169E+02 0.  0.
        -13    1    4    4    0    0  0.24247853481E+02 -0.89517176707E+01  0.46936998637E+02  0.53583332192E+02  0.00000000000E+00 0.  1.
         13    1    4    4    0    0 -0.52704074265E+02  0.16268779894E+02  0.40263569016E+01  0.55304648930E+02  0.00000000000E+00 0. -1.
        -13    1    3    3    0    0  0.23785114010E+02 -0.44536648063E+02 -0.51343083302E+02  0.72009422107E+02  0.00000000000E+00 0.  1.
         13    1    3    3    0    0  0.11367060676E+02  0.48539683810E+02 -0.35312652367E+02  0.61092506824E+02  0.00000000000E+00 0. -1.
         21    1    1    2  502  503 -0.18748175400E+02 -0.29784947975E+02  0.30135458978E+02  0.46333390709E+02  0.00000000000E+00 0.  1.
         21    1    1    2  503  501  0.12052221498E+02  0.18464850006E+02 -0.20275650386E+02  0.29955111873E+02  0.00000000000E+00 0. -1.
<scales pt_clust_5="13000.00000" pt_clust_6="13000.00000" pt_clust_7="13000.00000" pt_clust_8="13000.00000" pt_clust_9="33.97910" pt_clust_10="22.05010"></scales>
<clustering>
<clus scale="   22.050">  2 10  1 -1</clus>
<clus scale="   33.979">  1  9  2 -1</clus>
<clus scale="   91.630">  5  6 -1 -1</clus>
<clus scale="   94.632">  7  8 -1 -1</clus>
<clus scale="  100.216">  1  5  2 -1</clus>
<clus scale="   33.979">  1  5  2 -1</clus>
</clustering>
</event>
<event>
10    2  0.2445576E-006  0.1284715E+03  0.7546771E-02  0.1230928E+00
          1   -1    0    0  502    0  0.00000000000E+00  0.00000000000E+00  0.60668680471E+02  0.60668680471E+02  0.00000000000E+00 0. -1.
         -1   -1    0    0    0  501 -0.00000000000E+00 -0.00000000000E+00 -0.45949892662E+03  0.45949892662E+03  0.00000000000E+00 0.  1.
         23    2    1    2    0    0  0.63850825666E+02  0.10267225137E+02 -0.15856495218E+03  0.19450572074E+03  0.92234958065E+02 0.  0.
         23    2    1    2    0    0 -0.11299372806E+03 -0.36181464574E+02 -0.18474202926E+03  0.23648456277E+03  0.87855848377E+02 0.  0.
        -11    1    3    3    0    0  0.72555762175E+02 -0.23563645958E+02 -0.12238241545E+03  0.14421178747E+03  0.00000000000E+00 0.  1.
         11    1    3    3    0    0 -0.87049365092E+01  0.33830871095E+02 -0.36182536737E+02  0.50293933266E+02  0.00000000000E+00 0. -1.
        -13    1    4    4    0    0 -0.33983020093E+02 -0.63062794789E+01 -0.13678422502E+01  0.34590255968E+02  0.00000000000E+00 0. -1.
         13    1    4    4    0    0 -0.79010707971E+02 -0.29875185095E+02 -0.18337418701E+03  0.20189430681E+03  0.00000000000E+00 0.  1.
         21    1    1    2  502  503  0.33570018949E+02  0.45564884789E+01 -0.80182649886E+01  0.34813795153E+02  0.00000000000E+00 0. -1.
         21    1    1    2  503  501  0.15572883449E+02  0.21357750958E+02 -0.47504999708E+02  0.54363528419E+02  0.00000000000E+00 0.  1.
<scales pt_clust_5="13000.00000" pt_clust_6="13000.00000" pt_clust_7="13000.00000" pt_clust_8="13000.00000" pt_clust_9="34.85162" pt_clust_10="26.43233"></scales>
<clustering>
<clus scale="   26.432">  2 10  1 -1</clus>
<clus scale="   34.852">  1  9  2 -1</clus>
<clus scale="   87.856">  7  8 -1 -1</clus>
<clus scale="   92.235">  5  6 -1 -1</clus>
<clus scale="  125.365">  1  7  2 -1</clus>
<clus scale="   34.852">  1  5  2 -1</clus>
</clustering>
</event>
<event>
10    2  0.2445576E-006  0.1181508E+03  0.7546771E-02  0.1246480E+00
         -1   -1    0    0    0  501 -0.00000000000E+00  0.00000000000E+00  0.32564505736E+03  0.32564505736E+03  0.00000000000E+00 0.  1.
          1   -1    0    0  502    0  0.00000000000E+00 -0.00000000000E+00 -0.22979510377E+03  0.22979510377E+03  0.00000000000E+00 0. -1.
         23    2    1    2    0    0 -0.29921384016E+02  0.42553511191E+02  0.17541020072E+03  0.20487422655E+03  0.92187958273E+02 0.  0.
         23    2    1    2    0    0  0.48140096699E+02 -0.82055888392E+02 -0.33820503730E+02  0.13610852303E+03  0.91274672490E+02 0.  0.
        -11    1    3    3    0    0 -0.39640647476E+02 -0.14763153262E+02  0.10724245745E+03  0.11528346068E+03  0.00000000000E+00 0. -1.
         11    1    3    3    0    0  0.97192634599E+01  0.57316664453E+02  0.68167743278E+02  0.89590765874E+02  0.00000000000E+00 0.  1.
        -13    1    4    4    0    0  0.39914339635E+02  0.65645979103E+01  0.11914214282E+01  0.40468110152E+02  0.00000000000E+00 0.  1.
         13    1    4    4    0    0  0.82257570638E+01 -0.88620486302E+02 -0.35011925158E+02  0.95640412875E+02  0.00000000000E+00 0. -1.
         21    1    1    2  502  503 -0.92947514790E+01  0.18000610678E+02 -0.12767848915E+03  0.12927571691E+03  0.00000000000E+00 0. -1.
         21    1    1    2  503  501 -0.89239612036E+01  0.21501766523E+02  0.81938745749E+02  0.85181694642E+02  0.00000000000E+00 0.  1.
<scales pt_clust_5="13000.00000" pt_clust_6="13000.00000" pt_clust_7="13000.00000" pt_clust_8="13000.00000" pt_clust_9="20.25869" pt_clust_10="23.60321"></scales>
<clustering>
<clus scale="   20.259">  2  9  1 -1</clus>
<clus scale="   23.603">  1 10  2 -1</clus>
<clus scale="   91.275">  7  8 -1 -1</clus>
<clus scale="   92.188">  5  6 -1 -1</clus>
<clus scale="  117.440">  2  7  1 -1</clus>
<clus scale="   20.259">  2  5  1 -1</clus>
</clustering>
</event>
<event>
10    2  0.2445576E-006  0.2745436E+03  0.7546771E-02  0.1098717E+00
          1   -1    0    0  502    0  0.00000000000E+00  0.00000000000E+00  0.10507580128E+04  0.10507580128E+04  0.00000000000E+00 0. -1.
         -1   -1    0    0    0  501 -0.00000000000E+00 -0.00000000000E+00 -0.12154080111E+03  0.12154080111E+03  0.00000000000E+00 0.  1.
         23    2    1    2    0    0  0.30250607828E+03  0.11538669784E+02  0.45823287371E+03  0.55677669669E+03  0.91541548634E+02 0.  0.
         23    2    1    2    0    0 -0.21965614536E+03  0.37804334882E+02  0.30125217247E+03  0.38570755766E+03  0.91320636695E+02 0.  0.
        -11    1    4    4    0    0 -0.14665072474E+03  0.28648601580E+02  0.26372208987E+03  0.30311139557E+03  0.00000000000E+00 0. -1.
         11    1    4    4    0    0 -0.73005420615E+02  0.91557333026E+01  0.37530082604E+02  0.82596162089E+02  0.00000000000E+00 0.  1.
        -13    1    3    3    0    0  0.37033876589E+02  0.32404635860E+02  0.58172098911E+02  0.76194235557E+02  0.00000000000E+00 0.  1.
         13    1    3    3    0    0  0.26547220169E+03 -0.20865966077E+02  0.40006077480E+03  0.48058246113E+03  0.00000000000E+00 0. -1.
         21    1    1    2  502  503 -0.90808628488E+01 -0.23788452474E+02  0.14601938707E+03  0.14822285229E+03  0.00000000000E+00 0.  1.
         21    1    1    2  503  501 -0.73769070077E+02 -0.25554552191E+02  0.23712778463E+02  0.81591707300E+02  0.00000000000E+00 0.  1.
<scales pt_clust_5="13000.00000" pt_clust_6="13000.00000" pt_clust_7="13000.00000" pt_clust_8="13000.00000" pt_clust_9="25.46277" pt_clust_10="79.03175"></scales>
<clustering>
<clus scale="   25.463">  1  9  2 -1</clus>
<clus scale="   79.032">  2 10  1 -1</clus>
<clus scale="   91.321">  5  6 -1 -1</clus>
<clus scale="   91.542">  7  8 -1 -1</clus>
<clus scale="  274.470">  1  5  2 -1</clus>
<clus scale="   25.463">  1  5  2 -1</clus>
</clustering>
</event>
<event>
10    2  0.2445576E-006  0.9977981E+02  0.7546771E-02  0.1285212E+00
         -1   -1    0    0    0  501 -0.00000000000E+00  0.00000000000E+00  0.16671503772E+03  0.16671503772E+03  0.00000000000E+00 0.  1.
          1   -1    0    0  502    0  0.00000000000E+00 -0.00000000000E+00 -0.15953580892E+03  0.15953580892E+03  0.00000000000E+00 0. -1.
         23    2    1    2    0    0 -0.37337529487E+02 -0.26051193681E+00  0.50925813083E+02  0.10585695695E+03  0.84959389839E+02 0.  0.
         23    2    1    2    0    0  0.24977092418E+02 -0.43041702277E+02 -0.86829456955E+02  0.13703642810E+03  0.93611883601E+02 0.  0.
        -11    1    3    3    0    0 -0.13695432383E+02 -0.15052101119E+02 -0.20679044509E+02  0.29012988437E+02  0.00000000000E+00 0. -1.
         11    1    3    3    0    0 -0.23642097105E+02  0.14791589182E+02  0.71604857592E+02  0.76843968513E+02  0.00000000000E+00 0.  1.
        -13    1    4    4    0    0  0.54814469825E+02 -0.49881051076E+02 -0.51283328393E+02  0.90126162293E+02  0.00000000000E+00 0. -1.
         13    1    4    4    0    0 -0.29837377407E+02  0.68393487994E+01 -0.35546128562E+02  0.46910265809E+02  0.00000000000E+00 0.  1.
         21    1    1    2  502  503 -0.64985835121E+00  0.21329889108E+02 -0.10661822620E+02  0.23854998361E+02  0.00000000000E+00 0.  1.
         21    1    1    2  503  501  0.13010295420E+02  0.21972325106E+02  0.53744695294E+02  0.59502463224E+02  0.00000000000E+00 0.  1.
<scales pt_clust_5="13000.00000" pt_clust_6="13000.00000" pt_clust_7="13000.00000" pt_clust_8="13000.00000" pt_clust_9="21.33979" pt_clust_10="25.90099"></scales>
<clustering>
<clus scale="   21.340">  2  9  1 -1</clus>
<clus scale="   25.901">  1 10  2 -1</clus>
<clus scale="   84.959">  5  6 -1 -1</clus>
<clus scale="   91.711">  1  5  2 -1</clus>
<clus scale="   93.612">  7  8 -1 -1</clus>
<clus scale="   21.340">  2  5  1 -1</clus>
</clustering>
</event>
<event>
10    2  0.2445576E-006  0.9399424E+02  0.7546771E-02  0.1294886E+00
         -1   -1    0    0    0  501 -0.00000000000E+00  0.00000000000E+00  0.79532419852E+02  0.79532419852E+02  0.00000000000E+00 0.  1.
          1   -1    0    0  502    0  0.00000000000E+00 -0.00000000000E+00 -0.28695384728E+03  0.28695384728E+03  0.00000000000E+00 0. -1.
         23    2    1    2    0    0  0.15132806464E+02  0.15458298627E+02 -0.77221932958E+02  0.12253263133E+03  0.92644794684E+02 0.  0.
         23    2    1    2    0    0  0.14849002638E+02  0.49263627429E+02 -0.97938318769E+02  0.14270635872E+03  0.90143178719E+02 0.  0.
        -13    1    3    3    0    0  0.18454710077E+02  0.53609585082E+02 -0.42760918579E+02  0.71014506226E+02  0.00000000000E+00 0. -1.
         13    1    3    3    0    0 -0.33219036131E+01 -0.38151286456E+02 -0.34461014379E+02  0.51518125100E+02  0.00000000000E+00 0.  1.
        -13    1    4    4    0    0 -0.14337820845E+02  0.65269000601E+02 -0.82055548851E+02  0.10582404568E+03  0.00000000000E+00 0. -1.
         13    1    4    4    0    0  0.29186823482E+02 -0.16005373171E+02 -0.15882769918E+02  0.36882313046E+02  0.00000000000E+00 0.  1.
         21    1    1    2  502  503 -0.39646113813E+02 -0.37119689175E+02 -0.43836233140E+02  0.69794706109E+02  0.00000000000E+00 0.  1.
         21    1    1    2  503  501  0.96643047120E+01 -0.27602236880E+02  0.11575057438E+02  0.31452570977E+02  0.00000000000E+00 0.  1.
<scales pt_clust_5="13000.00000" pt_clust_6="13000.00000" pt_clust_7="13000.00000" pt_clust_8="13000.00000" pt_clust_9="57.26672" pt_clust_10="29.24521"></scales>
<clustering>
<clus scale="   29.245">  1 10  2 -1</clus>
<clus scale="   57.267">  2  9  1 -1</clus>
<clus scale="   90.143">  7  8 -1 -1</clus>
<clus scale="   91.530">  2  7  1 -1</clus>
<clus scale="   92.645">  5  6 -1 -1</clus>
<clus scale="   57.267">  2  5  1 -1</clus>
</clustering>
</event>
<event>
10    2  0.2445576E-006  0.1414745E+03  0.7546771E-02  0.1211770E+00
          1   -1    0    0  502    0  0.00000000000E+00  0.00000000000E+00  0.25096916190E+03  0.25096916190E+03  0.00000000000E+00 0. -1.
         -1   -1    0    0    0  501 -0.00000000000E+00 -0.00000000000E+00 -0.50590648080E+03  0.50590648080E+03  0.00000000000E+00 0.  1.
         23    2    1    2    0    0 -0.68167944683E+02 -0.18955160954E+02 -0.13124373659E+03  0.17522078578E+03  0.92039331624E+02 0.  0.
         23    2    1    2    0    0  0.12239152340E+03  0.89918698047E+02 -0.29251991357E+03  0.34169697274E+03  0.90132480746E+02 0.  0.
        -11    1    3    3    0    0 -0.52322298718E+02 -0.44300367391E+02 -0.40377333278E+02  0.79564279276E+02  0.00000000000E+00 0. -1.
         11    1    3    3    0    0 -0.15845645964E+02  0.25345206436E+02 -0.90866403313E+02  0.95656506503E+02  0.00000000000E+00 0.  1.
        -13    1    4    4    0    0  0.10300334744E+03  0.99186048497E+02 -0.19484455120E+03  0.24168566555E+03  0.00000000000E+00 0.  1.
         13    1    4    4    0    0  0.19388175960E+02 -0.92673504496E+01 -0.97675362374E+02  0.10001130719E+03  0.00000000000E+00 0. -1.
         21    1    1    2  502  503 -0.69238144234E+01 -0.23195091956E+02  0.17099388520E+03  0.17269875586E+03  0.00000000000E+00 0.  1.
         21    1    1    2  503  501 -0.47299764292E+02 -0.47768445136E+02 -0.21675539419E+01  0.67259128324E+02  0.00000000000E+00 0. -1.
<scales pt_clust_5="13000.00000" pt_clust_6="13000.00000" pt_clust_7="13000.00000" pt_clust_8="13000.00000" pt_clust_9="24.20644" pt_clust_10="76.15220"></scales>
<clustering>
<clus scale="   24.206">  1  9  2 -1</clus>
<clus scale="   76.152">  1 10  2 -1</clus>
<clus scale="   90.132">  7  8 -1 -1</clus>
<clus scale="   92.039">  5  6 -1 -1</clus>
<clus scale="  140.241">  1  7  2 -1</clus>
<clus scale="   24.206">  1  5  2 -1</clus>
</clustering>
</event>
<event>
10    2  0.2445576E-006  0.9751321E+02  0.7546771E-02  0.1289849E+00
         -1   -1    0    0    0  501 -0.00000000000E+00  0.00000000000E+00  0.14113508443E+03  0.14113508443E+03  0.00000000000E+00 0.  1.
          1   -1    0    0  502    0  0.00000000000E+00 -0.00000000000E+00 -0.14132068518E+03  0.14132068518E+03  0.00000000000E+00 0. -1.
         23    2    1    2    0    0  0.32212914045E+02 -0.52087493165E+02  0.10510939518E+02  0.10996808749E+03  0.90728835777E+02 0.  0.
         23    2    1    2    0    0 -0.21563598771E+02  0.21753821495E+01  0.74156844729E+01  0.85772895092E+02  0.82657583299E+02 0.  0.
        -13    1    3    3    0    0  0.29386999831E+02  0.21076433617E+02  0.14701214501E+01  0.36193550118E+02  0.00000000000E+00 0.  1.
         13    1    3    3    0    0  0.28259142134E+01 -0.73163926781E+02  0.90408180681E+01  0.73774537373E+02  0.00000000000E+00 0. -1.
        -13    1    4    4    0    0  0.28830709565E+02 -0.11951300699E+02 -0.59143567941E+01  0.31765122678E+02  0.00000000000E+00 0.  1.
         13    1    4    4    0    0 -0.50394308336E+02  0.14126682849E+02  0.13330041267E+02  0.54007772414E+02  0.00000000000E+00 0. -1.
         21    1    1    2  502  503  0.19556715145E+02  0.22194894271E+02 -0.31859641283E+02  0.43475454933E+02  0.00000000000E+00 0.  1.
         21    1    1    2  503  501 -0.30206030418E+02  0.27717216744E+02  0.13747416542E+02  0.43239332086E+02  0.00000000000E+00 0.  1.
<scales pt_clust_5="13000.00000" pt_clust_6="13000.00000" pt_clust_7="13000.00000" pt_clust_8="13000.00000" pt_clust_9="29.58172" pt_clust_10="41.29546"></scales>
<clustering>
<clus scale="   29.582">  2  9  1 -1</clus>
<clus scale="   41.295">  1 10  2 -1</clus>
<clus scale="   82.658">  7  8 -1 -1</clus>
<clus scale="   90.052">  2  7  1 -1</clus>
<clus scale="   90.729">  5  6 -1 -1</clus>
<clus scale="   29.582">  2  5  1 -1</clus>
</clustering>
</event>
<event>
10    2  0.2445576E-006  0.1238837E+03  0.7546771E-02  0.1237254E+00
         -3   -1    0    0    0  501 -0.00000000000E+00  0.00000000000E+00  0.21091997768E+03  0.21091997768E+03  0.00000000000E+00 0.  1.
          3   -1    0    0  502    0  0.00000000000E+00 -0.00000000000E+00 -0.29929080562E+03  0.29929080562E+03  0.00000000000E+00 0. -1.
         23    2    1    2    0    0 -0.41071554421E+02  0.67477102330E+02 -0.61764018807E+02  0.13906903115E+03  0.96360622065E+02 0.  0.
         23    2    1    2    0    0  0.40835426361E+02 -0.62003395043E+02 -0.12137429706E+03  0.17261480172E+03  0.97735340307E+02 0.  0.
        -13    1    4    4    0    0 -0.16844790627E+02 -0.51168950110E+02 -0.24118278293E+02  0.59022875009E+02  0.00000000000E+00 0.  1.
         13    1    4    4    0    0  0.57680216987E+02 -0.10834444934E+02 -0.97256018764E+02  0.11359192671E+03  0.00000000000E+00 0. -1.
        -13    1    3    3    0    0 -0.19582933032E+02  0.88084626703E+02 -0.28960004687E+02  0.94768531692E+02  0.00000000000E+00 0.  1.
         13    1    3    3    0    0 -0.21488621389E+02 -0.20607524373E+02 -0.32804014120E+02  0.44300499459E+02  0.00000000000E+00 0. -1.
         21    1    1    2  502  503 -0.65796028101E+01 -0.56172952686E+02 -0.29754798844E+02  0.63906492948E+02  0.00000000000E+00 0. -1.
         21    1    1    2  503  501  0.68157308706E+01  0.50699245399E+02  0.12452228677E+03  0.13462045748E+03  0.00000000000E+00 0.  1.
<scales pt_clust_5="13000.00000" pt_clust_6="13000.00000" pt_clust_7="13000.00000" pt_clust_8="13000.00000" pt_clust_9="45.82091" pt_clust_10="51.15533"></scales>
<clustering>
<clus scale="   51.155">  1 10  2 -1</clus>
<clus scale="   45.821">  1  9  2 -1</clus>
<clus scale="   96.361">  7  8 -1 -1</clus>
<clus scale="   97.735">  5  6 -1 -1</clus>
<clus scale="  122.802">  1  7  2 -1</clus>
<clus scale="  123.884">  2  5  1 -1</clus>
</clustering>
</event>
<event>
10    2  0.2445576E-006  0.9999982E+02  0.7546771E-02  0.1280924E+00
         -1   -1    0    0    0  501 -0.00000000000E+00  0.00000000000E+00  0.84801772609E+02  0.84801772609E+02  0.00000000000E+00 0.  1.
          1   -1    0    0  502    0  0.00000000000E+00 -0.00000000000E+00 -0.33042451055E+03  0.33042451055E+03  0.00000000000E+00 0. -1.
         23    2    1    2    0    0  0.23381261047E+02 -0.15501743775E+02 -0.14221105550E+02  0.96277993335E+02  0.90995740171E+02 0.  0.
         23    2    1    2    0    0 -0.22323039409E+02  0.54097263831E+02 -0.10738420948E+03  0.15320645649E+03  0.92282272531E+02 0.  0.
        -11    1    3    3    0    0 -0.33959956985E+02 -0.92701444447E+01  0.48345497737E+01  0.35532902048E+02  0.00000000000E+00 0.  1.
         11    1    3    3    0    0  0.57341218032E+02 -0.62315993304E+01 -0.19055655324E+02  0.60745091287E+02  0.00000000000E+00 0. -1.
        -13    1    4    4    0    0 -0.50739168809E+02  0.35703692059E+01 -0.43360596655E+02  0.66838253493E+02  0.00000000000E+00 0.  1.
         13    1    4    4    0    0  0.28416129400E+02  0.50526894625E+02 -0.64023612822E+02  0.86368202999E+02  0.00000000000E+00 0. -1.
         21    1    1    2  502  503 -0.23824934485E+02 -0.50910065431E+02 -0.12777004752E+03  0.13958741816E+03  0.00000000000E+00 0.  1.
         21    1    1    2  503  501  0.22766712846E+02  0.12314545375E+02  0.37526246046E+01  0.26154415173E+02  0.00000000000E+00 0. -1.
<scales pt_clust_5="13000.00000" pt_clust_6="13000.00000" pt_clust_7="13000.00000" pt_clust_8="13000.00000" pt_clust_9="54.46484" pt_clust_10="25.88380"></scales>
<clustering>
<clus scale="   25.884">  1 10  2 -1</clus>
<clus scale="   54.465">  2  9  1 -1</clus>
<clus scale="   90.996">  5  6 -1 -1</clus>
<clus scale="   92.282">  7  8 -1 -1</clus>
<clus scale="   98.814">  1  5  2 -1</clus>
<clus scale="   54.465">  2  5  1 -1</clus>
</clustering>
</event>
<event>
10    2  0.2445576E-006  0.1926267E+03  0.7546771E-02  0.1156525E+00
         -2   -1    0    0    0  501 -0.00000000000E+00  0.00000000000E+00  0.75983748513E+03  0.75983748513E+03  0.00000000000E+00 0.  1.
          2   -1    0    0  502    0  0.00000000000E+00 -0.00000000000E+00 -0.18136805816E+03  0.18136805816E+03  0.00000000000E+00 0. -1.
         23    2    1    2    0    0  0.65190973318E+02 -0.18099356844E+03  0.31698774060E+03  0.38188839847E+03  0.91372787942E+02 0.  0.
         23    2    1    2    0    0 -0.49021866070E+02  0.13806554919E+03  0.15481322897E+03  0.23343115065E+03  0.95172091527E+02 0.  0.
        -11    1    4    4    0    0 -0.32861177361E+02  0.21341035393E+02  0.39219847149E+00  0.39184826002E+02  0.00000000000E+00 0. -1.
         11    1    4    4    0    0 -0.16160688709E+02  0.11672451380E+03  0.15442103050E+03  0.19424632465E+03  0.00000000000E+00 0.  1.
        -13    1    3    3    0    0  0.62862516484E+02 -0.13978106707E+03  0.30071143035E+03  0.33751712109E+03  0.00000000000E+00 0.  1.
         13    1    3    3    0    0  0.23284568341E+01 -0.41212501377E+02  0.16276310257E+02  0.44371277382E+02  0.00000000000E+00 0. -1.
         21    1    1    2  502  503  0.27135255367E+01  0.20600890491E+02 -0.10762205041E+03  0.10960960562E+03  0.00000000000E+00 0.  1.
         21    1    1    2  503  501 -0.18882632785E+02  0.22327128760E+02  0.21429050781E+03  0.21627638854E+03  0.00000000000E+00 0.  1.
<scales pt_clust_5="13000.00000" pt_clust_6="13000.00000" pt_clust_7="13000.00000" pt_clust_8="13000.00000" pt_clust_9="20.77883" pt_clust_10="29.43283"></scales>
<clustering>
<clus scale="   20.779">  2  9  1 -1</clus>
<clus scale="   29.433">  1 10  2 -1</clus>
<clus scale="   91.373">  7  8 -1 -1</clus>
<clus scale="   95.172">  5  6 -1 -1</clus>
<clus scale="  190.778">  1  7  2 -1</clus>
<clus scale="   20.779">  2  5  1 -1</clus>
</clustering>
</event>
<event>
10    2  0.2445576E-006  0.9853464E+02  0.7546771E-02  0.1294131E+00
          3   -1    0    0  503    0  0.00000000000E+00  0.00000000000E+00  0.47432071307E+03  0.47432071307E+03  0.00000000000E+00 0. -1.
         -3   -1    0    0    0  501 -0.00000000000E+00 -0.00000000000E+00 -0.49820052648E+02  0.49820052648E+02  0.00000000000E+00 0.  1.
         23    2    1    2    0    0  0.13272256582E+02 -0.16359855679E+02  0.39825648522E+02  0.87988685569E+02  0.75578626843E+02 0.  0.
         23    2    1    2    0    0  0.22947307992E+02  0.54274508157E+02  0.12624218668E+03  0.16834033287E+03  0.94493792362E+02 0.  0.
        -13    1    3    3    0    0 -0.22153923721E+02 -0.23958050680E+02  0.40172304375E+02  0.51755179137E+02  0.00000000000E+00 0.  1.
         13    1    3    3    0    0  0.35426180303E+02  0.75981950019E+01 -0.34665585383E+00  0.36233506433E+02  0.00000000000E+00 0. -1.
        -13    1    4    4    0    0  0.46034189473E+02  0.65006479502E+02  0.67836407608E+02  0.10462679951E+03  0.00000000000E+00 0.  1.
         13    1    4    4    0    0 -0.23086881481E+02 -0.10731971345E+02  0.58405779068E+02  0.63713533366E+02  0.00000000000E+00 0. -1.
         21    1    1    2  502  501 -0.28215664203E+02 -0.17307947935E+02  0.22690008264E+03  0.22930184533E+03  0.00000000000E+00 0. -1.
         21    1    1    2  503  502 -0.80039003711E+01 -0.20606704543E+02  0.31532742583E+02  0.38509901949E+02  0.00000000000E+00 0. -1.
<scales pt_clust_5="13000.00000" pt_clust_6="13000.00000" pt_clust_7="13000.00000" pt_clust_8="13000.00000" pt_clust_9="42.80600" pt_clust_10="22.10653"></scales>
<clustering>
<clus scale="   22.107">  1 10  2 -1</clus>
<clus scale="   42.806">  1  9  2 -1</clus>
<clus scale="   75.579">  5  6 -1 -1</clus>
<clus scale="   80.574">  2  5  1 -1</clus>
<clus scale="   94.494">  7  8 -1 -1</clus>
<clus scale="   22.107">  1  5  2 -1</clus>
</clustering>
</event>
<event>
10    2  0.2445576E-006  0.2639293E+03  0.7546771E-02  0.1104886E+00
         -1   -1    0    0    0  501 -0.00000000000E+00  0.00000000000E+00  0.25000524780E+03  0.25000524780E+03  0.00000000000E+00 0.  1.
          1   -1    0    0  502    0  0.00000000000E+00 -0.00000000000E+00 -0.78299101396E+03  0.78299101396E+03  0.00000000000E+00 0. -1.
         23    2    1    2    0    0  0.20260991806E+03 -0.14430349214E+03  0.55348755795E+02  0.27104517540E+03  0.92345685350E+02 0.  0.
         23    2    1    2    0    0 -0.20999703804E+03  0.21435240949E+03 -0.40279202490E+03  0.51041614470E+03  0.90760751507E+02 0.  0.
        -11    1    3    3    0    0  0.11075360270E+03 -0.78115239435E+02 -0.17139373238E+02  0.13660933079E+03  0.00000000000E+00 0.  1.
         11    1    3    3    0    0  0.91856315360E+02 -0.66188252701E+02  0.72488129034E+02  0.13443584462E+03  0.00000000000E+00 0. -1.
        -13    1    4    4    0    0 -0.20556508191E+02  0.62383635156E+02 -0.12666142093E+03  0.14267937312E+03  0.00000000000E+00 0.  1.
         13    1    4    4    0    0 -0.18944052985E+03  0.15196877433E+03 -0.27613060397E+03  0.36773677158E+03  0.00000000000E+00 0. -1.
         21    1    1    2  502  503  0.27361784047E+02 -0.73694429288E+02 -0.20734226652E+03  0.22174388744E+03  0.00000000000E+00 0.  1.
         21    1    1    2  503  501 -0.19974664068E+02  0.36455119385E+01  0.21799769464E+02  0.29791054204E+02  0.00000000000E+00 0.  1.
<scales pt_clust_5="13000.00000" pt_clust_6="13000.00000" pt_clust_7="13000.00000" pt_clust_8="13000.00000" pt_clust_9="78.27898" pt_clust_10="20.30460"></scales>
<clustering>
<clus scale="   20.305">  1 10  2 -1</clus>
<clus scale="   78.279">  2  9  1 -1</clus>
<clus scale="   90.761">  7  8 -1 -1</clus>
<clus scale="   92.346">  5  6 -1 -1</clus>
<clus scale="  263.379">  2  7  1 -1</clus>
<clus scale="   78.279">  2  5  1 -1</clus>
</clustering>
</event>
<event>
10    2  0.2445576E-006  0.9388637E+02  0.7546771E-02  0.1294051E+00
         -2   -1    0    0    0  501 -0.00000000000E+00  0.00000000000E+00  0.31097680100E+03  0.31097680100E+03  0.00000000000E+00 0.  1.
          2   -1    0    0  502    0  0.00000000000E+00 -0.00000000000E+00 -0.18654799771E+03  0.18654799771E+03  0.00000000000E+00 0. -1.
         23    2    1    2    0    0  0.37467515311E+02  0.14209494846E+02  0.23420279521E+03  0.25482713603E+03  0.92087977102E+02 0.  0.
         23    2    1    2    0    0 -0.63232950822E+01 -0.16309687945E+02 -0.12240990364E+03  0.15454239231E+03  0.92699387974E+02 0.  0.
        -13    1    4    4    0    0 -0.46873830581E+02 -0.42691311818E+01 -0.88846882846E+02  0.10054426918E+03  0.00000000000E+00 0. -1.
         13    1    4    4    0    0  0.40550535499E+02 -0.12040556764E+02 -0.33563020793E+02  0.53998123126E+02  0.00000000000E+00 0.  1.
        -13    1    3    3    0    0  0.41741047876E+02 -0.15240189151E+02  0.21469378661E+03  0.21924415717E+03  0.00000000000E+00 0.  1.
         13    1    3    3    0    0 -0.42735325646E+01  0.29449683997E+02  0.19509008592E+02  0.35582978857E+02  0.00000000000E+00 0. -1.
         21    1    1    2  502  503 -0.64755576101E+01  0.25551302731E+02 -0.25752262660E+02  0.36850793068E+02  0.00000000000E+00 0. -1.
         21    1    1    2  503  501 -0.24668662619E+02 -0.23451109632E+02  0.38388174384E+02  0.51304477299E+02  0.00000000000E+00 0.  1.
<scales pt_clust_5="13000.00000" pt_clust_6="13000.00000" pt_clust_7="13000.00000" pt_clust_8="13000.00000" pt_clust_9="26.35910" pt_clust_10="33.51324"></scales>
<clustering>
<clus scale="   26.359">  2  9  1 -1</clus>
<clus scale="   33.513">  1 10  2 -1</clus>
<clus scale="   92.088">  7  8 -1 -1</clus>
<clus scale="   92.699">  5  6 -1 -1</clus>
<clus scale="   93.283">  1  7  2 -1</clus>
<clus scale="   26.359">  2  5  1 -1</clus>
</clustering>
</event>
<event>
10    2  0.2445576E-006  0.1806015E+03  0.7546771E-02  0.1167312E+00
          2   -1    0    0  502    0  0.00000000000E+00  0.00000000000E+00  0.23559602563E+03  0.23559602563E+03  0.00000000000E+00 0. -1.
         -2   -1    0    0    0  501 -0.00000000000E+00 -0.00000000000E+00 -0.29169568368E+03  0.29169568368E+03  0.00000000000E+00 0.  1.
         23    2    1    2    0    0  0.29611972638E+02  0.15321054702E+03 -0.82687384941E+02  0.19906092122E+03  0.91856987133E+02 0.  0.
         23    2    1    2    0    0 -0.61707796507E+02 -0.15048701621E+03  0.39611466059E+02  0.19130076829E+03  0.92588992376E+02 0.  0.
        -11    1    3    3    0    0  0.45223302139E+02  0.71258222817E+02 -0.78923610026E+02  0.11555006532E+03  0.00000000000E+00 0.  1.
         11    1    3    3    0    0 -0.15611329501E+02  0.81952324207E+02 -0.37637749153E+01  0.83510855901E+02  0.00000000000E+00 0. -1.
        -13    1    4    4    0    0  0.23406735385E+02 -0.35147985881E+02  0.19638465269E+02  0.46571724157E+02  0.00000000000E+00 0.  1.
         13    1    4    4    0    0 -0.85114531891E+02 -0.11533903033E+03  0.19973000789E+02  0.14472904414E+03  0.00000000000E+00 0. -1.
         21    1    1    2  502  503  0.52774323410E+02  0.34761843681E+00  0.48669421281E+02  0.71791104029E+02  0.00000000000E+00 0. -1.
         21    1    1    2  503  501 -0.20678499542E+02 -0.30711492528E+01 -0.61693160453E+02  0.65138915770E+02  0.00000000000E+00 0.  1.
<scales pt_clust_5="13000.00000" pt_clust_6="13000.00000" pt_clust_7="13000.00000" pt_clust_8="13000.00000" pt_clust_9="51.72745" pt_clust_10="20.90532"></scales>
<clustering>
<clus scale="   20.905">  2 10  1 -1</clus>
<clus scale="   51.727">  1  9  2 -1</clus>
<clus scale="   91.857">  5  6 -1 -1</clus>
<clus scale="   92.589">  7  8 -1 -1</clus>
<clus scale="  180.227">  2  5  1 -1</clus>
<clus scale="   51.727">  1  5  2 -1</clus>
</clustering>
</event>
<event>
10    2  0.2445576E-006  0.1155489E+03  0.7546771E-02  0.1251132E+00
         -1   -1    0    0    0  501 -0.00000000000E+00  0.00000000000E+00  0.78731176349E+02  0.78731176349E+02  0.00000000000E+00 0.  1.
          1   -1    0    0  502    0  0.00000000000E+00 -0.00000000000E+00 -0.81849920444E+03  0.81849920444E+03  0.00000000000E+00 0. -1.
         23    2    1    2    0    0 -0.53448321078E+02 -0.56036521814E+02 -0.23858474975E+03  0.26630641071E+03  0.89440520847E+02 0.  0.
         23    2    1    2    0    0  0.91028517004E+02 -0.64415891820E+02 -0.31078086938E+03  0.34247182043E+03  0.90920850119E+02 0.  0.
        -11    1    4    4    0    0  0.10343250618E+03 -0.31015312062E+02 -0.24245637580E+03  0.26541538592E+03  0.00000000000E+00 0.  1.
         11    1    4    4    0    0 -0.12403989178E+02 -0.33400579758E+02 -0.68324493580E+02  0.77056434505E+02  0.00000000000E+00 0. -1.
        -13    1    3    3    0    0 -0.66008331079E+02 -0.21643334233E+02 -0.20562516196E+03  0.21704202570E+03  0.00000000000E+00 0. -1.
         13    1    3    3    0    0  0.12560010001E+02 -0.34393187581E+02 -0.32959587788E+02  0.49264385010E+02  0.00000000000E+00 0.  1.
         21    1    1    2  502  503 -0.33230086017E+01  0.10412330643E+03 -0.21794352963E+03  0.24156176733E+03  0.00000000000E+00 0.  1.
         21    1    1    2  503  501 -0.34257187324E+02  0.16329107200E+02  0.27541120677E+02  0.46890382313E+02  0.00000000000E+00 0.  1.
<scales pt_clust_5="13000.00000" pt_clust_6="13000.00000" pt_clust_7="13000.00000" pt_clust_8="13000.00000" pt_clust_9="109.55030" pt_clust_10="37.94990"></scales>
<clustering>
<clus scale="   37.950">  1 10  2 -1</clus>
<clus scale="   89.441">  7  8 -1 -1</clus>
<clus scale="   90.921">  5  6 -1 -1</clus>
<clus scale="  109.550">  2  9  1 -1</clus>
<clus scale="  114.388">  1  7  2 -1</clus>
<clus scale="  109.550">  2  5  1 -1</clus>
</clustering>
</event>
<event>
10    2  0.2445576E-006  0.2294884E+03  0.7546771E-02  0.1127021E+00
          2   -1    0    0  502    0  0.00000000000E+00  0.00000000000E+00  0.15636236904E+03  0.15636236904E+03  0.00000000000E+00 0. -1.
         -2   -1    0    0    0  501 -0.00000000000E+00 -0.00000000000E+00 -0.58070322306E+03  0.58070322306E+03  0.00000000000E+00 0.  1.
         23    2    1    2    0    0  0.23008177406E+03  0.75138399912E+02 -0.17893645258E+03  0.31427398860E+03  0.90368600479E+02 0.  0.
         23    2    1    2    0    0 -0.16281934568E+03 -0.84202637974E+02 -0.83852346280E+02  0.22102350020E+03  0.90663929420E+02 0.  0.
        -13    1    4    4    0    0 -0.13075630730E+03 -0.93288511881E+02 -0.94100058695E+02  0.18615794206E+03  0.00000000000E+00 0. -1.
         13    1    4    4    0    0 -0.32063038379E+02  0.90858739069E+01  0.10247712415E+02  0.34865558141E+02  0.00000000000E+00 0.  1.
        -13    1    3    3    0    0  0.11559064194E+03 -0.24298124132E+01 -0.11067909241E+03  0.16005299744E+03  0.00000000000E+00 0.  1.
         13    1    3    3    0    0  0.11449113212E+03  0.77568212325E+02 -0.68257360174E+02  0.15422099116E+03  0.00000000000E+00 0. -1.
         21    1    1    2  502  503 -0.38610384947E+02  0.71443062502E+01 -0.16420147175E+01  0.39300116411E+02  0.00000000000E+00 0.  1.
         21    1    1    2  503  501 -0.28652043435E+02  0.19199318119E+01 -0.15991004043E+03  0.16246798688E+03  0.00000000000E+00 0.  1.
<scales pt_clust_5="13000.00000" pt_clust_6="13000.00000" pt_clust_7="13000.00000" pt_clust_8="13000.00000" pt_clust_9="40.65797" pt_clust_10="28.71630"></scales>
<clustering>
<clus scale="   28.716">  2 10  1 -1</clus>
<clus scale="   40.658">  1  9  2 -1</clus>
<clus scale="   90.369">  7  8 -1 -1</clus>
<clus scale="   90.664">  5  6 -1 -1</clus>
<clus scale="  229.372">  2  7  1 -1</clus>
<clus scale="   40.658">  1  5  2 -1</clus>
</clustering>
</event>
<event>
10    2  0.2445576E-006  0.1706607E+03  0.7546771E-02  0.1177237E+00
          2   -1    0    0  502    0  0.00000000000E+00  0.00000000000E+00  0.63535334604E+03  0.63535334604E+03  0.00000000000E+00 0. -1.
         -2   -1    0    0    0  501 -0.00000000000E+00 -0.00000000000E+00 -0.65142614230E+02  0.65142614230E+02  0.00000000000E+00 0.  1.
         23    2    1    2    0    0  0.10078079202E+03 -0.87014743343E+02  0.19705320652E+03  0.25480821302E+03  0.91481832227E+02 0.  0.
         23    2    1    2    0    0 -0.88694054897E+02  0.13599919478E+03  0.28061394018E+03  0.33671158029E+03  0.90929030166E+02 0.  0.
        -11    1    3    3    0    0  0.56808454624E+02 -0.99666680411E+02  0.15354881869E+03  0.19167130046E+03  0.00000000000E+00 0. -1.
         11    1    3    3    0    0  0.43972337393E+02  0.12651937068E+02  0.43504387828E+02  0.63136912561E+02  0.00000000000E+00 0.  1.
        -13    1    4    4    0    0 -0.74609688309E+01  0.22208039602E+02  0.12640887924E+03  0.12856153325E+03  0.00000000000E+00 0. -1.
         13    1    4    4    0    0 -0.81233086066E+02  0.11379115517E+03  0.15420506093E+03  0.20815004705E+03  0.00000000000E+00 0.  1.
         21    1    1    2  502  503 -0.20595891888E+02 -0.27047785738E+02  0.53284498112E+02  0.63206101091E+02  0.00000000000E+00 0. -1.
         21    1    1    2  503  501  0.85091547682E+01 -0.21936665695E+02  0.39259086999E+02  0.45770065858E+02  0.00000000000E+00 0. -1.
<scales pt_clust_5="13000.00000" pt_clust_6="13000.00000" pt_clust_7="13000.00000" pt_clust_8="13000.00000" pt_clust_9="57.54555" pt_clust_10="23.02386"></scales>
<clustering>
<clus scale="   23.024">  9 10 -1 -1</clus>
<clus scale="   57.546">  1  9  2 -1</clus>
<clus scale="   90.929">  7  8 -1 -1</clus>
<clus scale="   91.482">  5  6 -1 -1</clus>
<clus scale="  170.365">  1  7  2 -1</clus>
<clus scale="   57.546">  1  5  2 -1</clus>
</clustering>
</event>
<event>
10    2  0.2445576E-006  0.1459109E+03  0.7546771E-02  0.1205771E+00
         -1   -1    0    0    0  501 -0.00000000000E+00  0.00000000000E+00  0.22425480720E+03  0.22425480720E+03  0.00000000000E+00 0.  1.
          1   -1    0    0  502    0  0.00000000000E+00 -0.00000000000E+00 -0.29646220508E+03  0.29646220508E+03  0.00000000000E+00 0. -1.
         23    2    1    2    0    0  0.93813012709E+02  0.20913388999E+02  0.20054797714E+02  0.13390350216E+03  0.91047799452E+02 0.  0.
         23    2    1    2    0    0 -0.13218851605E+03 -0.39682813728E+02  0.32459832268E+02  0.16898985923E+03  0.91953261677E+02 0.  0.
        -13    1    3    3    0    0  0.52334910552E+02 -0.23698763436E+02  0.39774870901E+02  0.69875708269E+02  0.00000000000E+00 0. -1.
         13    1    3    3    0    0  0.41478102157E+02  0.44612152435E+02 -0.19720073187E+02  0.64027793886E+02  0.00000000000E+00 0.  1.
        -13    1    4    4    0    0 -0.69736544644E+02 -0.91280031461E+01 -0.29112862903E+02  0.76118755158E+02  0.00000000000E+00 0. -1.
         13    1    4    4    0    0 -0.62451971404E+02 -0.30554810582E+02  0.61572695171E+02  0.92871104077E+02  0.00000000000E+00 0.  1.
         21    1    1    2  502  503  0.58631106178E+02  0.80360808817E+01 -0.16288649153E+03  0.17330376317E+03  0.00000000000E+00 0. -1.
         21    1    1    2  503  501 -0.20255602839E+02  0.10733343847E+02  0.38164463655E+02  0.44519887720E+02  0.00000000000E+00 0.  1.
<scales pt_clust_5="13000.00000" pt_clust_6="13000.00000" pt_clust_7="13000.00000" pt_clust_8="13000.00000" pt_clust_9="58.65055" pt_clust_10="22.92366"></scales>
<clustering>
<clus scale="   22.924">  1 10  2 -1</clus>
<clus scale="   58.651">  2  9  1 -1</clus>
<clus scale="   91.048">  5  6 -1 -1</clus>
<clus scale="   91.953">  7  8 -1 -1</clus>
<clus scale="  145.342">  1  5  2 -1</clus>
<clus scale="   58.651">  2  5  1 -1</clus>
</clustering>
</event>
<event>
10    2  0.2445576E-006  0.9649346E+02  0.7546771E-02  0.1289771E+00
          1   -1    0    0  502    0  0.00000000000E+00  0.00000000000E+00  0.52285758653E+03  0.52285758653E+03  0.00000000000E+00 0. -1.
         -1   -1    0    0    0  501 -0.00000000000E+00 -0.00000000000E+00 -0.68444638019E+02  0.68444638019E+02  0.00000000000E+00 0.  1.
         23    2    1    2    0    0  0.27686530340E+02  0.46447628290E+02 -0.37263750754E+01  0.10185758496E+03  0.86238944834E+02 0.  0.
         23    2    1    2    0    0 -0.39453997670E+01 -0.24964628415E+02  0.33885425789E+03  0.35149200469E+03  0.89920089046E+02 0.  0.
        -11    1    4    4    0    0  0.25754160988E+02 -0.47920693671E+02  0.16905010511E+03  0.17758830966E+03  0.00000000000E+00 0. -1.
         11    1    4    4    0    0 -0.29699560755E+02  0.22956065255E+02  0.16980415279E+03  0.17390369503E+03  0.00000000000E+00 0.  1.
        -13    1    3    3    0    0 -0.22575945605E+02  0.41678507181E+02 -0.15766618180E+02  0.49953553724E+02  0.00000000000E+00 0.  1.
         13    1    3    3    0    0  0.50262475945E+02  0.47691211091E+01  0.12040243105E+02  0.51904031233E+02  0.00000000000E+00 0. -1.
         21    1    1    2  502  503 -0.29506678108E+02  0.90632894081E+01  0.90376682790E+02  0.95502523841E+02  0.00000000000E+00 0.  1.
         21    1    1    2  503  501  0.57655475349E+01 -0.30546289283E+02  0.28908382898E+02  0.42450111061E+02  0.00000000000E+00 0.  1.
<scales pt_clust_5="13000.00000" pt_clust_6="13000.00000" pt_clust_7="13000.00000" pt_clust_8="13000.00000" pt_clust_9="30.86725" pt_clust_10="29.97817"></scales>
<clustering>
<clus scale="   30.867">  1  9  2 -1</clus>
<clus scale="   29.978">  2 10  1 -1</clus>
<clus scale="   86.239">  7  8 -1 -1</clus>
<clus scale="   89.920">  5  6 -1 -1</clus>
<clus scale="   93.073">  2  7  1 -1</clus>
<clus scale="   30.867">  1  5  2 -1</clus>
</clustering>
</event>
<event>
10    2  0.2445576E-006  0.1432130E+03  0.7546771E-02  0.1213153E+00
         -1   -1    0    0    0  501 -0.00000000000E+00  0.00000000000E+00  0.23829183608E+03  0.23829183608E+03  0.00000000000E+00 0.  1.
          1   -1    0    0  502    0  0.00000000000E+00 -0.00000000000E+00 -0.10348030846E+04  0.10348030846E+04  0.00000000000E+00 0. -1.
         23    2    1    2    0    0 -0.37527292320E+02 -0.10420114110E+03  0.18383317624E+02  0.13497866776E+03  0.74934097101E+02 0.  0.
         23    2    1    2    0    0  0.11005580027E+03  0.17093040656E+03 -0.73721660240E+03  0.77052531303E+03  0.94294517889E+02 0.  0.
        -11    1    4    4    0    0  0.67701592229E+02  0.41438231069E+02 -0.17706422170E+03  0.19404218920E+03  0.00000000000E+00 0.  1.
         11    1    4    4    0    0  0.42354208045E+02  0.12949217550E+03 -0.56015238070E+03  0.57648312383E+03  0.00000000000E+00 0. -1.
        -13    1    3    3    0    0  0.45355709809E+01 -0.88720693553E+02  0.14176872701E+02  0.89960639105E+02  0.00000000000E+00 0.  1.
         13    1    3    3    0    0 -0.42062863301E+02 -0.15480447550E+02  0.42064449231E+01  0.45018028658E+02  0.00000000000E+00 0. -1.
         21    1    1    2  502  503 -0.39196818047E+02 -0.10125824859E+03 -0.20474957399E+03  0.23175851980E+03  0.00000000000E+00 0.  1.
         21    1    1    2  503  501 -0.33331689908E+02  0.34528983126E+02  0.12707161023E+03  0.13583242011E+03  0.00000000000E+00 0. -1.
<scales pt_clust_5="13000.00000" pt_clust_6="13000.00000" pt_clust_7="13000.00000" pt_clust_8="13000.00000" pt_clust_9="106.17359" pt_clust_10="47.99221"></scales>
<clustering>
<clus scale="   47.992">  1 10  2 -1</clus>
<clus scale="   74.934">  7  8 -1 -1</clus>
<clus scale="   94.295">  5  6 -1 -1</clus>
<clus scale="  106.174">  2  9  1 -1</clus>
<clus scale="  131.277">  1  7  2 -1</clus>
<clus scale="  106.174">  2  5  1 -1</clus>
</clustering>
</event>
<event>
10    2  0.2445576E-006  0.1187809E+03  0.7546771E-02  0.1249525E+00
         -1   -1    0    0    0  501 -0.00000000000E+00  0.00000000000E+00  0.66338554548E+02  0.66338554548E+02  0.00000000000E+00 0.  1.
          1   -1    0    0  502    0  0.00000000000E+00 -0.00000000000E+00 -0.78639974846E+03  0.78639974846E+03  0.00000000000E+00 0. -1.
         23    2    1    2    0    0 -0.12580762923E+02 -0.65856663401E+00 -0.80245069948E+02  0.12398605722E+03  0.93672631156E+02 0.  0.
         23    2    1    2    0    0 -0.98603843425E+02  0.25256736219E+02 -0.49398046929E+03  0.51520613612E+03  0.10516671524E+03 0.  0.
        -13    1    4    4    0    0 -0.83982058935E+02 -0.22487682063E+02 -0.39365458163E+03  0.40314093281E+03  0.00000000000E+00 0. -1.
         13    1    4    4    0    0 -0.14621784490E+02  0.47744418282E+02 -0.10032588766E+03  0.11206520331E+03  0.00000000000E+00 0.  1.
        -13    1    3    3    0    0  0.29419349629E+02  0.28093707292E+02 -0.51166475393E+02  0.65366373053E+02  0.00000000000E+00 0.  1.
         13    1    3    3    0    0 -0.42000112552E+02 -0.28752273926E+02 -0.29078594556E+02  0.58619684165E+02  0.00000000000E+00 0. -1.
         21    1    1    2  502  503  0.20048589172E+02 -0.17069881902E+02 -0.11355735138E+03  0.11657014561E+03  0.00000000000E+00 0.  1.
         21    1    1    2  503  501  0.91136017176E+02 -0.75282876833E+01 -0.32278303303E+02  0.96975964064E+02  0.00000000000E+00 0.  1.
<scales pt_clust_5="13000.00000" pt_clust_6="13000.00000" pt_clust_7="13000.00000" pt_clust_8="13000.00000" pt_clust_9="26.33110" pt_clust_10="93.51685"></scales>
<clustering>
<clus scale="   26.331">  2  9  1 -1</clus>
<clus scale="   93.517">  1 10  2 -1</clus>
<clus scale="   93.673">  7  8 -1 -1</clus>
<clus scale="  105.167">  5  6 -1 -1</clus>
<clus scale="  108.736">  1  7  2 -1</clus>
<clus scale="   26.331">  2  5  1 -1</clus>
</clustering>
</event>
<event>
10    2  0.2445576E-006  0.9406175E+02  0.7546771E-02  0.1293675E+00
         -1   -1    0    0    0  501 -0.00000000000E+00  0.00000000000E+00  0.20447868355E+03  0.20447868355E+03  0.00000000000E+00 0.  1.
          1   -1    0    0  502    0  0.00000000000E+00 -0.00000000000E+00 -0.13235162916E+03  0.13235162916E+03  0.00000000000E+00 0. -1.
         23    2    1    2    0    0 -0.31564040074E+02 -0.12245487213E+02  0.35651734363E+02  0.10315739960E+03  0.90687167486E+02 0.  0.
         23    2    1    2    0    0  0.32355441305E+01  0.17278616414E+02 -0.52378004081E+01  0.93179164050E+02  0.91355912392E+02 0.  0.
        -11    1    3    3    0    0 -0.29914854755E+02 -0.50254355399E+02  0.17802204420E+02  0.61133601675E+02  0.00000000000E+00 0. -1.
         11    1    3    3    0    0 -0.16491853187E+01  0.38008868186E+02  0.17849529943E+02  0.42023797927E+02  0.00000000000E+00 0.  1.
        -11    1    4    4    0    0  0.33065956155E+02 -0.16260335573E+02 -0.24590247544E+02  0.44299393265E+02  0.00000000000E+00 0.  1.
         11    1    4    4    0    0 -0.29830412024E+02  0.33538951986E+02  0.19352447136E+02  0.48879770785E+02  0.00000000000E+00 0. -1.
         21    1    1    2  502  503  0.27073377851E+02 -0.26114920844E+02 -0.40698256968E+02  0.55419355817E+02  0.00000000000E+00 0.  1.
         21    1    1    2  503  501  0.12551180929E+01  0.21081791643E+02  0.82411377404E+02  0.85074393244E+02  0.00000000000E+00 0.  1.
<scales pt_clust_5="13000.00000" pt_clust_6="13000.00000" pt_clust_7="13000.00000" pt_clust_8="13000.00000" pt_clust_9="36.79171" pt_clust_10="21.11912"></scales>
<clustering>
<clus scale="   21.119">  1 10  2 -1</clus>
<clus scale="   36.792">  2  9  1 -1</clus>
<clus scale="   90.687">  5  6 -1 -1</clus>
<clus scale="   91.356">  7  8 -1 -1</clus>
<clus scale="   93.412">  1  5  2 -1</clus>
<clus scale="   36.792">  2  5  1 -1</clus>
</clustering>
</event>
<event>
10    2  0.2445576E-006  0.1260637E+03  0.7546771E-02  0.1244614E+00
         -1   -1    0    0    0  501 -0.00000000000E+00  0.00000000000E+00  0.98282308833E+02  0.98282308833E+02  0.00000000000E+00 0.  1.
          1   -1    0    0  502    0  0.00000000000E+00 -0.00000000000E+00 -0.52631626060E+03  0.52631626060E+03  0.00000000000E+00 0. -1.
         23    2    1    2    0    0 -0.12321595234E+02  0.59070284373E+01 -0.11489385043E+03  0.16539817785E+03  0.11819156347E+03 0.  0.
         23    2    1    2    0    0 -0.27983640066E+02 -0.69670885204E+02 -0.30592466458E+03  0.32769057631E+03  0.90300039015E+02 0.  0.
        -11    1    3    3    0    0 -0.45550873495E+02 -0.40915583111E+02 -0.53089276341E+02  0.81039732723E+02  0.00000000000E+00 0. -1.
         11    1    3    3    0    0  0.33229278261E+02  0.46822611549E+02 -0.61804574090E+02  0.84358445128E+02  0.00000000000E+00 0.  1.
        -13    1    4    4    0    0 -0.51888390789E+02 -0.43673158993E+02 -0.26543357212E+03  0.27396118543E+03  0.00000000000E+00 0. -1.
         13    1    4    4    0    0  0.23904750723E+02 -0.25997726212E+02 -0.40491092461E+02  0.53729390877E+02  0.00000000000E+00 0.  1.
         21    1    1    2  502  503  0.20260921002E+02  0.19264949640E+02 -0.55945358021E+02  0.62542196064E+02  0.00000000000E+00 0.  1.
         21    1    1    2  503  501  0.20044314298E+02  0.44498907127E+02  0.48729921272E+02  0.68967619201E+02  0.00000000000E+00 0.  1.
<scales pt_clust_5="13000.00000" pt_clust_6="13000.00000" pt_clust_7="13000.00000" pt_clust_8="13000.00000" pt_clust_9="27.95788" pt_clust_10="49.36634"></scales>
<clustering>
<clus scale="   27.958">  2  9  1 -1</clus>
<clus scale="   49.366">  1 10  2 -1</clus>
<clus scale="   90.300">  7  8 -1 -1</clus>
<clus scale="  100.384">  2  7  1 -1</clus>
<clus scale="  118.192">  5  6 -1 -1</clus>
<clus scale="   27.958">  2  5  1 -1</clus>
</clustering>
</event>
<event>
10    2  0.2445576E-006  0.1411876E+03  0.7546771E-02  0.1232680E+00
          1   -1    0    0  502    0  0.00000000000E+00  0.00000000000E+00  0.31254213671E+03  0.31254213671E+03  0.00000000000E+00 0. -1.
         -1   -1    0    0    0  501 -0.00000000000E+00 -0.00000000000E+00 -0.25306672778E+03  0.25306672778E+03  0.00000000000E+00 0.  1.
         23    2    1    2    0    0 -0.43585162772E+01  0.21878858178E+01 -0.71367285780E+02  0.11544823369E+03  0.90615791525E+02 0.  0.
         23    2    1    2    0    0  0.14131418716E+03  0.88124221674E+02  0.15344121204E+03  0.24414712886E+03  0.91258079312E+02 0.  0.
        -13    1    3    3    0    0  0.30457819776E+02  0.25150808120E+02 -0.60662974177E+02  0.72389490747E+02  0.00000000000E+00 0. -1.
         13    1    3    3    0    0 -0.34816336053E+02 -0.22962922302E+02 -0.10704311603E+02  0.43058742941E+02  0.00000000000E+00 0.  1.
        -13    1    4    4    0    0  0.10967523289E+03  0.31268690629E+02  0.56188889659E+02  0.12713606508E+03  0.00000000000E+00 0.  1.
         13    1    4    4    0    0  0.31638954266E+02  0.56855531045E+02  0.97252322382E+02  0.11701106378E+03  0.00000000000E+00 0. -1.
         21    1    1    2  502  503 -0.53992228677E+02 -0.44608938402E+02  0.50519463687E+02  0.86355858829E+02  0.00000000000E+00 0.  1.
         21    1    1    2  503  501 -0.82963442205E+02 -0.45703169090E+02 -0.73117981020E+02  0.11965764311E+03  0.00000000000E+00 0.  1.
<scales pt_clust_5="13000.00000" pt_clust_6="13000.00000" pt_clust_7="13000.00000" pt_clust_8="13000.00000" pt_clust_9="70.03655" pt_clust_10="107.73073"></scales>
<clustering>
<clus scale="   70.037">  1  9  2 -1</clus>
<clus scale="   90.616">  5  6 -1 -1</clus>
<clus scale="   91.104">  2  5  1 -1</clus>
<clus scale="   91.258">  7  8 -1 -1</clus>
<clus scale="  107.731">  2 10  1 -1</clus>
<clus scale="   70.037">  1  5  2 -1</clus>
</clustering>
</event>
<event>
10    2  0.2445576E-006  0.1025371E+03  0.7546771E-02  0.1276993E+00
         -1   -1    0    0    0  501 -0.00000000000E+00  0.00000000000E+00  0.40064518418E+03  0.40064518418E+03  0.00000000000E+00 0.  1.
          1   -1    0    0  502    0  0.00000000000E+00 -0.00000000000E+00 -0.11521902678E+03  0.11521902678E+03  0.00000000000E+00 0. -1.
         23    2    1    2    0    0  0.78728711630E+02 -0.33439548467E+02  0.12401286187E+03  0.17593465612E+03  0.90870236479E+02 0.  0.
         23    2    1    2    0    0 -0.24760765331E+01  0.16422742493E+02  0.27826384261E+02  0.92482770926E+02  0.86619384846E+02 0.  0.
        -13    1    3    3    0    0  0.88244395148E+02 -0.16767252844E+01  0.70406722280E+02  0.11290257404E+03  0.00000000000E+00 0. -1.
         13    1    3    3    0    0 -0.95156835180E+01 -0.31762823183E+02  0.53606139589E+02  0.63032082078E+02  0.00000000000E+00 0.  1.
        -13    1    4    4    0    0  0.87054316159E+01  0.51060923587E+02  0.16091961065E+02  0.54239779389E+02  0.00000000000E+00 0. -1.
         13    1    4    4    0    0 -0.11181508149E+02 -0.34638181094E+02  0.11734423197E+02  0.38242991538E+02  0.00000000000E+00 0.  1.
         21    1    1    2  502  503 -0.46057626175E+02  0.18760543254E+02 -0.44545456338E+02  0.66764965307E+02  0.00000000000E+00 0. -1.
         21    1    1    2  503  501 -0.30195008922E+02 -0.17437372801E+01  0.17813236761E+03  0.18068181860E+03  0.00000000000E+00 0.  1.
<scales pt_clust_5="13000.00000" pt_clust_6="13000.00000" pt_clust_7="13000.00000" pt_clust_8="13000.00000" pt_clust_9="51.10731" pt_clust_10="30.24532"></scales>
<clustering>
<clus scale="   30.245">  1 10  2 -1</clus>
<clus scale="   51.107">  2  9  1 -1</clus>
<clus scale="   86.619">  7  8 -1 -1</clus>
<clus scale="   90.870">  5  6 -1 -1</clus>
<clus scale="   98.790">  2  7  1 -1</clus>
<clus scale="   51.107">  2  5  1 -1</clus>
</clustering>
</event>
<event>
10    2  0.2445576E-006  0.1121182E+03  0.7546771E-02  0.1260065E+00
         -1   -1    0    0    0  501 -0.00000000000E+00  0.00000000000E+00  0.70219496335E+03  0.70219496335E+03  0.00000000000E+00 0.  1.
          1   -1    0    0  502    0  0.00000000000E+00 -0.00000000000E+00 -0.14899072567E+03  0.14899072567E+03  0.00000000000E+00 0. -1.
         23    2    1    2    0    0  0.35512810390E+02  0.68609316500E+02  0.47974998070E+02  0.12289433587E+03  0.82662079197E+02 0.  0.
         23    2    1    2    0    0  0.43022869617E+02 -0.81472222651E+02 -0.32074273106E+02  0.13383962226E+03  0.91627480140E+02 0.  0.
        -11    1    4    4    0    0  0.20453032876E+02 -0.99170548231E+02 -0.25120882401E+02  0.10432728753E+03  0.00000000000E+00 0. -1.
         11    1    4    4    0    0  0.22569836741E+02  0.17698325580E+02 -0.69533907050E+01  0.29512334729E+02  0.00000000000E+00 0.  1.
        -11    1    3    3    0    0  0.42599698082E+02  0.28964816235E+02  0.61671661691E+02  0.80356012295E+02  0.00000000000E+00 0.  1.
         11    1    3    3    0    0 -0.70868876924E+01  0.39644500265E+02 -0.13696663620E+02  0.42538323577E+02  0.00000000000E+00 0. -1.
         21    1    1    2  502  503 -0.46235233133E+01  0.41597964894E+02 -0.86753894063E+01  0.42743771856E+02  0.00000000000E+00 0. -1.
         21    1    1    2  503  501 -0.73912156693E+02 -0.28735058743E+02  0.54597890211E+03  0.55170795903E+03  0.00000000000E+00 0.  1.
<scales pt_clust_5="13000.00000" pt_clust_6="13000.00000" pt_clust_7="13000.00000" pt_clust_8="13000.00000" pt_clust_9="41.85412" pt_clust_10="79.05687"></scales>
<clustering>
<clus scale="   41.854">  2  9  1 -1</clus>
<clus scale="   79.057">  1 10  2 -1</clus>
<clus scale="   82.662">  7  8 -1 -1</clus>
<clus scale="   91.627">  5  6 -1 -1</clus>
<clus scale="  104.919">  1  7  2 -1</clus>
<clus scale="   41.854">  2  5  1 -1</clus>
</clustering>
</event>
<event>
10    2  0.2445576E-006  0.1222701E+03  0.7546771E-02  0.1241071E+00
         -2   -1    0    0    0  501 -0.00000000000E+00  0.00000000000E+00  0.24899183451E+03  0.24899183451E+03  0.00000000000E+00 0.  1.
          2   -1    0    0  502    0  0.00000000000E+00 -0.00000000000E+00 -0.30999199808E+03  0.30999199808E+03  0.00000000000E+00 0. -1.
         23    2    1    2    0    0 -0.10759521247E+03  0.14307588074E+02  0.60706252053E+02  0.15493745996E+03  0.92406334399E+02 0.  0.
         23    2    1    2    0    0  0.35390099670E+02 -0.64510434835E+02 -0.19612827510E+03  0.22679861905E+03  0.86932490763E+02 0.  0.
        -11    1    3    3    0    0 -0.83620353934E+02  0.30104860949E+02  0.80622655538E+02  0.11999449500E+03  0.00000000000E+00 0.  1.
         11    1    3    3    0    0 -0.23974858532E+02 -0.15797272875E+02 -0.19916403486E+02  0.34942964953E+02  0.00000000000E+00 0. -1.
        -13    1    4    4    0    0  0.54237233616E+01 -0.55574994323E+02 -0.42910290966E+02  0.70422225468E+02  0.00000000000E+00 0.  1.
         13    1    4    4    0    0  0.29966376309E+02 -0.89354405125E+01 -0.15321798414E+03  0.15637639358E+03  0.00000000000E+00 0. -1.
         21    1    1    2  502  503  0.40597539178E+02  0.50478387715E+02 -0.27621172448E+02  0.70421282160E+02  0.00000000000E+00 0. -1.
         21    1    1    2  503  501  0.31607573617E+02 -0.27554095389E+00  0.10204303193E+03  0.10682647143E+03  0.00000000000E+00 0.  1.
<scales pt_clust_5="13000.00000" pt_clust_6="13000.00000" pt_clust_7="13000.00000" pt_clust_8="13000.00000" pt_clust_9="67.77853" pt_clust_10="31.60877"></scales>
<clustering>
<clus scale="   31.609">  1 10  2 -1</clus>
<clus scale="   67.779">  2  9  1 -1</clus>
<clus scale="   86.932">  7  8 -1 -1</clus>
<clus scale="   92.406">  5  6 -1 -1</clus>
<clus scale="  118.188">  2  7  1 -1</clus>
<clus scale="   67.779">  2  5  1 -1</clus>
</clustering>
</event>
<event>
10    2  0.2445576E-006  0.1886860E+03  0.7546771E-02  0.1185247E+00
         -1   -1    0    0    0  501 -0.00000000000E+00  0.00000000000E+00  0.10256502454E+04  0.10256502454E+04  0.00000000000E+00 0.  1.
          1   -1    0    0  502    0  0.00000000000E+00 -0.00000000000E+00 -0.92294999925E+02  0.92294999925E+02  0.00000000000E+00 0. -1.
         23    2    1    2    0    0 -0.13263719247E+03  0.14449066477E+03  0.65506245573E+03  0.68970850318E+03  0.90115600326E+02 0.  0.
         23    2    1    2    0    0  0.43291100825E+02 -0.27774504658E+02  0.13098180237E+03  0.16686760418E+03  0.89682898340E+02 0.  0.
        -11    1    3    3    0    0 -0.11573482190E+03  0.79348995630E+02  0.52285595853E+03  0.54135862927E+03  0.00000000000E+00 0.  1.
         11    1    3    3    0    0 -0.16902370570E+02  0.65141669145E+02  0.13220649719E+03  0.14834987391E+03  0.00000000000E+00 0. -1.
        -13    1    4    4    0    0  0.35061461306E+02  0.15522690490E+02  0.12302527863E+02  0.40269246092E+02  0.00000000000E+00 0.  1.
         13    1    4    4    0    0  0.82296395193E+01 -0.43297195149E+02  0.11867927451E+03  0.12659835809E+03  0.00000000000E+00 0. -1.
         21    1    1    2  502  503  0.77503821979E+02 -0.93763873736E+02  0.10455139530E+02  0.12209756911E+03  0.00000000000E+00 0.  1.
         21    1    1    2  503  501  0.11842269661E+02 -0.22952286380E+02  0.13685584780E+03  0.13927156881E+03  0.00000000000E+00 0.  1.
<scales pt_clust_5="13000.00000" pt_clust_6="13000.00000" pt_clust_7="13000.00000" pt_clust_8="13000.00000" pt_clust_9="165.77576" pt_clust_10="25.82725"></scales>
<clustering>
<clus scale="   25.827">  1 10  2 -1</clus>
<clus scale="   89.683">  7  8 -1 -1</clus>
<clus scale="   90.116">  5  6 -1 -1</clus>
<clus scale="  105.325">  2  7  1 -1</clus>
<clus scale="  165.776">  2  9  1 -1</clus>
<clus scale="  105.325">  2  5  1 -1</clus>
</clustering>
</event>
<event>
10    2  0.2445576E-006  0.1329189E+03  0.7546771E-02  0.1231663E+00
         -1   -1    0    0    0  501 -0.00000000000E+00  0.00000000000E+00  0.56463037425E+02  0.56463037425E+02  0.00000000000E+00 0.  1.
          1   -1    0    0  502    0  0.00000000000E+00 -0.00000000000E+00 -0.67770180841E+03  0.67770180841E+03  0.00000000000E+00 0. -1.
         23    2    1    2    0    0 -0.40419726137E+02 -0.25907958122E+02 -0.10869736801E+03  0.15031469741E+03  0.92056579827E+02 0.  0.
         23    2    1    2    0    0  0.59540302878E+02  0.36848491640E+02 -0.44850588118E+03  0.46879753517E+03  0.11709288845E+03 0.  0.
        -11    1    4    4    0    0  0.44101714100E+02  0.74532159884E+02 -0.21533784437E+03  0.23209995963E+03  0.00000000000E+00 0. -1.
         11    1    4    4    0    0  0.15438588779E+02 -0.37683668243E+02 -0.23316803681E+03  0.23669757554E+03  0.00000000000E+00 0.  1.
        -11    1    3    3    0    0 -0.34470100716E+02 -0.56670975729E+02 -0.47572022156E+02  0.81626494630E+02  0.00000000000E+00 0.  1.
         11    1    3    3    0    0 -0.59496254204E+01  0.30763017608E+02 -0.61125345859E+02  0.68688202781E+02  0.00000000000E+00 0. -1.
         21    1    1    2  502  503  0.14231207121E+02 -0.23167377067E+02 -0.73435774301E+02  0.78307519201E+02  0.00000000000E+00 0. -1.
         21    1    1    2  503  501 -0.33351783862E+02  0.12226843548E+02  0.94002525069E+01  0.36745094055E+02  0.00000000000E+00 0.  1.
<scales pt_clust_5="13000.00000" pt_clust_6="13000.00000" pt_clust_7="13000.00000" pt_clust_8="13000.00000" pt_clust_9="27.18924" pt_clust_10="35.03973"></scales>
<clustering>
<clus scale="   27.189">  2  9  1 -1</clus>
<clus scale="   35.040">  1 10  2 -1</clus>
<clus scale="   92.057">  7  8 -1 -1</clus>
<clus scale="  111.495">  1  7  2 -1</clus>
<clus scale="  117.093">  5  6 -1 -1</clus>
<clus scale="   27.189">  2  5  1 -1</clus>
</clustering>
</event>
<event>
10    2  0.2445576E-006  0.3546033E+03  0.7546771E-02  0.1060904E+00
          1   -1    0    0  503    0  0.00000000000E+00  0.00000000000E+00  0.15017427534E+04  0.15017427534E+04  0.00000000000E+00 0. -1.
         -1   -1    0    0    0  501 -0.00000000000E+00 -0.00000000000E+00 -0.35419710968E+03  0.35419710968E+03  0.00000000000E+00 0.  1.
         23    2    1    2    0    0 -0.22822821225E+03  0.29211567679E+03  0.66267261675E+03  0.76545845655E+03  0.96808916018E+02 0.  0.
         23    2    1    2    0    0  0.19349808450E+03 -0.25419521526E+03  0.69402747426E+03  0.76939475990E+03  0.90760373344E+02 0.  0.
        -11    1    4    4    0    0  0.32449712260E+02 -0.20481118129E+02  0.35375061622E+02  0.52190564380E+02  0.00000000000E+00 0.  1.
         11    1    4    4    0    0  0.16104837224E+03 -0.23371409713E+03  0.65865241263E+03  0.71720419552E+03  0.00000000000E+00 0. -1.
        -13    1    3    3    0    0 -0.20901682577E+03  0.22694929491E+03  0.59108146196E+03  0.66676180948E+03  0.00000000000E+00 0.  1.
         13    1    3    3    0    0 -0.19211386482E+02  0.65166381878E+02  0.71591154788E+02  0.98696647063E+02  0.00000000000E+00 0. -1.
         21    1    1    2  502  501  0.37926849984E+02  0.48737871080E+02  0.28566317198E+02  0.68043078306E+02  0.00000000000E+00 0.  1.
         21    1    1    2  503  502 -0.31967222266E+01 -0.86658332605E+02 -0.23772076445E+03  0.25304356837E+03  0.00000000000E+00 0. -1.
<scales pt_clust_5="13000.00000" pt_clust_6="13000.00000" pt_clust_7="13000.00000" pt_clust_8="13000.00000" pt_clust_9="61.75618" pt_clust_10="56.54632"></scales>
<clustering>
<clus scale="   61.756">  2  9  1 -1</clus>
<clus scale="   56.546">  2 10  1 -1</clus>
<clus scale="   90.760">  5  6 -1 -1</clus>
<clus scale="   96.809">  7  8 -1 -1</clus>
<clus scale="  353.000">  1  5  2 -1</clus>
<clus scale="  353.000">  1  5  2 -1</clus>
</clustering>
</event>
<event>
10    2  0.2445576E-006  0.9218274E+02  0.7546771E-02  0.1297874E+00
          1   -1    0    0  502    0  0.00000000000E+00  0.00000000000E+00  0.32329368912E+03  0.32329368912E+03  0.00000000000E+00 0. -1.
         -1   -1    0    0    0  501 -0.00000000000E+00 -0.00000000000E+00 -0.94445464345E+02  0.94445464345E+02  0.00000000000E+00 0.  1.
         23    2    1    2    0    0 -0.25637862561E+02 -0.33176932971E+02  0.96724837555E+02  0.13910985468E+03  0.90762594663E+02 0.  0.
         23    2    1    2    0    0 -0.46143974405E+02 -0.12147111691E+02  0.13057917323E+03  0.16623946465E+03  0.91147245866E+02 0.  0.
        -11    1    4    4    0    0  0.24235717774E+02 -0.73329147208E+01  0.11448262179E+02  0.27788565296E+02  0.00000000000E+00 0. -1.
         11    1    4    4    0    0 -0.70379692179E+02 -0.48141969701E+01  0.11913091105E+03  0.13845089936E+03  0.00000000000E+00 0.  1.
        -13    1    3    3    0    0 -0.41705469756E+01 -0.55751604649E+02  0.91923492340E+02  0.10758979193E+03  0.00000000000E+00 0. -1.
         13    1    3    3    0    0 -0.21467315585E+02  0.22574671678E+02  0.48013452156E+01  0.31520062749E+02  0.00000000000E+00 0.  1.
         21    1    1    2  502  503  0.19739191075E+02 -0.12889471483E+02  0.21379069355E+02  0.31825127587E+02  0.00000000000E+00 0.  1.
         21    1    1    2  503  501  0.52042645891E+02  0.58213516144E+02 -0.19834855373E+02  0.80564706546E+02  0.00000000000E+00 0.  1.
<scales pt_clust_5="13000.00000" pt_clust_6="13000.00000" pt_clust_7="13000.00000" pt_clust_8="13000.00000" pt_clust_9="23.57486" pt_clust_10="78.48413"></scales>
<clustering>
<clus scale="   23.575">  1  9  2 -1</clus>
<clus scale="   78.484">  2 10  1 -1</clus>
<clus scale="   90.763">  7  8 -1 -1</clus>
<clus scale="   91.147">  5  6 -1 -1</clus>
<clus scale="   91.802">  2  7  1 -1</clus>
<clus scale="   23.575">  1  5  2 -1</clus>
</clustering>
</event>
<event>
10    2  0.2445576E-006  0.1053283E+03  0.7546771E-02  0.1270040E+00
          1   -1    0    0  502    0  0.00000000000E+00  0.00000000000E+00  0.74338500960E+02  0.74338500960E+02  0.00000000000E+00 0. -1.
         -1   -1    0    0    0  501 -0.00000000000E+00 -0.00000000000E+00 -0.48359503814E+03  0.48359503814E+03  0.00000000000E+00 0.  1.
         23    2    1    2    0    0 -0.41869966378E+02  0.49568101789E+02 -0.19649903168E+03  0.22642054346E+03  0.91892884666E+02 0.  0.
         23    2    1    2    0    0 -0.10725264493E+02 -0.50560732278E+02 -0.16174215410E+03  0.19244716087E+03  0.90575749335E+02 0.  0.
        -11    1    4    4    0    0 -0.22332930343E+02 -0.67896882365E+02 -0.15472316474E+03  0.17043475033E+03  0.00000000000E+00 0.  1.
         11    1    4    4    0    0  0.11607665850E+02  0.17336150086E+02 -0.70189893615E+01  0.22012410544E+02  0.00000000000E+00 0. -1.
        -11    1    3    3    0    0  0.23431707735E+02  0.20959593423E+02 -0.10959373977E+03  0.11401375918E+03  0.00000000000E+00 0.  1.
         11    1    3    3    0    0 -0.65301674113E+02  0.28608508365E+02 -0.86905291906E+02  0.11240678429E+03  0.00000000000E+00 0. -1.
         21    1    1    2  502  503  0.28114605478E+02  0.12823081156E+02  0.36267271646E+02  0.47646379130E+02  0.00000000000E+00 0.  1.
         21    1    1    2  503  501  0.24480625393E+02 -0.11830450666E+02 -0.87282623049E+02  0.91419455636E+02  0.00000000000E+00 0.  1.
<scales pt_clust_5="13000.00000" pt_clust_6="13000.00000" pt_clust_7="13000.00000" pt_clust_8="13000.00000" pt_clust_9="31.15290" pt_clust_10="27.18935"></scales>
<clustering>
<clus scale="   27.189">  2 10  1 -1</clus>
<clus scale="   31.153">  1  9  2 -1</clus>
<clus scale="   90.576">  5  6 -1 -1</clus>
<clus scale="   91.893">  7  8 -1 -1</clus>
<clus scale="  104.181">  1  5  2 -1</clus>
<clus scale="   31.153">  1  5  2 -1</clus>
</clustering>
</event>
<event>
10    2  0.2445576E-006  0.1231842E+03  0.7546771E-02  0.1238064E+00
         -1   -1    0    0    0  501 -0.00000000000E+00  0.00000000000E+00  0.40789039561E+02  0.40789039561E+02  0.00000000000E+00 0.  1.
          1   -1    0    0  502    0  0.00000000000E+00 -0.00000000000E+00 -0.94721961412E+03  0.94721961412E+03  0.00000000000E+00 0. -1.
         23    2    1    2    0    0 -0.63871278683E+02  0.88179327571E+02 -0.15412503246E+03  0.21008279549E+03  0.92331583321E+02 0.  0.
         23    2    1    2    0    0  0.31333604725E+02 -0.43827847500E+02 -0.57685067147E+03  0.58660433873E+03  0.91898193936E+02 0.  0.
        -11    1    4    4    0    0  0.45200946959E+02 -0.65842074278E+02 -0.46113315050E+03  0.46799795602E+03  0.00000000000E+00 0. -1.
         11    1    4    4    0    0 -0.13867342234E+02  0.22014226778E+02 -0.11571752097E+03  0.11860638272E+03  0.00000000000E+00 0.  1.
        -13    1    3    3    0    0 -0.61975352379E+02  0.15225603875E+02 -0.42345008336E+02  0.76588922482E+02  0.00000000000E+00 0.  1.
         13    1    3    3    0    0 -0.18959263039E+01  0.72953723696E+02 -0.11178002412E+03  0.13349387301E+03  0.00000000000E+00 0. -1.
         21    1    1    2  502  503  0.24247634300E+02 -0.18870364444E+02 -0.15388622651E+03  0.15692357736E+03  0.00000000000E+00 0. -1.
         21    1    1    2  503  501  0.82900396579E+01 -0.25481115627E+02 -0.21568644126E+02  0.34397942098E+02  0.00000000000E+00 0.  1.
<scales pt_clust_5="13000.00000" pt_clust_6="13000.00000" pt_clust_7="13000.00000" pt_clust_8="13000.00000" pt_clust_9="31.71260" pt_clust_10="26.79575"></scales>
<clustering>
<clus scale="   26.796">  1 10  2 -1</clus>
<clus scale="   31.713">  2  9  1 -1</clus>
<clus scale="   91.898">  5  6 -1 -1</clus>
<clus scale="   92.332">  7  8 -1 -1</clus>
<clus scale="  122.860">  2  5  1 -1</clus>
<clus scale="   31.713">  2  5  1 -1</clus>
</clustering>
</event>
<event>
10    2  0.2445576E-006  0.1052456E+03  0.7546771E-02  0.1270278E+00
         -1   -1    0    0    0  501 -0.00000000000E+00  0.00000000000E+00  0.12763081843E+03  0.12763081843E+03  0.00000000000E+00 0.  1.
          1   -1    0    0  502    0  0.00000000000E+00 -0.00000000000E+00 -0.23474047193E+03  0.23474047193E+03  0.00000000000E+00 0. -1.
         23    2    1    2    0    0 -0.39245991290E+02  0.44600051395E+02  0.31821726991E+02  0.11211043094E+03  0.89591930443E+02 0.  0.
         23    2    1    2    0    0 -0.29124748491E+02 -0.46502079878E+02 -0.83195112024E+02  0.13501930671E+03  0.91093864288E+02 0.  0.
        -11    1    3    3    0    0 -0.27225595089E+02 -0.23535236466E+02  0.77507967202E-01  0.35988142366E+02  0.00000000000E+00 0.  1.
         11    1    3    3    0    0 -0.12020396202E+02  0.68135287861E+02  0.31744219024E+02  0.76122288576E+02  0.00000000000E+00 0. -1.
        -11    1    4    4    0    0 -0.58197422691E+02 -0.12474918532E+02 -0.34140699270E+02  0.68615967143E+02  0.00000000000E+00 0.  1.
         11    1    4    4    0    0  0.29072674200E+02 -0.34027161347E+02 -0.49054412753E+02  0.66403339562E+02  0.00000000000E+00 0. -1.
         21    1    1    2  502  503  0.33859077739E+02 -0.17523065956E+02 -0.64272460584E+02  0.74729138730E+02  0.00000000000E+00 0. -1.
         21    1    1    2  503  501  0.34511662043E+02  0.19425094439E+02  0.85361921221E+01  0.40512413985E+02  0.00000000000E+00 0. -1.
<scales pt_clust_5="13000.00000" pt_clust_6="13000.00000" pt_clust_7="13000.00000" pt_clust_8="13000.00000" pt_clust_9="38.12473" pt_clust_10="41.74032"></scales>
<clustering>
<clus scale="   38.125">  2  9  1 -1</clus>
<clus scale="   41.740">  1 10  2 -1</clus>
<clus scale="   89.592">  5  6 -1 -1</clus>
<clus scale="   91.094">  7  8 -1 -1</clus>
<clus scale="  103.948">  1  5  2 -1</clus>
<clus scale="   38.125">  2  5  1 -1</clus>
</clustering>
</event>
<event>
10    2  0.2445576E-006  0.1126599E+03  0.7546771E-02  0.1257711E+00
          3   -1    0    0  502    0  0.00000000000E+00  0.00000000000E+00  0.10868087958E+03  0.10868087958E+03  0.00000000000E+00 0. -1.
         -3   -1    0    0    0  501 -0.00000000000E+00 -0.00000000000E+00 -0.38461043801E+03  0.38461043801E+03  0.00000000000E+00 0.  1.
         23    2    1    2    0    0 -0.42348492423E+02 -0.91134210885E+02 -0.93749463951E+02  0.16409241287E+03  0.89657786972E+02 0.  0.
         23    2    1    2    0    0 -0.12543727491E+02  0.59180204735E+02  0.12901550824E+02  0.10442710525E+03  0.84136368861E+02 0.  0.
        -13    1    3    3    0    0  0.16289456159E+02 -0.17630038709E+02 -0.59263039798E+02  0.63939600663E+02  0.00000000000E+00 0.  1.
         13    1    3    3    0    0 -0.58637948582E+02 -0.73504172176E+02 -0.34486424153E+02  0.10015281220E+03  0.00000000000E+00 0. -1.
        -13    1    4    4    0    0  0.54021589147E+01 -0.20814948505E+02  0.49477856713E+00  0.21510234960E+02  0.00000000000E+00 0.  1.
         13    1    4    4    0    0 -0.17945886406E+02  0.79995153239E+02  0.12406772257E+02  0.82916870289E+02  0.00000000000E+00 0. -1.
         21    1    1    2  502  503  0.35220457377E+02 -0.10082255006E+02 -0.16359693919E+02  0.40121964919E+02  0.00000000000E+00 0.  1.
         21    1    1    2  503  501  0.19671762536E+02  0.42036261156E+02 -0.17872195139E+03  0.18464983456E+03  0.00000000000E+00 0.  1.
<scales pt_clust_5="13000.00000" pt_clust_6="13000.00000" pt_clust_7="13000.00000" pt_clust_8="13000.00000" pt_clust_9="36.63513" pt_clust_10="46.60213"></scales>
<clustering>
<clus scale="   36.635">  1  9  2 -1</clus>
<clus scale="   46.602">  2 10  1 -1</clus>
<clus scale="   84.136">  7  8 -1 -1</clus>
<clus scale="   89.658">  5  6 -1 -1</clus>
<clus scale="  108.317">  1  7  2 -1</clus>
<clus scale="   36.635">  1  5  2 -1</clus>
</clustering>
</event>
<event>
10    2  0.2445576E-006  0.1156382E+03  0.7546771E-02  0.1251645E+00
          3   -1    0    0  502    0  0.00000000000E+00  0.00000000000E+00  0.58832651826E+03  0.58832651826E+03  0.00000000000E+00 0. -1.
         -3   -1    0    0    0  501 -0.00000000000E+00 -0.00000000000E+00 -0.23657530880E+03  0.23657530880E+03  0.00000000000E+00 0.  1.
         23    2    1    2    0    0 -0.11120315672E+02  0.70345293417E+02 -0.10918619538E+03  0.15925841528E+03  0.91484948762E+02 0.  0.
         23    2    1    2    0    0 -0.10865349584E+03 -0.50187201647E+02  0.47467603775E+03  0.49739254081E+03  0.88077587800E+02 0.  0.
        -13    1    4    4    0    0  0.10224799180E+01 -0.37000583066E+02  0.14739662981E+03  0.15197320518E+03  0.00000000000E+00 0.  1.
         13    1    4    4    0    0 -0.10967597576E+03 -0.13186618581E+02  0.32727940793E+03  0.34541933563E+03  0.00000000000E+00 0. -1.
        -13    1    3    3    0    0 -0.29544565133E+02  0.99447465227E+01  0.21640839053E+01  0.31248401102E+02  0.00000000000E+00 0. -1.
         13    1    3    3    0    0  0.18424249461E+02  0.60400546894E+02 -0.11135027929E+03  0.12801001418E+03  0.00000000000E+00 0.  1.
         21    1    1    2  502  503  0.74179273429E+02 -0.12898288535E+02  0.49386194880E+02  0.90044026445E+02  0.00000000000E+00 0. -1.
         21    1    1    2  503  501  0.45594538082E+02 -0.72598032352E+01 -0.63124827793E+02  0.78206844520E+02  0.00000000000E+00 0.  1.
<scales pt_clust_5="13000.00000" pt_clust_6="13000.00000" pt_clust_7="13000.00000" pt_clust_8="13000.00000" pt_clust_9="80.94885" pt_clust_10="46.16889"></scales>
<clustering>
<clus scale="   46.169">  2 10  1 -1</clus>
<clus scale="   80.949">  1  9  2 -1</clus>
<clus scale="   88.078">  5  6 -1 -1</clus>
<clus scale="   91.485">  7  8 -1 -1</clus>
<clus scale="  112.962">  1  5  2 -1</clus>
<clus scale="   80.949">  1  5  2 -1</clus>
</clustering>
</event>
<event>
10    2  0.2445576E-006  0.1048864E+03  0.7546771E-02  0.1271317E+00
         -2   -1    0    0    0  501 -0.00000000000E+00  0.00000000000E+00  0.12200664660E+03  0.12200664660E+03  0.00000000000E+00 0.  1.
          2   -1    0    0  502    0  0.00000000000E+00 -0.00000000000E+00 -0.52784542359E+03  0.52784542359E+03  0.00000000000E+00 0. -1.
         23    2    1    2    0    0  0.50536822878E+02 -0.81555283200E+01 -0.77487324947E+00  0.10560797893E+03  0.92368618458E+02 0.  0.
         23    2    1    2    0    0 -0.16718344947E+02 -0.26715417189E+02 -0.23582990584E+03  0.25443077891E+03  0.90144662604E+02 0.  0.
        -11    1    4    4    0    0  0.32999412639E+02  0.76210981193E+01 -0.10488809150E+03  0.11022047954E+03  0.00000000000E+00 0. -1.
         11    1    4    4    0    0 -0.49717757586E+02 -0.34336515308E+02 -0.13094181434E+03  0.14421029938E+03  0.00000000000E+00 0.  1.
        -11    1    3    3    0    0  0.18547779083E+02  0.40218164964E+02 -0.13367646122E+02  0.46262456321E+02  0.00000000000E+00 0. -1.
         11    1    3    3    0    0  0.31989043795E+02 -0.48373693284E+02  0.12592772872E+02  0.59345522607E+02  0.00000000000E+00 0.  1.
         21    1    1    2  502  503 -0.40004248581E+02  0.56576631722E+02 -0.22192560951E+03  0.23249135751E+03  0.00000000000E+00 0. -1.
         21    1    1    2  503  501  0.61857706497E+01 -0.21705686213E+02  0.52691611613E+02  0.57321954842E+02  0.00000000000E+00 0.  1.
<scales pt_clust_5="13000.00000" pt_clust_6="13000.00000" pt_clust_7="13000.00000" pt_clust_8="13000.00000" pt_clust_9="67.61464" pt_clust_10="22.56990"></scales>
<clustering>
<clus scale="   22.570">  1 10  2 -1</clus>
<clus scale="   67.615">  2  9  1 -1</clus>
<clus scale="   90.145">  5  6 -1 -1</clus>
<clus scale="   92.369">  7  8 -1 -1</clus>
<clus scale="  102.933">  2  5  1 -1</clus>
<clus scale="   67.615">  2  5  1 -1</clus>
</clustering>
</event>
<event>
10    2  0.2445576E-006  0.1289666E+03  0.7546771E-02  0.1230539E+00
          1   -1    0    0  502    0  0.00000000000E+00  0.00000000000E+00  0.72537154934E+03  0.72537154934E+03  0.00000000000E+00 0. -1.
         -1   -1    0    0    0  501 -0.00000000000E+00 -0.00000000000E+00 -0.55031986809E+02  0.55031986809E+02  0.00000000000E+00 0.  1.
         23    2    1    2    0    0 -0.84905590863E+02  0.51957398448E+02  0.17039298830E+03  0.21552376321E+03  0.86649820737E+02 0.  0.
         23    2    1    2    0    0  0.77485414100E+02 -0.59661787982E+02  0.45642741288E+03  0.47584004363E+03  0.92380980418E+02 0.  0.
        -11    1    3    3    0    0 -0.81646088280E+02  0.73696521521E+02  0.14148950276E+03  0.17921088250E+03  0.00000000000E+00 0.  1.
         11    1    3    3    0    0 -0.32595025834E+01 -0.21739123073E+02  0.28903485541E+02  0.36312880711E+02  0.00000000000E+00 0. -1.
        -13    1    4    4    0    0  0.41764600258E+02 -0.71716261493E+02  0.39610604831E+03  0.40470669071E+03  0.00000000000E+00 0. -1.
         13    1    4    4    0    0  0.35720813842E+02  0.12054473511E+02  0.60321364574E+02  0.71133352918E+02  0.00000000000E+00 0.  1.
         21    1    1    2  502  503 -0.12774524526E+02  0.15771939456E+02  0.58968734704E+02  0.62363885572E+02  0.00000000000E+00 0.  1.
         21    1    1    2  503  501  0.20194701289E+02 -0.80675499218E+01 -0.15449573362E+02  0.26675843735E+02  0.00000000000E+00 0.  1.
<scales pt_clust_5="13000.00000" pt_clust_6="13000.00000" pt_clust_7="13000.00000" pt_clust_8="13000.00000" pt_clust_9="20.29637" pt_clust_10="21.59710"></scales>
<clustering>
<clus scale="   20.296">  1  9  2 -1</clus>
<clus scale="   21.597">  2 10  1 -1</clus>
<clus scale="   86.650">  5  6 -1 -1</clus>
<clus scale="   92.381">  7  8 -1 -1</clus>
<clus scale="  124.925">  2  5  1 -1</clus>
<clus scale="   20.296">  1  5  2 -1</clus>
</clustering>
</event>
<event>
10    2  0.2445576E-006  0.1075347E+03  0.7546771E-02  0.1266030E+00
         -2   -1    0    0    0  501 -0.00000000000E+00  0.00000000000E+00  0.20776973516E+03  0.20776973516E+03  0.00000000000E+00 0.  1.
          2   -1    0    0  502    0  0.00000000000E+00 -0.00000000000E+00 -0.64535497203E+03  0.64535497203E+03  0.00000000000E+00 0. -1.
         23    2    1    2    0    0 -0.36871686031E+02  0.62683013717E+02  0.13556576987E+03  0.17986660982E+03  0.93194623921E+02 0.  0.
         23    2    1    2    0    0  0.70247954296E+02  0.35514686014E+02 -0.51024404550E+03  0.52427488731E+03  0.91209119558E+02 0.  0.
        -11    1    3    3    0    0 -0.37111057540E+02 -0.15273390161E+02  0.50008951816E+02  0.64120217565E+02  0.00000000000E+00 0.  1.
         11    1    3    3    0    0  0.23937150913E+00  0.77956403878E+02  0.85556818049E+02  0.11574639225E+03  0.00000000000E+00 0. -1.
        -11    1    4    4    0    0  0.32161412675E+02  0.64664095864E+02 -0.32439207318E+03  0.33233419761E+03  0.00000000000E+00 0. -1.
         11    1    4    4    0    0  0.38086541622E+02 -0.29149409850E+02 -0.18585197232E+03  0.19194068970E+03  0.00000000000E+00 0.  1.
         21    1    1    2  502  503 -0.22117644643E+02 -0.13492913306E+02 -0.57846820285E+02  0.63383779716E+02  0.00000000000E+00 0.  1.
         21    1    1    2  503  501 -0.11258623622E+02 -0.84704786425E+02 -0.50601409555E+01  0.85599430347E+02  0.00000000000E+00 0.  1.
<scales pt_clust_5="13000.00000" pt_clust_6="13000.00000" pt_clust_7="13000.00000" pt_clust_8="13000.00000" pt_clust_9="25.90847" pt_clust_10="86.72658"></scales>
<clustering>
<clus scale="   25.908">  2  9  1 -1</clus>
<clus scale="   86.727">  1 10  2 -1</clus>
<clus scale="   91.209">  7  8 -1 -1</clus>
<clus scale="   93.195">  5  6 -1 -1</clus>
<clus scale="  105.819">  2  7  1 -1</clus>
<clus scale="   25.908">  2  5  1 -1</clus>
</clustering>
</event>
<event>
10    2  0.2445576E-006  0.1531027E+03  0.7546771E-02  0.1217907E+00
          1   -1    0    0  502    0  0.00000000000E+00  0.00000000000E+00  0.43820606710E+03  0.43820606710E+03  0.00000000000E+00 0. -1.
         -1   -1    0    0    0  501 -0.00000000000E+00 -0.00000000000E+00 -0.23229220827E+03  0.23229220827E+03  0.00000000000E+00 0.  1.
         23    2    1    2    0    0  0.27383269905E+02 -0.32146798799E+02 -0.99220407938E+02  0.13878567243E+03  0.87369979831E+02 0.  0.
         23    2    1    2    0    0  0.86631792287E+02  0.80368476080E+01 -0.79167634591E+01  0.12717352709E+03  0.92416299939E+02 0.  0.
        -11    1    4    4    0    0  0.98313212455E+01  0.40155326696E+02 -0.14146386896E+02  0.43694683906E+02  0.00000000000E+00 0. -1.
         11    1    4    4    0    0  0.76800471042E+02 -0.32118479088E+02  0.62296234365E+01  0.83478843184E+02  0.00000000000E+00 0.  1.
        -11    1    3    3    0    0  0.36104156828E+02  0.98852367585E+01 -0.86120634291E+02  0.93904162298E+02  0.00000000000E+00 0.  1.
         11    1    3    3    0    0 -0.87208869230E+01 -0.42032035558E+02 -0.13099773646E+02  0.44881510129E+02  0.00000000000E+00 0. -1.
         21    1    1    2  502  503 -0.12792786411E+03  0.89273016832E+01  0.34413517876E+03  0.36725230617E+03  0.00000000000E+00 0. -1.
         21    1    1    2  503  501  0.13912801917E+02  0.15182649508E+02 -0.31084148530E+02  0.37286769679E+02  0.00000000000E+00 0. -1.
<scales pt_clust_5="13000.00000" pt_clust_6="13000.00000" pt_clust_7="13000.00000" pt_clust_8="13000.00000" pt_clust_9="122.06417" pt_clust_10="20.59318"></scales>
<clustering>
<clus scale="   20.593">  2 10  1 -1</clus>
<clus scale="   87.370">  7  8 -1 -1</clus>
<clus scale="   92.416">  5  6 -1 -1</clus>
<clus scale="   97.165">  2  7  1 -1</clus>
<clus scale="  122.064">  1  9  2 -1</clus>
<clus scale="  122.064">  1  5  2 -1</clus>
</clustering>
</event>
<event>
10    2  0.2445576E-006  0.2120655E+03  0.7546771E-02  0.1140545E+00
         -1   -1    0    0    0  501 -0.00000000000E+00  0.00000000000E+00  0.48433717566E+03  0.48433717566E+03  0.00000000000E+00 0.  1.
          1   -1    0    0  502    0  0.00000000000E+00 -0.00000000000E+00 -0.71142145436E+03  0.71142145436E+03  0.00000000000E+00 0. -1.
         23    2    1    2    0    0 -0.60500650983E+02 -0.18369122721E+03  0.25511557779E+03  0.33365817991E+03  0.94026736978E+02 0.  0.
         23    2    1    2    0    0  0.28989475382E+02  0.14865509633E+03  0.42386512762E+02  0.18672859088E+03  0.10065894317E+03 0.  0.
        -11    1    3    3    0    0  0.15878429013E+02 -0.93201492425E+02  0.13656295134E+03  0.16609660555E+03  0.00000000000E+00 0.  1.
         11    1    3    3    0    0 -0.76379079996E+02 -0.90489734786E+02  0.11855262645E+03  0.16756157436E+03  0.00000000000E+00 0. -1.
        -13    1    4    4    0    0 -0.28369962484E+02  0.21130850256E+02 -0.11012136839E+02  0.37049085841E+02  0.00000000000E+00 0.  1.
         13    1    4    4    0    0  0.57359437866E+02  0.12752424608E+03  0.53398649601E+02  0.14967950504E+03  0.00000000000E+00 0. -1.
         21    1    1    2  502  503  0.11355202605E+03  0.82329163514E+02 -0.55768974874E+03  0.57505652734E+03  0.00000000000E+00 0. -1.
         21    1    1    2  503  501 -0.82040850453E+02 -0.47293032636E+02  0.33103379493E+02  0.10031533189E+03  0.00000000000E+00 0.  1.
<scales pt_clust_5="13000.00000" pt_clust_6="13000.00000" pt_clust_7="13000.00000" pt_clust_8="13000.00000" pt_clust_9="138.29939" pt_clust_10="94.69600"></scales>
<clustering>
<clus scale="   94.027">  5  6 -1 -1</clus>
<clus scale="   94.696">  1 10  2 -1</clus>
<clus scale="  100.659">  7  8 -1 -1</clus>
<clus scale="  138.299">  2  9  1 -1</clus>
<clus scale="  208.999">  1  5  2 -1</clus>
<clus scale="  138.299">  2  5  1 -1</clus>
</clustering>
</event>
<event>
10    2  0.2445576E-006  0.2473747E+03  0.7546771E-02  0.1115006E+00
          3   -1    0    0  502    0  0.00000000000E+00  0.00000000000E+00  0.59707547768E+03  0.59707547768E+03  0.00000000000E+00 0. -1.
         -3   -1    0    0    0  501 -0.00000000000E+00 -0.00000000000E+00 -0.45132122682E+03  0.45132122682E+03  0.00000000000E+00 0.  1.
         23    2    1    2    0    0 -0.22704807360E+03  0.86101227890E+02 -0.15046952103E+03  0.30005895033E+03  0.91815291472E+02 0.  0.
         23    2    1    2    0    0  0.20907412606E+03 -0.70326609929E+02  0.37285470532E+03  0.44294929810E+03  0.92334322766E+02 0.  0.
        -11    1    3    3    0    0 -0.94851482882E+02  0.47967253484E+02 -0.11776462439E+03  0.15863848200E+03  0.00000000000E+00 0. -1.
         11    1    3    3    0    0 -0.13219659071E+03  0.38133974405E+02 -0.32704896635E+02  0.14142046834E+03  0.00000000000E+00 0.  1.
        -11    1    4    4    0    0  0.88280997732E+02  0.16305955670E+02  0.12415349670E+03  0.15321067030E+03  0.00000000000E+00 0.  1.
         11    1    4    4    0    0  0.12079312833E+03 -0.86632565599E+02  0.24870120861E+03  0.28973862780E+03  0.00000000000E+00 0. -1.
         21    1    1    2  502  503 -0.36373886704E+01 -0.31124255174E+02  0.11128469057E+03  0.11561242239E+03  0.00000000000E+00 0. -1.
         21    1    1    2  503  501  0.21611336209E+02  0.15349637213E+02 -0.18791562400E+03  0.18977603367E+03  0.00000000000E+00 0.  1.
<scales pt_clust_5="13000.00000" pt_clust_6="13000.00000" pt_clust_7="13000.00000" pt_clust_8="13000.00000" pt_clust_9="31.19013" pt_clust_10="26.50776"></scales>
<clustering>
<clus scale="   26.508">  2 10  1 -1</clus>
<clus scale="   31.190">  1  9  2 -1</clus>
<clus scale="   91.815">  5  6 -1 -1</clus>
<clus scale="   92.334">  7  8 -1 -1</clus>
<clus scale="  247.181">  2  5  1 -1</clus>
<clus scale="   31.190">  1  5  2 -1</clus>
</clustering>
</event>
<event>
10    2  0.2445576E-006  0.1726377E+03  0.7546771E-02  0.1175226E+00
          2   -1    0    0  503    0  0.00000000000E+00  0.00000000000E+00  0.90274432360E+03  0.90274432360E+03  0.00000000000E+00 0. -1.
         -2   -1    0    0    0  501 -0.00000000000E+00 -0.00000000000E+00 -0.55280238060E+02  0.55280238060E+02  0.00000000000E+00 0.  1.
         23    2    1    2    0    0 -0.10963424145E+02  0.15360645465E+03  0.16711751677E+03  0.24466215315E+03  0.90643064792E+02 0.  0.
         23    2    1    2    0    0  0.22685676718E+02 -0.12669580201E+03  0.53519865097E+03  0.55774941818E+03  0.89890774266E+02 0.  0.
        -11    1    4    4    0    0  0.47101351066E+02 -0.48602063884E+02  0.15987801562E+03  0.17361358750E+03  0.00000000000E+00 0.  1.
         11    1    4    4    0    0 -0.24415674348E+02 -0.78093738129E+02  0.37532063535E+03  0.38413583067E+03  0.00000000000E+00 0. -1.
        -13    1    3    3    0    0 -0.50782759714E+02  0.77855269548E+02  0.92184915339E+02  0.13091367498E+03  0.00000000000E+00 0. -1.
         13    1    3    3    0    0  0.39819335569E+02  0.75751185100E+02  0.74932601433E+02  0.11374847817E+03  0.00000000000E+00 0.  1.
         21    1    1    2  502  501 -0.30362216549E+02 -0.19238616391E+02  0.92525435290E+02  0.99262000434E+02  0.00000000000E+00 0.  1.
         21    1    1    2  503  502  0.18639963976E+02 -0.76720362445E+01  0.52622482507E+02  0.56350989897E+02  0.00000000000E+00 0. -1.
<scales pt_clust_5="13000.00000" pt_clust_6="13000.00000" pt_clust_7="13000.00000" pt_clust_8="13000.00000" pt_clust_9="34.67843" pt_clust_10="20.15709"></scales>
<clustering>
<clus scale="   20.157">  1 10  2 -1</clus>
<clus scale="   34.678">  1  9  2 -1</clus>
<clus scale="   89.891">  5  6 -1 -1</clus>
<clus scale="   90.643">  7  8 -1 -1</clus>
<clus scale="  172.244">  1  5  2 -1</clus>
<clus scale="   20.157">  1  5  2 -1</clus>
</clustering>
</event>
<event>
10    2  0.2445576E-006  0.1674446E+03  0.7546771E-02  0.1181740E+00
         -3   -1    0    0    0  501 -0.00000000000E+00  0.00000000000E+00  0.87352772025E+02  0.87352772025E+02  0.00000000000E+00 0.  1.
          3   -1    0    0  502    0  0.00000000000E+00 -0.00000000000E+00 -0.46876101922E+03  0.46876101922E+03  0.00000000000E+00 0. -1.
         23    2    1    2    0    0  0.12470730244E+03  0.12865713976E+01 -0.72765587715E+02  0.17052633589E+03  0.90723943531E+02 0.  0.
         23    2    1    2    0    0 -0.14484395499E+03  0.44822027267E+01 -0.22870337320E+03  0.28295775267E+03  0.82219191451E+02 0.  0.
        -11    1    4    4    0    0 -0.57846383292E+02 -0.33803244191E+02 -0.63206870142E+02  0.92108478496E+02  0.00000000000E+00 0.  1.
         11    1    4    4    0    0 -0.86997571700E+02  0.38285446918E+02 -0.16549650306E+03  0.19084927417E+03  0.00000000000E+00 0. -1.
        -11    1    3    3    0    0  0.84855373317E+02 -0.26666565870E+02 -0.77175512183E+01  0.89281021011E+02  0.00000000000E+00 0.  1.
         11    1    3    3    0    0  0.39851929119E+02  0.27953137268E+02 -0.65048036497E+02  0.81245314879E+02  0.00000000000E+00 0. -1.
         21    1    1    2  502  503 -0.14801244981E+02 -0.14612434293E+02 -0.55002755997E+02  0.58803939122E+02  0.00000000000E+00 0.  1.
         21    1    1    2  503  501  0.34937897538E+02  0.88436601691E+01 -0.24936530282E+02  0.43825763565E+02  0.00000000000E+00 0. -1.
<scales pt_clust_5="13000.00000" pt_clust_6="13000.00000" pt_clust_7="13000.00000" pt_clust_8="13000.00000" pt_clust_9="20.79904" pt_clust_10="34.55386"></scales>
<clustering>
<clus scale="   20.799">  2  9  1 -1</clus>
<clus scale="   34.554">  1 10  2 -1</clus>
<clus scale="   82.219">  5  6 -1 -1</clus>
<clus scale="   90.724">  7  8 -1 -1</clus>
<clus scale="  162.993">  2  5  1 -1</clus>
<clus scale="   20.799">  2  5  1 -1</clus>
</clustering>
</event>
<event>
10    2  0.2445576E-006  0.1642557E+03  0.7546771E-02  0.1203186E+00
          3   -1    0    0  502    0  0.00000000000E+00  0.00000000000E+00  0.56121819160E+03  0.56121819160E+03  0.00000000000E+00 0. -1.
         -3   -1    0    0    0  501 -0.00000000000E+00 -0.00000000000E+00 -0.19249840175E+03  0.19249840175E+03  0.00000000000E+00 0.  1.
         23    2    1    2    0    0  0.21973094132E+02  0.11840852473E+03 -0.58376978702E+02  0.16856638886E+03  0.10248590253E+03 0.  0.
         23    2    1    2    0    0  0.47131887340E+02 -0.19690397108E+02  0.19920302967E+03  0.22591313376E+03  0.93518823959E+02 0.  0.
        -11    1    4    4    0    0  0.14662167322E+02 -0.54314796320E+02  0.13338648647E+03  0.14476543448E+03  0.00000000000E+00 0.  1.
         11    1    4    4    0    0  0.32469720018E+02  0.34624399212E+02  0.65816543200E+02  0.81147699275E+02  0.00000000000E+00 0. -1.
        -13    1    3    3    0    0  0.13806197122E+02 -0.16348054895E+02  0.20828229269E+00  0.21398910238E+02  0.00000000000E+00 0. -1.
         13    1    3    3    0    0  0.81668970100E+01  0.13475657962E+03 -0.58585260994E+02  0.14716747862E+03  0.00000000000E+00 0.  1.
         21    1    1    2  502  503 -0.97667192339E+02 -0.10097159538E+03  0.27229387243E+03  0.30639532714E+03  0.00000000000E+00 0. -1.
         21    1    1    2  503  501  0.28562210867E+02  0.22534677609E+01 -0.44400133545E+02  0.52841743587E+02  0.00000000000E+00 0. -1.
<scales pt_clust_5="13000.00000" pt_clust_6="13000.00000" pt_clust_7="13000.00000" pt_clust_8="13000.00000" pt_clust_9="128.36114" pt_clust_10="28.65097"></scales>
<clustering>
<clus scale="   28.651">  2 10  1 -1</clus>
<clus scale="   93.519">  5  6 -1 -1</clus>
<clus scale="  102.486">  7  8 -1 -1</clus>
<clus scale="  107.720">  1  5  2 -1</clus>
<clus scale="  128.361">  1  9  2 -1</clus>
<clus scale="  107.720">  1  5  2 -1</clus>
</clustering>
</event>
<event>
10    2  0.2445576E-006  0.1541443E+03  0.7546771E-02  0.1211045E+00
         -1   -1    0    0    0  501 -0.00000000000E+00  0.00000000000E+00  0.19890234630E+03  0.19890234630E+03  0.00000000000E+00 0.  1.
          1   -1    0    0  502    0  0.00000000000E+00 -0.00000000000E+00 -0.41772502034E+03  0.41772502034E+03  0.00000000000E+00 0. -1.
         23    2    1    2    0    0  0.80296185165E+01  0.14861631497E+03 -0.35041979594E+01  0.17485065753E+03  0.91701631317E+02 0.  0.
         23    2    1    2    0    0  0.21759486134E+02 -0.40547725187E+02 -0.11641143310E+03  0.15588583098E+03  0.92904129556E+02 0.  0.
        -11    1    3    3    0    0 -0.30519644576E+02  0.10469936164E+03  0.21727432760E+02  0.11120020848E+03  0.00000000000E+00 0.  1.
         11    1    3    3    0    0  0.38549263093E+02  0.43916953333E+02 -0.25231630719E+02  0.63650449046E+02  0.00000000000E+00 0. -1.
        -11    1    4    4    0    0 -0.25372239768E+02 -0.18436187090E+02 -0.35093210675E+01  0.31558816195E+02  0.00000000000E+00 0.  1.
         11    1    4    4    0    0  0.47131725902E+02 -0.22111538097E+02 -0.11290211203E+03  0.12432701478E+03  0.00000000000E+00 0. -1.
         21    1    1    2  502  503  0.33142617200E+02 -0.76933756633E+01 -0.15221996721E+03  0.15597608638E+03  0.00000000000E+00 0.  1.
         21    1    1    2  503  501 -0.62931721851E+02 -0.10037521412E+03  0.53312924241E+02  0.12991479175E+03  0.00000000000E+00 0.  1.
<scales pt_clust_5="13000.00000" pt_clust_6="13000.00000" pt_clust_7="13000.00000" pt_clust_8="13000.00000" pt_clust_9="34.02383" pt_clust_10="123.90031"></scales>
<clustering>
<clus scale="   34.024">  2  9  1 -1</clus>
<clus scale="   91.702">  5  6 -1 -1</clus>
<clus scale="   92.904">  7  8 -1 -1</clus>
<clus scale="  110.112">  2  7  1 -1</clus>
<clus scale="  123.900">  1 10  2 -1</clus>
<clus scale="   34.024">  2  5  1 -1</clus>
</clustering>
</event>
<event>
10    2  0.2445576E-006  0.1138261E+03  0.7546771E-02  0.1254921E+00
         -2   -1    0    0    0  501 -0.00000000000E+00  0.00000000000E+00  0.33476979214E+03  0.33476979214E+03  0.00000000000E+00 0.  1.
          2   -1    0    0  502    0  0.00000000000E+00 -0.00000000000E+00 -0.16138152081E+03  0.16138152081E+03  0.00000000000E+00 0. -1.
         23    2    1    2    0    0 -0.58233996937E+02 -0.34349829769E+02  0.38309177648E+02  0.12093619489E+03  0.92665316801E+02 0.  0.
         23    2    1    2    0    0  0.42760686370E+02  0.28276885015E+02 -0.27166443505E+02  0.10636150134E+03  0.89144235874E+02 0.  0.
        -11    1    3    3    0    0 -0.71340449054E+01  0.29861813405E+02  0.20632787469E+02  0.36991004518E+02  0.00000000000E+00 0. -1.
         11    1    3    3    0    0 -0.51099952031E+02 -0.64211643174E+02  0.17676390179E+02  0.83945190371E+02  0.00000000000E+00 0.  1.
        -13    1    4    4    0    0  0.50937077791E+02  0.72060651945E+00  0.16966697309E+02  0.53693332782E+02  0.00000000000E+00 0.  1.
         13    1    4    4    0    0 -0.81763914208E+01  0.27556278495E+02 -0.44133140814E+02  0.52668168558E+02  0.00000000000E+00 0. -1.
         21    1    1    2  502  503  0.21375681696E+02  0.55441030490E+02 -0.32593084960E+02  0.67771209352E+02  0.00000000000E+00 0. -1.
         21    1    1    2  503  501 -0.59023711297E+01 -0.49368085736E+02  0.19483862215E+03  0.20108240737E+03  0.00000000000E+00 0.  1.
<scales pt_clust_5="13000.00000" pt_clust_6="13000.00000" pt_clust_7="13000.00000" pt_clust_8="13000.00000" pt_clust_9="53.24726" pt_clust_10="49.71967"></scales>
<clustering>
<clus scale="   49.720">  1 10  2 -1</clus>
<clus scale="   53.247">  2  9  1 -1</clus>
<clus scale="   89.144">  7  8 -1 -1</clus>
<clus scale="   92.665">  5  6 -1 -1</clus>
<clus scale="  110.978">  2  7  1 -1</clus>
<clus scale="   53.247">  2  5  1 -1</clus>
</clustering>
</event>
<event>
10    2  0.2445576E-006  0.1439892E+03  0.7546771E-02  0.1211861E+00
          1   -1    0    0  502    0  0.00000000000E+00  0.00000000000E+00  0.34109771043E+03  0.34109771043E+03  0.00000000000E+00 0. -1.
         -1   -1    0    0    0  501 -0.00000000000E+00 -0.00000000000E+00 -0.17462342734E+03  0.17462342734E+03  0.00000000000E+00 0.  1.
         23    2    1    2    0    0  0.78576548192E+01  0.10426478394E+03  0.88063428084E+02  0.16376755272E+03  0.90176249913E+02 0.  0.
         23    2    1    2    0    0 -0.15672739742E+02 -0.92378878925E+02  0.88425858870E+02  0.16684552815E+03  0.10601323362E+03 0.  0.
        -11    1    4    4    0    0 -0.53231588166E+02 -0.24992960964E+02  0.61612540541E+02  0.85172502771E+02  0.00000000000E+00 0. -1.
         11    1    4    4    0    0  0.37558848423E+02 -0.67385917962E+02  0.26813318329E+02  0.81673025377E+02  0.00000000000E+00 0.  1.
        -13    1    3    3    0    0  0.33020746626E+02  0.18685281159E+02 -0.67116729683E+00  0.37946803624E+02  0.00000000000E+00 0.  1.
         13    1    3    3    0    0 -0.25163091807E+02  0.85579502780E+02  0.88734595380E+02  0.12582074909E+03  0.00000000000E+00 0. -1.
         21    1    1    2  502  503  0.14632829353E+02  0.21708997641E+02  0.82442916776E+02  0.86499912139E+02  0.00000000000E+00 0. -1.
         21    1    1    2  503  501 -0.68177444295E+01 -0.33594902655E+02 -0.92457920644E+02  0.98608144761E+02  0.00000000000E+00 0.  1.
<scales pt_clust_5="13000.00000" pt_clust_6="13000.00000" pt_clust_7="13000.00000" pt_clust_8="13000.00000" pt_clust_9="26.18015" pt_clust_10="33.99012"></scales>
<clustering>
<clus scale="   26.180">  1  9  2 -1</clus>
<clus scale="   33.990">  2 10  1 -1</clus>
<clus scale="   90.176">  7  8 -1 -1</clus>
<clus scale="  106.013">  5  6 -1 -1</clus>
<clus scale="  132.762">  2  7  1 -1</clus>
<clus scale="   26.180">  1  5  2 -1</clus>
</clustering>
</event>
<event>
10    2  0.2445576E-006  0.1019496E+03  0.7546771E-02  0.1278966E+00
          1   -1    0    0  502    0  0.00000000000E+00  0.00000000000E+00  0.15709853946E+03  0.15709853946E+03  0.00000000000E+00 0. -1.
         -1   -1    0    0    0  501 -0.00000000000E+00 -0.00000000000E+00 -0.23977462614E+03  0.23977462614E+03  0.00000000000E+00 0.  1.
         23    2    1    2    0    0 -0.35782604150E+02 -0.34538151548E+02 -0.10670728308E+03  0.14592794620E+03  0.86227852508E+02 0.  0.
         23    2    1    2    0    0 -0.55427914301E+02  0.58639998486E+02  0.36059673268E+02  0.12755896658E+03  0.91978730223E+02 0.  0.
        -11    1    3    3    0    0 -0.32799345040E+02 -0.59432969887E+02 -0.51219410349E+02  0.85038243991E+02  0.00000000000E+00 0.  1.
         11    1    3    3    0    0 -0.29832591099E+01  0.24894818338E+02 -0.55487872734E+02  0.60889702213E+02  0.00000000000E+00 0. -1.
        -11    1    4    4    0    0 -0.80300870394E+02  0.36890141126E+02  0.33178485505E+02  0.94392394814E+02  0.00000000000E+00 0.  1.
         11    1    4    4    0    0  0.24872956093E+02  0.21749857359E+02  0.28811877629E+01  0.33166571769E+02  0.00000000000E+00 0. -1.
         21    1    1    2  502  503  0.29595687789E+02 -0.26398250912E+02  0.29170419875E+02  0.49230943345E+02  0.00000000000E+00 0.  1.
         21    1    1    2  503  501  0.61614830662E+02  0.22964039750E+01 -0.41198896743E+02  0.74155309463E+02  0.00000000000E+00 0.  1.
<scales pt_clust_5="13000.00000" pt_clust_6="13000.00000" pt_clust_7="13000.00000" pt_clust_8="13000.00000" pt_clust_9="39.65819" pt_clust_10="65.76608"></scales>
<clustering>
<clus scale="   39.658">  1  9  2 -1</clus>
<clus scale="   65.766">  2 10  1 -1</clus>
<clus scale="   86.228">  5  6 -1 -1</clus>
<clus scale="   91.979">  7  8 -1 -1</clus>
<clus scale="   96.793">  2  5  1 -1</clus>
<clus scale="   39.658">  1  5  2 -1</clus>
</clustering>
</event>
<event>
10    2  0.2445576E-006  0.1286698E+03  0.7546771E-02  0.1229452E+00
          1   -1    0    0  503    0  0.00000000000E+00  0.00000000000E+00  0.35519166603E+03  0.35519166603E+03  0.00000000000E+00 0. -1.
         -1   -1    0    0    0  501 -0.00000000000E+00 -0.00000000000E+00 -0.40374603391E+03  0.40374603391E+03  0.00000000000E+00 0.  1.
         23    2    1    2    0    0  0.26463375448E+02  0.11936115414E+03 -0.28216272203E+03  0.32071603556E+03  0.91080065924E+02 0.  0.
         23    2    1    2    0    0 -0.33326272255E+02 -0.33967424900E+02 -0.57493338324E+02  0.11777824694E+03  0.91114242151E+02 0.  0.
        -11    1    3    3    0    0 -0.22056639992E+02  0.32480425565E+02 -0.15132607263E+03  0.15633634788E+03  0.00000000000E+00 0. -1.
         11    1    3    3    0    0  0.48520015440E+02  0.86880728573E+02 -0.13083664940E+03  0.16437968768E+03  0.00000000000E+00 0.  1.
        -11    1    4    4    0    0  0.57221779664E+01 -0.53722863203E+02 -0.49537105833E+02  0.73299482984E+02  0.00000000000E+00 0. -1.
         11    1    4    4    0    0 -0.39048450221E+02  0.19755438302E+02 -0.79562324908E+01  0.44478763952E+02  0.00000000000E+00 0.  1.
         21    1    1    2  502  501  0.77718735553E+01 -0.64195831850E+02  0.29212979813E+03  0.29920114606E+03  0.00000000000E+00 0. -1.
         21    1    1    2  503  502 -0.90897674855E+00 -0.21197897389E+02 -0.10281056641E+01  0.21242271387E+02  0.00000000000E+00 0. -1.
<scales pt_clust_5="13000.00000" pt_clust_6="13000.00000" pt_clust_7="13000.00000" pt_clust_8="13000.00000" pt_clust_9="82.65437" pt_clust_10="21.21738"></scales>
<clustering>
<clus scale="   21.217">  1 10  2 -1</clus>
<clus scale="   82.654">  1  9  2 -1</clus>
<clus scale="   91.080">  5  6 -1 -1</clus>
<clus scale="   91.114">  7  8 -1 -1</clus>
<clus scale="  128.646">  2  5  1 -1</clus>
<clus scale="   21.217">  1  5  2 -1</clus>
</clustering>
</event>
<event>
10    2  0.2445576E-006  0.1675316E+03  0.7546771E-02  0.1180504E+00
          2   -1    0    0  502    0  0.00000000000E+00  0.00000000000E+00  0.13020117488E+04  0.13020117488E+04  0.00000000000E+00 0. -1.
         -2   -1    0    0    0  501 -0.00000000000E+00 -0.00000000000E+00 -0.39564385286E+02  0.39564385286E+02  0.00000000000E+00 0.  1.
         23    2    1    2    0    0 -0.16271694313E+03  0.49197486584E+02  0.62253765683E+03  0.65202231036E+03  0.93181343431E+02 0.  0.
         23    2    1    2    0    0  0.10857792684E+03 -0.40601838448E+02  0.49287159683E+03  0.51489315508E+03  0.93567487439E+02 0.  0.
        -11    1    4    4    0    0  0.90079864316E+02 -0.36023508263E+01  0.43193349809E+03  0.44124132361E+03  0.00000000000E+00 0. -1.
         11    1    4    4    0    0  0.18498062520E+02 -0.36999487622E+02  0.60938098741E+02  0.73651831474E+02  0.00000000000E+00 0.  1.
        -11    1    3    3    0    0 -0.14270855692E+03  0.73065445948E+02  0.47812731090E+03  0.50429159922E+03  0.00000000000E+00 0. -1.
         11    1    3    3    0    0 -0.20008386212E+02 -0.23867959364E+02  0.14441034593E+03  0.14773071115E+03  0.00000000000E+00 0.  1.
         21    1    1    2  502  503  0.72184379217E+02  0.10513773768E+01  0.99729457865E+02  0.12311642767E+03  0.00000000000E+00 0.  1.
         21    1    1    2  503  501 -0.18045362920E+02 -0.96470255126E+01  0.47308651950E+02  0.51544240934E+02  0.00000000000E+00 0. -1.
<scales pt_clust_5="13000.00000" pt_clust_6="13000.00000" pt_clust_7="13000.00000" pt_clust_8="13000.00000" pt_clust_9="66.57822" pt_clust_10="20.46217"></scales>
<clustering>
<clus scale="   20.462">  2 10  1 -1</clus>
<clus scale="   66.578">  2  9  1 -1</clus>
<clus scale="   93.181">  7  8 -1 -1</clus>
<clus scale="   93.567">  5  6 -1 -1</clus>
<clus scale="  167.316">  2  7  1 -1</clus>
<clus scale="  167.532">  1  5  2 -1</clus>
</clustering>
</event>
<event>
10    2  0.2445576E-006  0.1324613E+03  0.7546771E-02  0.1224155E+00
         -1   -1    0    0    0  501 -0.00000000000E+00  0.00000000000E+00  0.31111104155E+03  0.31111104155E+03  0.00000000000E+00 0.  1.
          1   -1    0    0  502    0  0.00000000000E+00 -0.00000000000E+00 -0.21414956226E+03  0.21414956226E+03  0.00000000000E+00 0. -1.
         23    2    1    2    0    0 -0.79021684091E+02  0.69550366906E+02  0.16226306045E+03  0.21381078915E+03  0.91126684784E+02 0.  0.
         23    2    1    2    0    0  0.66631048426E+02 -0.42522272601E+02  0.16163871824E+02  0.12079025983E+03  0.89895360482E+02 0.  0.
        -11    1    3    3    0    0 -0.98087426825E+02  0.47905734416E+02  0.11594945970E+03  0.15924942667E+03  0.00000000000E+00 0.  1.
         11    1    3    3    0    0  0.19065742734E+02  0.21644632490E+02  0.46313600745E+02  0.54561362480E+02  0.00000000000E+00 0. -1.
        -13    1    4    4    0    0  0.63849404959E+02 -0.66304390099E+02  0.24808148774E+02  0.95333430157E+02  0.00000000000E+00 0.  1.
         13    1    4    4    0    0  0.27816434674E+01  0.23782117498E+02 -0.86442769499E+01  0.25456829674E+02  0.00000000000E+00 0. -1.
         21    1    1    2  502  503  0.30677992522E+02 -0.29700810885E+01 -0.12993535632E+03  0.13354084554E+03  0.00000000000E+00 0. -1.
         21    1    1    2  503  501 -0.18287356857E+02 -0.24058013216E+02  0.48469903336E+02  0.57118709283E+02  0.00000000000E+00 0.  1.
<scales pt_clust_5="13000.00000" pt_clust_6="13000.00000" pt_clust_7="13000.00000" pt_clust_8="13000.00000" pt_clust_9="30.71110" pt_clust_10="30.21945"></scales>
<clustering>
<clus scale="   30.219">  1 10  2 -1</clus>
<clus scale="   30.711">  2  9  1 -1</clus>
<clus scale="   89.895">  7  8 -1 -1</clus>
<clus scale="   91.127">  5  6 -1 -1</clus>
<clus scale="  131.617">  2  7  1 -1</clus>
<clus scale="   30.711">  2  5  1 -1</clus>
</clustering>
</event>
<event>
10    2  0.2445576E-006  0.1604134E+03  0.7546771E-02  0.1200618E+00
          2   -1    0    0  502    0  0.00000000000E+00  0.00000000000E+00  0.95297754452E+03  0.95297754452E+03  0.00000000000E+00 0. -1.
         -2   -1    0    0    0  501 -0.00000000000E+00 -0.00000000000E+00 -0.20038665576E+03  0.20038665576E+03  0.00000000000E+00 0.  1.
         23    2    1    2    0    0 -0.10832864180E+03  0.56052713963E+02 -0.14153652775E+03  0.20336651806E+03  0.80301622662E+02 0.  0.
         23    2    1    2    0    0  0.57885862064E+02  0.58156481613E+02  0.36945613676E+03  0.38924361835E+03  0.90993450633E+02 0.  0.
        -11    1    3    3    0    0 -0.62161899446E+02  0.50333541886E+02 -0.13426229899E+03  0.15628157956E+03  0.00000000000E+00 0.  1.
         11    1    3    3    0    0 -0.46166742357E+02  0.57191720767E+01 -0.72742287650E+01  0.47084938496E+02  0.00000000000E+00 0. -1.
        -13    1    4    4    0    0  0.12081332199E+02 -0.21868954549E+02  0.40299103940E+02  0.47415477844E+02  0.00000000000E+00 0. -1.
         13    1    4    4    0    0  0.45804529866E+02  0.80025436162E+02  0.32915703282E+03  0.34182814050E+03  0.00000000000E+00 0.  1.
         21    1    1    2  502  503  0.69820579190E+02 -0.12234428949E+03  0.52063345059E+03  0.53935352815E+03  0.00000000000E+00 0. -1.
         21    1    1    2  503  501 -0.19377799452E+02  0.81350939136E+01  0.40378291606E+01  0.21400535715E+02  0.00000000000E+00 0. -1.
<scales pt_clust_5="13000.00000" pt_clust_6="13000.00000" pt_clust_7="13000.00000" pt_clust_8="13000.00000" pt_clust_9="138.86726" pt_clust_10="21.01616"></scales>
<clustering>
<clus scale="   21.016">  2 10  1 -1</clus>
<clus scale="   80.302">  5  6 -1 -1</clus>
<clus scale="   90.993">  7  8 -1 -1</clus>
<clus scale="  122.258">  1  7  2 -1</clus>
<clus scale="  138.867">  1  9  2 -1</clus>
<clus scale="  122.258">  1  5  2 -1</clus>
</clustering>
</event>
<event>
10    2  0.2445576E-006  0.9814085E+02  0.7546771E-02  0.1284645E+00
         -4   -1    0    0    0  501 -0.00000000000E+00  0.00000000000E+00  0.21236496899E+03  0.21236496899E+03  0.00000000000E+00 0.  1.
          4   -1    0    0  502    0  0.00000000000E+00 -0.00000000000E+00 -0.14694981887E+03  0.14694981887E+03  0.00000000000E+00 0. -1.
         23    2    1    2    0    0 -0.11636425409E+02  0.20511994100E+02  0.80681845029E+02  0.12386545225E+03  0.90977699710E+02 0.  0.
         23    2    1    2    0    0  0.92897387845E+01 -0.43464989294E+02 -0.42594643526E+02  0.10920512595E+03  0.90199508509E+02 0.  0.
        -11    1    3    3    0    0 -0.15036473557E+02 -0.30697650372E+02  0.58924854839E+02  0.68121801159E+02  0.00000000000E+00 0.  1.
         11    1    3    3    0    0  0.34000481475E+01  0.51209644472E+02  0.21756990190E+02  0.55743651087E+02  0.00000000000E+00 0. -1.
        -11    1    4    4    0    0 -0.27582844028E+01  0.26684683937E+02 -0.23113111541E+02  0.35410399811E+02  0.00000000000E+00 0. -1.
         11    1    4    4    0    0  0.12048023187E+02 -0.70149673231E+02 -0.19481531985E+02  0.73794726137E+02  0.00000000000E+00 0.  1.
         21    1    1    2  502  503  0.33588189029E+02  0.22744625271E+02 -0.36889704055E+02  0.54830052765E+02  0.00000000000E+00 0. -1.
         21    1    1    2  503  501 -0.31241502405E+02  0.20836992331E+00  0.64217652672E+02  0.71414156896E+02  0.00000000000E+00 0.  1.
<scales pt_clust_5="13000.00000" pt_clust_6="13000.00000" pt_clust_7="13000.00000" pt_clust_8="13000.00000" pt_clust_9="38.98198" pt_clust_10="31.24220"></scales>
<clustering>
<clus scale="   31.242">  1 10  2 -1</clus>
<clus scale="   38.982">  2  9  1 -1</clus>
<clus scale="   90.200">  7  8 -1 -1</clus>
<clus scale="   90.978">  5  6 -1 -1</clus>
<clus scale="   97.420">  2  7  1 -1</clus>
<clus scale="   38.982">  2  5  1 -1</clus>
</clustering>
</event>
<event>
10    2  0.2445576E-006  0.9573436E+02  0.7546771E-02  0.1290084E+00
          1   -1    0    0  502    0  0.00000000000E+00  0.00000000000E+00  0.91286049563E+02  0.91286049563E+02  0.00000000000E+00 0. -1.
         -1   -1    0    0    0  501 -0.00000000000E+00 -0.00000000000E+00 -0.24904484532E+03  0.24904484532E+03  0.00000000000E+00 0.  1.
         23    2    1    2    0    0 -0.47330052164E+01 -0.47532930231E+02 -0.89109194194E+02  0.13738807409E+03  0.93022866102E+02 0.  0.
         23    2    1    2    0    0  0.68699017628E+01 -0.34284679182E+01 -0.45252879792E+02  0.10282043504E+03  0.92006895344E+02 0.  0.
        -11    1    3    3    0    0 -0.14237745340E+02 -0.72633497143E+02 -0.47744919451E+02  0.88079030608E+02  0.00000000000E+00 0.  1.
         11    1    3    3    0    0  0.95047401233E+01  0.25100566912E+02 -0.41364274743E+02  0.49309043482E+02  0.00000000000E+00 0. -1.
        -11    1    4    4    0    0  0.31263154814E+02  0.22522481430E+02  0.74175042550E+01  0.39238582900E+02  0.00000000000E+00 0. -1.
         11    1    4    4    0    0 -0.24393253051E+02 -0.25950949348E+02 -0.52670384047E+02  0.63581852144E+02  0.00000000000E+00 0.  1.
         21    1    1    2  502  503 -0.20887004798E+02  0.34359919654E+02  0.23776316098E+02  0.46713855067E+02  0.00000000000E+00 0. -1.
         21    1    1    2  503  501  0.18750108252E+02  0.16601478495E+02 -0.47173037871E+02  0.53408530683E+02  0.00000000000E+00 0. -1.
<scales pt_clust_5="13000.00000" pt_clust_6="13000.00000" pt_clust_7="13000.00000" pt_clust_8="13000.00000" pt_clust_9="40.49189" pt_clust_10="25.04348"></scales>
<clustering>
<clus scale="   25.043">  2 10  1 -1</clus>
<clus scale="   40.492">  1  9  2 -1</clus>
<clus scale="   92.007">  7  8 -1 -1</clus>
<clus scale="   93.023">  5  6 -1 -1</clus>
<clus scale="   94.747">  1  7  2 -1</clus>
<clus scale="   40.492">  1  5  2 -1</clus>
</clustering>
</event>
<event>
10    2  0.2540929E-006  0.1771719E+03  0.7546771E-02  0.1171206E+00
         -2   -1    0    0    0  501 -0.00000000000E+00  0.00000000000E+00  0.14560900882E+03  0.14560900882E+03  0.00000000000E+00 0.  1.
          2   -1    0    0  502    0  0.00000000000E+00 -0.00000000000E+00 -0.83131894393E+03  0.83131894393E+03  0.00000000000E+00 0. -1.
         23    2    1    2    0    0 -0.10021955221E+03 -0.22753659506E+02  0.47675125628E+02  0.14759717896E+03  0.94606141271E+02 0.  0.
         23    2    1    2    0    0  0.14748397083E+03  0.48273442210E+02 -0.71375177010E+03  0.73591613632E+03  0.89716907552E+02 0.  0.
        -11    1    3    3    0    0 -0.59816957343E+02  0.27011693080E+01 -0.21430782743E+02  0.63597508995E+02  0.00000000000E+00 0. -1.
         11    1    3    3    0    0 -0.40402594872E+02 -0.25454828814E+02  0.69105908371E+02  0.83999669964E+02  0.00000000000E+00 0.  1.
        -13    1    4    4    0    0  0.52159538215E+02  0.69959158320E+01 -0.95881976950E+02  0.10937510580E+03  0.00000000000E+00 0.  1.
         13    1    4    4    0    0  0.95324432620E+02  0.41277526378E+02 -0.61786979315E+03  0.62654103052E+03  0.00000000000E+00 0. -1.
         21    1    1    2  502  503 -0.39867482298E+02  0.25720700605E+00 -0.42426618909E+02  0.58219415080E+02  0.00000000000E+00 0.  1.
         21    1    1    2  503  501 -0.73969363226E+01 -0.25776989710E+02  0.22793328274E+02  0.35195222393E+02  0.00000000000E+00 0.  1.
<scales pt_clust_5="13000.00000" pt_clust_6="13000.00000" pt_clust_7="13000.00000" pt_clust_8="13000.00000" pt_clust_9="40.39578" pt_clust_10="26.81731"></scales>
<clustering>
<clus scale="   26.817">  1 10  2 -1</clus>
<clus scale="   40.396">  1  9  2 -1</clus>
<clus scale="   89.717">  7  8 -1 -1</clus>
<clus scale="   94.606">  5  6 -1 -1</clus>
<clus scale="  174.610">  2  7  1 -1</clus>
<clus scale="  174.610">  2  5  1 -1</clus>
</clustering>
</event>
<event>
10    2  0.2445576E-006  0.2486363E+03  0.7546771E-02  0.1114227E+00
         -1   -1    0    0    0  501 -0.00000000000E+00  0.00000000000E+00  0.74767694442E+03  0.74767694442E+03  0.00000000000E+00 0.  1.
          1   -1    0    0  502    0  0.00000000000E+00 -0.00000000000E+00 -0.32710806734E+03  0.32710806734E+03  0.00000000000E+00 0. -1.
         23    2    1    2    0    0  0.28264036527E+03 -0.39985023882E+02  0.27622552991E+03  0.40731684401E+03  0.90122637716E+02 0.  0.
         23    2    1    2    0    0 -0.18036957424E+03 -0.53168083930E+02 -0.10324646809E+03  0.23307044768E+03  0.91115157610E+02 0.  0.
        -13    1    4    4    0    0 -0.39254282795E+02  0.13079735877E+01 -0.66776778338E+02  0.77470947056E+02  0.00000000000E+00 0. -1.
         13    1    4    4    0    0 -0.14111529145E+03 -0.54476057518E+02 -0.36469689755E+02  0.15559950062E+03  0.00000000000E+00 0.  1.
        -13    1    3    3    0    0  0.17931094162E+03 -0.67722027732E+02  0.19028050022E+03  0.27008397877E+03  0.00000000000E+00 0.  1.
         13    1    3    3    0    0  0.10332942365E+03  0.27737003850E+02  0.85945029688E+02  0.13723286524E+03  0.00000000000E+00 0. -1.
         21    1    1    2  502  503 -0.53166641746E+02 -0.72832041347E+00 -0.76650163152E+02  0.93287028876E+02  0.00000000000E+00 0. -1.
         21    1    1    2  503  501 -0.49104149275E+02  0.93881428226E+02  0.32423997842E+03  0.34111069120E+03  0.00000000000E+00 0.  1.
<scales pt_clust_5="13000.00000" pt_clust_6="13000.00000" pt_clust_7="13000.00000" pt_clust_8="13000.00000" pt_clust_9="53.17163" pt_clust_10="106.79655"></scales>
<clustering>
<clus scale="   53.172">  2  9  1 -1</clus>
<clus scale="   90.123">  7  8 -1 -1</clus>
<clus scale="   91.115">  5  6 -1 -1</clus>
<clus scale="  106.797">  1 10  2 -1</clus>
<clus scale="  248.274">  1  7  2 -1</clus>
<clus scale="   53.172">  2  5  1 -1</clus>
</clustering>
</event>
<event>
10    2  0.2445576E-006  0.1361253E+03  0.7546771E-02  0.1218695E+00
         -2   -1    0    0    0  501 -0.00000000000E+00  0.00000000000E+00  0.36162859168E+03  0.36162859168E+03  0.00000000000E+00 0.  1.
          2   -1    0    0  502    0  0.00000000000E+00 -0.00000000000E+00 -0.28786834990E+03  0.28786834990E+03  0.00000000000E+00 0. -1.
         23    2    1    2    0    0 -0.10340899819E+02  0.62447966846E+02  0.21049195683E+03  0.23796704484E+03  0.91185348431E+02 0.  0.
         23    2    1    2    0    0 -0.64997507223E+02 -0.64529961232E+02 -0.12224689804E+03  0.17801941693E+03  0.91421096487E+02 0.  0.
        -11    1    4    4    0    0  0.66198032065E+01 -0.42401607110E+02 -0.82929486014E+02  0.93375680616E+02  0.00000000000E+00 0. -1.
         11    1    4    4    0    0 -0.71617310429E+02 -0.22128354122E+02 -0.39317412029E+02  0.84643736318E+02  0.00000000000E+00 0.  1.
        -11    1    3    3    0    0 -0.42015512968E+02  0.28998726637E+01  0.62949518567E+02  0.75738725096E+02  0.00000000000E+00 0. -1.
         11    1    3    3    0    0  0.31674613148E+02  0.59548094183E+02  0.14754243827E+03  0.16222831975E+03  0.00000000000E+00 0.  1.
         21    1    1    2  502  503 -0.18280067593E+02 -0.16192655165E+02 -0.10150097910E+03  0.10439737406E+03  0.00000000000E+00 0. -1.
         21    1    1    2  503  501  0.93618474634E+02  0.18274649551E+02  0.87016162088E+02  0.12911310574E+03  0.00000000000E+00 0. -1.
<scales pt_clust_5="13000.00000" pt_clust_6="13000.00000" pt_clust_7="13000.00000" pt_clust_8="13000.00000" pt_clust_9="24.42054" pt_clust_10="93.00082"></scales>
<clustering>
<clus scale="   24.421">  2  9  1 -1</clus>
<clus scale="   91.185">  7  8 -1 -1</clus>
<clus scale="   91.421">  5  6 -1 -1</clus>
<clus scale="   93.001">  1 10  2 -1</clus>
<clus scale="  135.967">  1  7  2 -1</clus>
<clus scale="   24.421">  2  5  1 -1</clus>
</clustering>
</event>
<event>
10    2  0.2445576E-006  0.1461356E+03  0.7546771E-02  0.1207976E+00
          1   -1    0    0  502    0  0.00000000000E+00  0.00000000000E+00  0.99085593009E+03  0.99085593009E+03  0.00000000000E+00 0. -1.
         -1   -1    0    0    0  501 -0.00000000000E+00 -0.00000000000E+00 -0.42110805769E+02  0.42110805769E+02  0.00000000000E+00 0.  1.
         23    2    1    2    0    0 -0.33788308234E+02  0.10432738979E+03  0.27628088208E+03  0.30722547342E+03  0.77656369223E+02 0.  0.
         23    2    1    2    0    0 -0.19826789122E+02 -0.12631888046E+03  0.30885200281E+03  0.34653324789E+03  0.91357381350E+02 0.  0.
        -11    1    4    4    0    0 -0.19789074064E+02  0.40943148204E+01  0.15399018994E+02  0.25406704866E+02  0.00000000000E+00 0.  1.
         11    1    4    4    0    0 -0.37715058580E-01 -0.13041319528E+03  0.29345298381E+03  0.32112654302E+03  0.00000000000E+00 0. -1.
        -13    1    3    3    0    0  0.14812367226E+02  0.55086105286E+02  0.17886577128E+03  0.18774144282E+03  0.00000000000E+00 0.  1.
         13    1    3    3    0    0 -0.48600675460E+02  0.49241284504E+02  0.97415110798E+02  0.11948403059E+03  0.00000000000E+00 0. -1.
         21    1    1    2  502  503  0.65579336918E+02  0.41742022864E+02  0.32543213697E+03  0.33458798795E+03  0.00000000000E+00 0.  1.
         21    1    1    2  503  501 -0.11964239562E+02 -0.19750532200E+02  0.38180102467E+02  0.44620026612E+02  0.00000000000E+00 0. -1.
<scales pt_clust_5="13000.00000" pt_clust_6="13000.00000" pt_clust_7="13000.00000" pt_clust_8="13000.00000" pt_clust_9="75.31022" pt_clust_10="23.09170"></scales>
<clustering>
<clus scale="   23.092">  2 10  1 -1</clus>
<clus scale="   75.310">  1  9  2 -1</clus>
<clus scale="   77.656">  7  8 -1 -1</clus>
<clus scale="   91.357">  5  6 -1 -1</clus>
<clus scale="  137.985">  2  7  1 -1</clus>
<clus scale="   75.310">  1  5  2 -1</clus>
</clustering>
</event>
<event>
10    2  0.2445576E-006  0.1424915E+03  0.7546771E-02  0.1231143E+00
          1   -1    0    0  502    0  0.00000000000E+00  0.00000000000E+00  0.43644948107E+03  0.43644948107E+03  0.00000000000E+00 0. -1.
         -1   -1    0    0    0  501 -0.00000000000E+00 -0.00000000000E+00 -0.18340341610E+03  0.18340341610E+03  0.00000000000E+00 0.  1.
         23    2    1    2    0    0 -0.88394293552E+02  0.31111565357E+02  0.19282779850E+02  0.13348591737E+03  0.93086969581E+02 0.  0.
         23    2    1    2    0    0  0.45215601972E+01  0.12097446459E+02  0.23289218767E+03  0.25010697343E+03  0.90265909204E+02 0.  0.
        -11    1    4    4    0    0  0.43804723175E+02 -0.77644476394E+01  0.86939007350E+02  0.97660285780E+02  0.00000000000E+00 0.  1.
         11    1    4    4    0    0 -0.39283162978E+02  0.19861894098E+02  0.14595318032E+03  0.15244668765E+03  0.00000000000E+00 0. -1.
        -13    1    3    3    0    0 -0.98394462408E+02  0.49525670536E+02  0.10131802181E+02  0.11062059343E+03  0.00000000000E+00 0. -1.
         13    1    3    3    0    0  0.10000168856E+02 -0.18414105179E+02  0.91509776684E+01  0.22865323943E+02  0.00000000000E+00 0.  1.
         21    1    1    2  502  503  0.95710645165E+02 -0.68950388765E+02  0.86362700305E+02  0.14619575819E+03  0.00000000000E+00 0.  1.
         21    1    1    2  503  501 -0.11837911810E+02  0.25741376949E+02 -0.85491602844E+02  0.90064248179E+02  0.00000000000E+00 0. -1.
<scales pt_clust_5="13000.00000" pt_clust_6="13000.00000" pt_clust_7="13000.00000" pt_clust_8="13000.00000" pt_clust_9="107.88253" pt_clust_10="28.33293"></scales>
<clustering>
<clus scale="   28.333">  2 10  1 -1</clus>
<clus scale="   90.266">  5  6 -1 -1</clus>
<clus scale="   91.475">  1  5  2 -1</clus>
<clus scale="   93.087">  7  8 -1 -1</clus>
<clus scale="  107.883">  1  9  2 -1</clus>
<clus scale="   91.475">  1  5  2 -1</clus>
</clustering>
</event>
<event>
10    2  0.2445576E-006  0.9797219E+02  0.7546771E-02  0.1285321E+00
         -1   -1    0    0    0  501 -0.00000000000E+00  0.00000000000E+00  0.10932920661E+03  0.10932920661E+03  0.00000000000E+00 0.  1.
          1   -1    0    0  502    0  0.00000000000E+00 -0.00000000000E+00 -0.45945979191E+03  0.45945979191E+03  0.00000000000E+00 0. -1.
         23    2    1    2    0    0  0.95436069803E+01 -0.54278033342E+02 -0.57463597391E+02  0.12095363599E+03  0.91052356897E+02 0.  0.
         23    2    1    2    0    0 -0.71424308039E+01  0.51404415258E+01 -0.28184000185E+03  0.29673729000E+03  0.92421827386E+02 0.  0.
        -11    1    4    4    0    0 -0.42835353508E+02  0.23421952180E+02 -0.19604764858E+03  0.20203498675E+03  0.00000000000E+00 0.  1.
         11    1    4    4    0    0  0.35692922704E+02 -0.18281510654E+02 -0.85792353267E+02  0.94702303256E+02  0.00000000000E+00 0. -1.
        -13    1    3    3    0    0  0.21146435662E+02  0.13200000521E+02  0.80453811953E+01  0.26194272533E+02  0.00000000000E+00 0.  1.
         13    1    3    3    0    0 -0.11602828682E+02 -0.67478033863E+02 -0.65508978587E+02  0.94759363458E+02  0.00000000000E+00 0. -1.
         21    1    1    2  502  503  0.42720451812E+02  0.22848697049E+02 -0.61528596138E+02  0.78312630543E+02  0.00000000000E+00 0.  1.
         21    1    1    2  503  501 -0.45121627989E+02  0.26288894767E+02  0.50701610082E+02  0.72785441987E+02  0.00000000000E+00 0.  1.
<scales pt_clust_5="13000.00000" pt_clust_6="13000.00000" pt_clust_7="13000.00000" pt_clust_8="13000.00000" pt_clust_9="48.44688" pt_clust_10="51.51432"></scales>
<clustering>
<clus scale="   48.447">  2  9  1 -1</clus>
<clus scale="   51.514">  1 10  2 -1</clus>
<clus scale="   91.052">  7  8 -1 -1</clus>
<clus scale="   92.422">  5  6 -1 -1</clus>
<clus scale="   96.681">  1  7  2 -1</clus>
<clus scale="   48.447">  2  5  1 -1</clus>
</clustering>
</event>
<event>
10    2  0.2445576E-006  0.1235205E+03  0.7546771E-02  0.1244352E+00
         -4   -1    0    0    0  501 -0.00000000000E+00  0.00000000000E+00  0.68065361925E+03  0.68065361925E+03  0.00000000000E+00 0.  1.
          4   -1    0    0  502    0  0.00000000000E+00 -0.00000000000E+00 -0.69410876768E+02  0.69410876768E+02  0.00000000000E+00 0. -1.
         23    2    1    2    0    0  0.56954289671E+02  0.33559907240E+02  0.24443809368E+03  0.27633994089E+03  0.11065135697E+03 0.  0.
         23    2    1    2    0    0 -0.36099397125E+02 -0.43810581881E+02  0.11064604621E+03  0.15478921326E+03  0.92166259783E+02 0.  0.
        -13    1    4    4    0    0 -0.20162488029E+02  0.27163359116E+02  0.23083638083E+02  0.40953978429E+02  0.00000000000E+00 0. -1.
         13    1    4    4    0    0 -0.15936909096E+02 -0.70973940997E+02  0.87562408129E+02  0.11383523483E+03  0.00000000000E+00 0.  1.
        -13    1    3    3    0    0  0.15677856279E+01  0.54342594495E+02  0.18360914069E+03  0.19148862127E+03  0.00000000000E+00 0.  1.
         13    1    3    3    0    0  0.55386504043E+02 -0.20782687255E+02  0.60828952990E+02  0.84851319621E+02  0.00000000000E+00 0. -1.
         21    1    1    2  502  503  0.27843285245E+02 -0.42683471980E+01 -0.22269331606E+02  0.35908083369E+02  0.00000000000E+00 0. -1.
         21    1    1    2  503  501 -0.48698177791E+02  0.14519021839E+02  0.27842793419E+03  0.28302725850E+03  0.00000000000E+00 0.  1.
<scales pt_clust_5="13000.00000" pt_clust_6="13000.00000" pt_clust_7="13000.00000" pt_clust_8="13000.00000" pt_clust_9="28.16855" pt_clust_10="49.22565"></scales>
<clustering>
<clus scale="   28.169">  2  9  1 -1</clus>
<clus scale="   49.226">  1 10  2 -1</clus>
<clus scale="   92.166">  5  6 -1 -1</clus>
<clus scale="  107.276">  2  5  1 -1</clus>
<clus scale="  110.651">  7  8 -1 -1</clus>
<clus scale="   28.169">  2  5  1 -1</clus>
</clustering>
</event>
<event>
10    2  0.2445576E-006  0.9600183E+02  0.7546771E-02  0.1290015E+00
          2   -1    0    0  502    0  0.00000000000E+00  0.00000000000E+00  0.32625938714E+03  0.32625938714E+03  0.00000000000E+00 0. -1.
         -2   -1    0    0    0  501 -0.00000000000E+00 -0.00000000000E+00 -0.11021618049E+03  0.11021618049E+03  0.00000000000E+00 0.  1.
         23    2    1    2    0    0 -0.31810431436E+02  0.11677683856E+02  0.47998107275E+02  0.10695370874E+03  0.89370049027E+02 0.  0.
         23    2    1    2    0    0  0.29263223446E+02 -0.10269535070E+02  0.77684381929E+02  0.12389246215E+03  0.91392994178E+02 0.  0.
        -11    1    4    4    0    0 -0.82979569743E+01  0.21606924992E+02 -0.84708622310E+01  0.24646922820E+02  0.00000000000E+00 0.  1.
         11    1    4    4    0    0  0.37561180420E+02 -0.31876460061E+02  0.86155244160E+02  0.99245539330E+02  0.00000000000E+00 0. -1.
        -11    1    3    3    0    0 -0.40223975639E+02 -0.24144016533E+02  0.51888346366E+02  0.69952142491E+02  0.00000000000E+00 0. -1.
         11    1    3    3    0    0  0.84135442022E+01  0.35821700389E+02 -0.38902390904E+01  0.37001566250E+02  0.00000000000E+00 0.  1.
         21    1    1    2  502  503 -0.24179378607E+02 -0.87312986037E+01  0.14345397527E+03  0.14573922240E+03  0.00000000000E+00 0. -1.
         21    1    1    2  503  501  0.26726586597E+02  0.73231498176E+01 -0.53093257836E+02  0.59890174336E+02  0.00000000000E+00 0.  1.
<scales pt_clust_5="13000.00000" pt_clust_6="13000.00000" pt_clust_7="13000.00000" pt_clust_8="13000.00000" pt_clust_9="25.70755" pt_clust_10="27.23232"></scales>
<clustering>
<clus scale="   25.708">  1  9  2 -1</clus>
<clus scale="   27.232">  2 10  1 -1</clus>
<clus scale="   89.370">  7  8 -1 -1</clus>
<clus scale="   91.393">  5  6 -1 -1</clus>
<clus scale="   94.078">  2  7  1 -1</clus>
<clus scale="   25.708">  1  5  2 -1</clus>
</clustering>
</event>
<event>
10    2  0.2445576E-006  0.1021469E+03  0.7546771E-02  0.1276403E+00
          1   -1    0    0  502    0  0.00000000000E+00  0.00000000000E+00  0.11088606585E+03  0.11088606585E+03  0.00000000000E+00 0. -1.
         -1   -1    0    0    0  501 -0.00000000000E+00 -0.00000000000E+00 -0.29464028470E+03  0.29464028470E+03  0.00000000000E+00 0.  1.
         23    2    1    2    0    0  0.25239112459E+01 -0.75472051608E+02 -0.22659676160E+02  0.12049159514E+03  0.91117302821E+02 0.  0.
         23    2    1    2    0    0  0.27119744911E+02  0.23406898475E+02  0.78061539009E+01  0.97088472139E+02  0.89899232051E+02 0.  0.
        -11    1    3    3    0    0 -0.12629373447E+02  0.17940842899E+02  0.37114322003E+01  0.22251958263E+02  0.00000000000E+00 0.  1.
         11    1    3    3    0    0  0.15153284693E+02 -0.93412894507E+02 -0.26371108361E+02  0.98239636875E+02  0.00000000000E+00 0. -1.
        -13    1    4    4    0    0  0.45664860323E+02  0.40607056552E+02 -0.15119880102E+02  0.62950959361E+02  0.00000000000E+00 0. -1.
         13    1    4    4    0    0 -0.18545115412E+02 -0.17200158077E+02  0.22926034003E+02  0.34137512778E+02  0.00000000000E+00 0.  1.
         21    1    1    2  502  503 -0.42105539243E+01  0.55444162741E+02 -0.99930595064E+02  0.11435868037E+03  0.00000000000E+00 0.  1.
         21    1    1    2  503  501 -0.25433102232E+02 -0.33790096078E+01 -0.68970101533E+02  0.73587602900E+02  0.00000000000E+00 0.  1.
<scales pt_clust_5="13000.00000" pt_clust_6="13000.00000" pt_clust_7="13000.00000" pt_clust_8="13000.00000" pt_clust_9="56.26947" pt_clust_10="25.65659"></scales>
<clustering>
<clus scale="   25.657">  2 10  1 -1</clus>
<clus scale="   56.269">  2  9  1 -1</clus>
<clus scale="   89.899">  7  8 -1 -1</clus>
<clus scale="   91.117">  5  6 -1 -1</clus>
<clus scale="  101.062">  1  7  2 -1</clus>
<clus scale="  101.062">  1  5  2 -1</clus>
</clustering>
</event>
<event>
10    2  0.2445576E-006  0.1204408E+03  0.7546771E-02  0.1243934E+00
          1   -1    0    0  502    0  0.00000000000E+00  0.00000000000E+00  0.14200278809E+03  0.14200278809E+03  0.00000000000E+00 0. -1.
         -1   -1    0    0    0  501 -0.00000000000E+00 -0.00000000000E+00 -0.50106518334E+03  0.50106518334E+03  0.00000000000E+00 0.  1.
         23    2    1    2    0    0  0.11933703690E+01  0.97154304444E+02 -0.11518459374E+03  0.17594566734E+03  0.90824028849E+02 0.  0.
         23    2    1    2    0    0  0.17901331239E+02 -0.54171161411E+02 -0.44004046107E+02  0.11969849355E+03  0.95584522262E+02 0.  0.
        -11    1    4    4    0    0 -0.38825247341E+02 -0.31373882582E+02 -0.23883061792E+02  0.55336434471E+02  0.00000000000E+00 0.  1.
         11    1    4    4    0    0  0.56726578580E+02 -0.22797278829E+02 -0.20120984315E+02  0.64362059081E+02  0.00000000000E+00 0. -1.
        -13    1    3    3    0    0 -0.24900575531E+02  0.21488456585E+02  0.31970235561E+01  0.33045625849E+02  0.00000000000E+00 0.  1.
         13    1    3    3    0    0  0.26093945900E+02  0.75665847859E+02 -0.11838161729E+03  0.14290004149E+03  0.00000000000E+00 0. -1.
         21    1    1    2  502  503  0.27329838217E+02 -0.56737227709E+01  0.67738542915E+02  0.73264052463E+02  0.00000000000E+00 0. -1.
         21    1    1    2  503  501 -0.46424539825E+02 -0.37309420262E+02 -0.26761229832E+03  0.27415975808E+03  0.00000000000E+00 0.  1.
<scales pt_clust_5="13000.00000" pt_clust_6="13000.00000" pt_clust_7="13000.00000" pt_clust_8="13000.00000" pt_clust_9="27.91256" pt_clust_10="58.75428"></scales>
<clustering>
<clus scale="   27.913">  1  9  2 -1</clus>
<clus scale="   58.754">  2 10  1 -1</clus>
<clus scale="   90.824">  7  8 -1 -1</clus>
<clus scale="   95.585">  5  6 -1 -1</clus>
<clus scale="  116.699">  2  7  1 -1</clus>
<clus scale="   27.913">  1  5  2 -1</clus>
</clustering>
</event>
<event>
10    2  0.2445576E-006  0.1510141E+03  0.7546771E-02  0.1199384E+00
         -3   -1    0    0    0  501 -0.00000000000E+00  0.00000000000E+00  0.16313786262E+03  0.16313786262E+03  0.00000000000E+00 0.  1.
          3   -1    0    0  502    0  0.00000000000E+00 -0.00000000000E+00 -0.45058954840E+03  0.45058954840E+03  0.00000000000E+00 0. -1.
         23    2    1    2    0    0 -0.10658404018E+02  0.50193315593E+02  0.59783713087E+02  0.12057557939E+03  0.91276544027E+02 0.  0.
         23    2    1    2    0    0 -0.43894966639E+01 -0.14588830913E+03 -0.28326374204E+03  0.33124375144E+03  0.90451140894E+02 0.  0.
        -11    1    3    3    0    0 -0.32800709013E+02 -0.14329331609E+02  0.14077957323E+02  0.38463036002E+02  0.00000000000E+00 0.  1.
         11    1    3    3    0    0  0.22142304995E+02  0.64522647202E+02  0.45705755764E+02  0.82112543393E+02  0.00000000000E+00 0. -1.
        -13    1    4    4    0    0  0.70718963996E+01 -0.87761690683E+02 -0.78087986404E+02  0.11768542684E+03  0.00000000000E+00 0.  1.
         13    1    4    4    0    0 -0.11461393064E+02 -0.58126618451E+02 -0.20517575564E+03  0.21355832460E+03  0.00000000000E+00 0. -1.
         21    1    1    2  502  503 -0.17647010301E+02  0.10646846063E+02 -0.67647918729E+02  0.70717842247E+02  0.00000000000E+00 0. -1.
         21    1    1    2  503  501  0.32694910983E+02  0.85048147478E+02  0.36762618969E+01  0.91190237938E+02  0.00000000000E+00 0.  1.
<scales pt_clust_5="13000.00000" pt_clust_6="13000.00000" pt_clust_7="13000.00000" pt_clust_8="13000.00000" pt_clust_9="20.61000" pt_clust_10="91.55936"></scales>
<clustering>
<clus scale="   20.610">  2  9  1 -1</clus>
<clus scale="   90.451">  7  8 -1 -1</clus>
<clus scale="   91.277">  5  6 -1 -1</clus>
<clus scale="   91.559">  1 10  2 -1</clus>
<clus scale="  150.517">  2  7  1 -1</clus>
<clus scale="   20.610">  2  5  1 -1</clus>
</clustering>
</event>
<event>
10    2  0.2445576E-006  0.1191889E+03  0.7546771E-02  0.1245215E+00
          3   -1    0    0  502    0  0.00000000000E+00  0.00000000000E+00  0.74853279631E+02  0.74853279631E+02  0.00000000000E+00 0. -1.
         -3   -1    0    0    0  501 -0.00000000000E+00 -0.00000000000E+00 -0.41192722866E+03  0.41192722866E+03  0.00000000000E+00 0.  1.
         23    2    1    2    0    0  0.51837558957E+02 -0.23295550248E+02 -0.22899965096E+03  0.25266427354E+03  0.90380195859E+02 0.  0.
         23    2    1    2    0    0 -0.92452019041E+02  0.23365385368E+02 -0.56300578464E+02  0.14445769958E+03  0.92762895454E+02 0.  0.
        -13    1    4    4    0    0  0.73010315890E+01 -0.22197007423E+02 -0.95823019644E+01  0.25255350161E+02  0.00000000000E+00 0.  1.
         13    1    4    4    0    0 -0.99753050630E+02  0.45562392792E+02 -0.46718276500E+02  0.11920234941E+03  0.00000000000E+00 0. -1.
        -13    1    3    3    0    0  0.37764186585E+02 -0.54233889634E+02 -0.10479365417E+03  0.12389172098E+03  0.00000000000E+00 0.  1.
         13    1    3    3    0    0  0.14073372372E+02  0.30938339386E+02 -0.12420599679E+03  0.12877255256E+03  0.00000000000E+00 0. -1.
         21    1    1    2  502  503  0.18501831524E+02 -0.85438940959E+01  0.10578210038E+02  0.22961150313E+02  0.00000000000E+00 0.  1.
         21    1    1    2  503  501  0.22112628560E+02  0.84740589755E+01 -0.62351929646E+02  0.66697384866E+02  0.00000000000E+00 0.  1.
<scales pt_clust_5="13000.00000" pt_clust_6="13000.00000" pt_clust_7="13000.00000" pt_clust_8="13000.00000" pt_clust_9="20.37930" pt_clust_10="24.21881"></scales>
<clustering>
<clus scale="   20.379">  1  9  2 -1</clus>
<clus scale="   24.219">  2 10  1 -1</clus>
<clus scale="   90.380">  7  8 -1 -1</clus>
<clus scale="   92.763">  5  6 -1 -1</clus>
<clus scale="  117.344">  2  7  1 -1</clus>
<clus scale="   20.379">  1  5  2 -1</clus>
</clustering>
</event>
<event>
10    2  0.2445576E-006  0.2117493E+03  0.7546771E-02  0.1140198E+00
         -2   -1    0    0    0  501 -0.00000000000E+00  0.00000000000E+00  0.92466366517E+02  0.92466366517E+02  0.00000000000E+00 0.  1.
          2   -1    0    0  502    0  0.00000000000E+00 -0.00000000000E+00 -0.11242154016E+04  0.11242154016E+04  0.00000000000E+00 0. -1.
         23    2    1    2    0    0 -0.14501103625E+03  0.15748360294E+03 -0.12842071423E+03  0.26497111713E+03  0.88817381414E+02 0.  0.
         23    2    1    2    0    0  0.87147613059E+02 -0.16401512510E+03 -0.77326401719E+03  0.80021387031E+03  0.88934415305E+02 0.  0.
        -11    1    3    3    0    0 -0.49485176611E+02  0.10109044750E+03 -0.29530323125E+02  0.11636194079E+03  0.00000000000E+00 0.  1.
         11    1    3    3    0    0 -0.95525859642E+02  0.56393155436E+02 -0.98890391103E+02  0.14860917634E+03  0.00000000000E+00 0. -1.
        -11    1    4    4    0    0  0.42027259482E+02 -0.11023856866E+03 -0.62667426862E+03  0.63768289260E+03  0.00000000000E+00 0. -1.
         11    1    4    4    0    0  0.45120353577E+02 -0.53776556440E+02 -0.14658974857E+03  0.16253097771E+03  0.00000000000E+00 0.  1.
         21    1    1    2  502  503  0.19792812311E+02  0.80416662322E+01 -0.10190294946E+03  0.10411836978E+03  0.00000000000E+00 0.  1.
         21    1    1    2  503  501  0.38070610883E+02 -0.15101440666E+01 -0.28161354170E+02  0.47378410872E+02  0.00000000000E+00 0. -1.
<scales pt_clust_5="13000.00000" pt_clust_6="13000.00000" pt_clust_7="13000.00000" pt_clust_8="13000.00000" pt_clust_9="21.36408" pt_clust_10="38.82161"></scales>
<clustering>
<clus scale="   21.364">  2  9  1 -1</clus>
<clus scale="   38.822">  1 10  2 -1</clus>
<clus scale="   88.817">  5  6 -1 -1</clus>
<clus scale="   88.934">  7  8 -1 -1</clus>
<clus scale="  211.700">  1  5  2 -1</clus>
<clus scale="   21.364">  2  5  1 -1</clus>
</clustering>
</event>
<event>
10    2  0.2445576E-006  0.2068490E+03  0.7546771E-02  0.1144155E+00
         -1   -1    0    0    0  501 -0.00000000000E+00  0.00000000000E+00  0.40464434444E+03  0.40464434444E+03  0.00000000000E+00 0.  1.
          1   -1    0    0  502    0  0.00000000000E+00 -0.00000000000E+00 -0.34696860679E+03  0.34696860679E+03  0.00000000000E+00 0. -1.
         23    2    1    2    0    0 -0.12612945020E+03 -0.49644205185E+02  0.22603788158E+03  0.27876904980E+03  0.90806794373E+02 0.  0.
         23    2    1    2    0    0  0.18947335296E+03  0.14975532132E+03 -0.11703819654E+03  0.28306923894E+03  0.90019147066E+02 0.  0.
        -11    1    3    3    0    0 -0.86518334729E+02 -0.75311723032E+02  0.17508853717E+03  0.20931620511E+03  0.00000000000E+00 0. -1.
         11    1    3    3    0    0 -0.39611115476E+02  0.25667517848E+02  0.50949344403E+02  0.69452844699E+02  0.00000000000E+00 0.  1.
        -13    1    4    4    0    0  0.16644967624E+03  0.10083622000E+03 -0.58121897786E+02  0.20310488174E+03  0.00000000000E+00 0.  1.
         13    1    4    4    0    0  0.23023676724E+02  0.48919101325E+02 -0.58916298753E+02  0.79964357204E+02  0.00000000000E+00 0. -1.
         21    1    1    2  502  503 -0.26158400776E+02 -0.54077420405E+02 -0.97632129848E+02  0.11463272704E+03  0.00000000000E+00 0. -1.
         21    1    1    2  503  501 -0.37185501980E+02 -0.46033695735E+02  0.46308182461E+02  0.75141935451E+02  0.00000000000E+00 0. -1.
<scales pt_clust_5="13000.00000" pt_clust_6="13000.00000" pt_clust_7="13000.00000" pt_clust_8="13000.00000" pt_clust_9="61.49721" pt_clust_10="59.17654"></scales>
<clustering>
<clus scale="   59.177">  1 10  2 -1</clus>
<clus scale="   61.497">  2  9  1 -1</clus>
<clus scale="   90.019">  7  8 -1 -1</clus>
<clus scale="   90.807">  5  6 -1 -1</clus>
<clus scale="  206.504">  2  7  1 -1</clus>
<clus scale="   61.497">  2  5  1 -1</clus>
</clustering>
</event>
<event>
10    2  0.2445576E-006  0.8760515E+02  0.7546771E-02  0.1312376E+00
         -2   -1    0    0    0  501 -0.00000000000E+00  0.00000000000E+00  0.21673099732E+03  0.21673099732E+03  0.00000000000E+00 0.  1.
          2   -1    0    0  502    0  0.00000000000E+00 -0.00000000000E+00 -0.12406437434E+03  0.12406437434E+03  0.00000000000E+00 0. -1.
         23    2    1    2    0    0  0.21299587626E+02  0.21873720719E+02  0.13039911815E+03  0.15682185214E+03  0.81590631841E+02 0.  0.
         23    2    1    2    0    0 -0.16119458267E+02  0.48501577590E+01 -0.47103412739E+02  0.10051438680E+03  0.87183997937E+02 0.  0.
        -11    1    4    4    0    0  0.92823450963E+01 -0.31950215933E+02 -0.44714320141E+02  0.55734627067E+02  0.00000000000E+00 0.  1.
         11    1    4    4    0    0 -0.25401803363E+02  0.36800373692E+02 -0.23890925986E+01  0.44779759730E+02  0.00000000000E+00 0. -1.
        -13    1    3    3    0    0  0.32996033746E+02  0.41751589221E+02  0.12049188421E+03  0.13172026270E+03  0.00000000000E+00 0. -1.
         13    1    3    3    0    0 -0.11696446120E+02 -0.19877868502E+02  0.99072339330E+01  0.25101589436E+02  0.00000000000E+00 0.  1.
         21    1    1    2  502  503  0.17492696906E+02 -0.10499540602E+02 -0.29350683719E+02  0.35744893798E+02  0.00000000000E+00 0.  1.
         21    1    1    2  503  501 -0.22672826264E+02 -0.16224337876E+02  0.38721601291E+02  0.47714238932E+02  0.00000000000E+00 0. -1.
<scales pt_clust_5="13000.00000" pt_clust_6="13000.00000" pt_clust_7="13000.00000" pt_clust_8="13000.00000" pt_clust_9="20.40183" pt_clust_10="27.49651"></scales>
<clustering>
<clus scale="   20.402">  2  9  1 -1</clus>
<clus scale="   27.497">  1 10  2 -1</clus>
<clus scale="   81.591">  7  8 -1 -1</clus>
<clus scale="   82.041">  1  7  2 -1</clus>
<clus scale="   87.184">  5  6 -1 -1</clus>
<clus scale="   20.402">  2  5  1 -1</clus>
</clustering>
</event>
<event>
10    2  0.2445576E-006  0.2512207E+03  0.7546771E-02  0.1112744E+00
          2   -1    0    0  502    0  0.00000000000E+00  0.00000000000E+00  0.20653143483E+03  0.20653143483E+03  0.00000000000E+00 0. -1.
         -2   -1    0    0    0  501 -0.00000000000E+00 -0.00000000000E+00 -0.10116633517E+04  0.10116633517E+04  0.00000000000E+00 0.  1.
         23    2    1    2    0    0 -0.86686632912E+02 -0.23198922139E+03 -0.67024227598E+03  0.72040824931E+03  0.91813757110E+02 0.  0.
         23    2    1    2    0    0  0.30840025495E+02  0.23601172155E+03  0.52678357507E+02  0.25921727040E+03  0.88124593859E+02 0.  0.
        -11    1    4    4    0    0  0.33042940740E+02  0.42486680128E+02 -0.12025060926E+02  0.55150303819E+02  0.00000000000E+00 0.  1.
         11    1    4    4    0    0 -0.22029152448E+01  0.19352504142E+03  0.64703418433E+02  0.20406696658E+03  0.00000000000E+00 0. -1.
        -13    1    3    3    0    0 -0.84198995879E+02 -0.94315931952E+02 -0.32055941832E+03  0.34459150686E+03  0.00000000000E+00 0.  1.
         13    1    3    3    0    0 -0.24876370324E+01 -0.13767328944E+03 -0.34968285766E+03  0.37581674245E+03  0.00000000000E+00 0. -1.
         21    1    1    2  502  503  0.22016474742E+02 -0.11017176770E+02  0.17759296238E+02  0.30356151715E+02  0.00000000000E+00 0.  1.
         21    1    1    2  503  501  0.33830132674E+02  0.69946766136E+01 -0.20532729462E+03  0.20821311509E+03  0.00000000000E+00 0.  1.
<scales pt_clust_5="13000.00000" pt_clust_6="13000.00000" pt_clust_7="13000.00000" pt_clust_8="13000.00000" pt_clust_9="24.61917" pt_clust_10="34.69873"></scales>
<clustering>
<clus scale="   24.619">  1  9  2 -1</clus>
<clus scale="   34.699">  2 10  1 -1</clus>
<clus scale="   88.125">  5  6 -1 -1</clus>
<clus scale="   91.814">  7  8 -1 -1</clus>
<clus scale="  249.896">  1  5  2 -1</clus>
<clus scale="   24.619">  1  5  2 -1</clus>
</clustering>
</event>
<event>
10    2  0.2445576E-006  0.1644230E+03  0.7546771E-02  0.1183819E+00
          1   -1    0    0  502    0  0.00000000000E+00  0.00000000000E+00  0.33351304181E+03  0.33351304181E+03  0.00000000000E+00 0. -1.
         -1   -1    0    0    0  501 -0.00000000000E+00 -0.00000000000E+00 -0.28587548745E+03  0.28587548745E+03  0.00000000000E+00 0.  1.
         23    2    1    2    0    0 -0.11629814644E+03  0.77157795752E+02 -0.18438058948E+02  0.16669497178E+03  0.89267392077E+02 0.  0.
         23    2    1    2    0    0  0.12282532500E+03 -0.11916853732E+03  0.10218960654E+03  0.21832550328E+03  0.89084841308E+02 0.  0.
        -13    1    3    3    0    0 -0.69105855253E+02  0.55527733046E+02  0.32062542674E+02  0.94270647659E+02  0.00000000000E+00 0.  1.
         13    1    3    3    0    0 -0.47192291188E+02  0.21630062706E+02 -0.50500601622E+02  0.72424324121E+02  0.00000000000E+00 0. -1.
        -13    1    4    4    0    0  0.25042697369E+02 -0.29228754828E+02  0.72664258069E+02  0.82228651947E+02  0.00000000000E+00 0. -1.
         13    1    4    4    0    0  0.97782627635E+02 -0.89939782491E+02  0.29525348469E+02  0.13609685134E+03  0.00000000000E+00 0.  1.
         21    1    1    2  502  503 -0.81489021578E+02  0.10333777203E+02  0.64874579228E+02  0.10467071519E+03  0.00000000000E+00 0.  1.
         21    1    1    2  503  501  0.74961843014E+02  0.31676964363E+02 -0.10098857245E+03  0.12969733901E+03  0.00000000000E+00 0. -1.
<scales pt_clust_5="13000.00000" pt_clust_6="13000.00000" pt_clust_7="13000.00000" pt_clust_8="13000.00000" pt_clust_9="74.08296" pt_clust_10="81.38002"></scales>
<clustering>
<clus scale="   81.380">  2 10  1 -1</clus>
<clus scale="   74.083">  1  9  2 -1</clus>
<clus scale="   89.085">  7  8 -1 -1</clus>
<clus scale="   89.267">  5  6 -1 -1</clus>
<clus scale="  164.324">  1  7  2 -1</clus>
<clus scale="   74.083">  1  5  2 -1</clus>
</clustering>
</event>
<event>
10    2  0.2445576E-006  0.9663863E+02  0.7546771E-02  0.1288923E+00
          2   -1    0    0  503    0  0.00000000000E+00  0.00000000000E+00  0.18798663967E+03  0.18798663967E+03  0.00000000000E+00 0. -1.
         -2   -1    0    0    0  501 -0.00000000000E+00 -0.00000000000E+00 -0.14545008853E+03  0.14545008853E+03  0.00000000000E+00 0.  1.
         23    2    1    2    0    0  0.22451161152E+02  0.53383416667E+01 -0.53733316895E+02  0.10804580364E+03  0.90851933444E+02 0.  0.
         23    2    1    2    0    0 -0.51486041139E+02  0.27491233968E+02 -0.16234841739E+01  0.10576590222E+03  0.88188491282E+02 0.  0.
        -13    1    3    3    0    0  0.39720453444E+02 -0.32758507459E+02 -0.34718825685E+02  0.62098559482E+02  0.00000000000E+00 0.  1.
         13    1    3    3    0    0 -0.17269292293E+02  0.38096849126E+02 -0.19014491210E+02  0.45947244156E+02  0.00000000000E+00 0. -1.
        -13    1    4    4    0    0 -0.10508618238E+02  0.55146391251E+02 -0.39267638650E+01  0.56275882932E+02  0.00000000000E+00 0. -1.
         13    1    4    4    0    0 -0.40977422901E+02 -0.27655157283E+02  0.23032796912E+01  0.49490019290E+02  0.00000000000E+00 0.  1.
         21    1    1    2  502  501  0.10313592014E+02 -0.21465815208E+02  0.94510786366E+02  0.97465071396E+02  0.00000000000E+00 0.  1.
         21    1    1    2  503  502  0.18721287973E+02 -0.11363760426E+02  0.33825658386E+01  0.22159950949E+02  0.00000000000E+00 0.  1.
<scales pt_clust_5="13000.00000" pt_clust_6="13000.00000" pt_clust_7="13000.00000" pt_clust_8="13000.00000" pt_clust_9="34.49511" pt_clust_10="21.90027"></scales>
<clustering>
<clus scale="   21.900">  1 10  2 -1</clus>
<clus scale="   34.495">  1  9  2 -1</clus>
<clus scale="   88.188">  7  8 -1 -1</clus>
<clus scale="   90.852">  5  6 -1 -1</clus>
<clus scale="   94.139">  1  7  2 -1</clus>
<clus scale="   21.900">  1  5  2 -1</clus>
</clustering>
</event>
<event>
10    2  0.2445576E-006  0.1109482E+03  0.7546771E-02  0.1261851E+00
         -1   -1    0    0    0  501 -0.00000000000E+00  0.00000000000E+00  0.43212472996E+03  0.43212472996E+03  0.00000000000E+00 0.  1.
          1   -1    0    0  502    0  0.00000000000E+00 -0.00000000000E+00 -0.18345016481E+03  0.18345016481E+03  0.00000000000E+00 0. -1.
         23    2    1    2    0    0 -0.90329118332E+02  0.48938433100E+02  0.21001584611E+03  0.25338459125E+03  0.97687131271E+02 0.  0.
         23    2    1    2    0    0  0.37185935785E+02  0.90538731534E+01 -0.85570720529E+01  0.98490830163E+02  0.90346298788E+02 0.  0.
        -11    1    4    4    0    0  0.55086988960E+01 -0.32726540009E+02 -0.27132119270E+02  0.42866351379E+02  0.00000000000E+00 0.  1.
         11    1    4    4    0    0  0.31677236889E+02  0.41780413162E+02  0.18575047217E+02  0.55624478784E+02  0.00000000000E+00 0. -1.
        -13    1    3    3    0    0 -0.31443414467E+02  0.42532031073E+02  0.23847729795E+02  0.58020480840E+02  0.00000000000E+00 0. -1.
         13    1    3    3    0    0 -0.58885703865E+02  0.64064020270E+01  0.18616811631E+03  0.19536411041E+03  0.00000000000E+00 0.  1.
         21    1    1    2  502  503  0.14995020966E+01 -0.39377130472E+02 -0.99516530455E+02  0.10703432508E+03  0.00000000000E+00 0. -1.
         21    1    1    2  503  501  0.51643680450E+02 -0.18615175781E+02  0.14673232154E+03  0.15666514828E+03  0.00000000000E+00 0.  1.
<scales pt_clust_5="13000.00000" pt_clust_6="13000.00000" pt_clust_7="13000.00000" pt_clust_8="13000.00000" pt_clust_9="39.40567" pt_clust_10="55.85660"></scales>
<clustering>
<clus scale="   39.406">  2  9  1 -1</clus>
<clus scale="   55.857">  1 10  2 -1</clus>
<clus scale="   90.346">  5  6 -1 -1</clus>
<clus scale="   97.687">  7  8 -1 -1</clus>
<clus scale="  104.543">  2  5  1 -1</clus>
<clus scale="   39.406">  2  5  1 -1</clus>
</clustering>
</event>
<event>
10    2  0.2445576E-006  0.1540098E+03  0.7546771E-02  0.1195856E+00
          1   -1    0    0  502    0  0.00000000000E+00  0.00000000000E+00  0.27446554000E+03  0.27446554000E+03  0.00000000000E+00 0. -1.
         -1   -1    0    0    0  501 -0.00000000000E+00 -0.00000000000E+00 -0.25692025127E+03  0.25692025127E+03  0.00000000000E+00 0.  1.
         23    2    1    2    0    0  0.87922229075E+02  0.11848094871E+03 -0.57302774762E+02  0.18362887811E+03  0.93101575221E+02 0.  0.
         23    2    1    2    0    0 -0.82422334877E+02 -0.66765784440E+02  0.99440400059E+02  0.17197356370E+03  0.91844445615E+02 0.  0.
        -11    1    4    4    0    0 -0.55569509750E+01 -0.48792226735E+02  0.57218270092E+01  0.49439866487E+02  0.00000000000E+00 0.  1.
         11    1    4    4    0    0 -0.76865383902E+02 -0.17973557705E+02  0.93718573050E+02  0.12253369722E+03  0.00000000000E+00 0. -1.
        -13    1    3    3    0    0  0.62321832238E+02  0.12385532309E+03 -0.69120142838E+02  0.15492496886E+03  0.00000000000E+00 0.  1.
         13    1    3    3    0    0  0.25600396837E+02 -0.53743743756E+01  0.11817368076E+02  0.28703909253E+02  0.00000000000E+00 0. -1.
         21    1    1    2  502  503  0.37111639407E+02 -0.48767837525E+02  0.56995947114E+02  0.83690583364E+02  0.00000000000E+00 0. -1.
         21    1    1    2  503  501 -0.42611533605E+02 -0.29473267474E+01 -0.81588283684E+02  0.92092766087E+02  0.00000000000E+00 0.  1.
<scales pt_clust_5="13000.00000" pt_clust_6="13000.00000" pt_clust_7="13000.00000" pt_clust_8="13000.00000" pt_clust_9="59.50771" pt_clust_10="42.71334"></scales>
<clustering>
<clus scale="   42.713">  2 10  1 -1</clus>
<clus scale="   59.508">  1  9  2 -1</clus>
<clus scale="   91.844">  5  6 -1 -1</clus>
<clus scale="   93.102">  7  8 -1 -1</clus>
<clus scale="  153.253">  1  5  2 -1</clus>
<clus scale="   59.508">  1  5  2 -1</clus>
</clustering>
</event>
<event>
10    2  0.2445576E-006  0.1206458E+03  0.7546771E-02  0.1242189E+00
          2   -1    0    0  502    0  0.00000000000E+00  0.00000000000E+00  0.43157973643E+02  0.43157973643E+02  0.00000000000E+00 0. -1.
         -2   -1    0    0    0  501 -0.00000000000E+00 -0.00000000000E+00 -0.72955690089E+03  0.72955690089E+03  0.00000000000E+00 0.  1.
         23    2    1    2    0    0 -0.95384111888E+01  0.54664939555E+02 -0.37272559004E+03  0.38764907998E+03  0.90929680691E+02 0.  0.
         23    2    1    2    0    0  0.43156103683E+02 -0.95036726087E+02 -0.23979698959E+03  0.27704719484E+03  0.91422772681E+02 0.  0.
        -11    1    4    4    0    0  0.70714252904E+02 -0.52845410660E+02 -0.14807032542E+03  0.17238899112E+03  0.00000000000E+00 0. -1.
         11    1    4    4    0    0 -0.27558149220E+02 -0.42191315427E+02 -0.91726664174E+02  0.10465820372E+03  0.00000000000E+00 0.  1.
        -13    1    3    3    0    0  0.26025537701E+02  0.62633920741E+02 -0.20220947349E+03  0.21328152243E+03  0.00000000000E+00 0.  1.
         13    1    3    3    0    0 -0.35563948890E+02 -0.79689811862E+01 -0.17051611655E+03  0.17436755755E+03  0.00000000000E+00 0. -1.
         21    1    1    2  502  503 -0.18711944182E+02  0.18049176129E+02  0.33940558247E+01  0.26218871619E+02  0.00000000000E+00 0. -1.
         21    1    1    2  503  501 -0.14905748312E+02  0.22322610402E+02 -0.77270403436E+02  0.81799728087E+02  0.00000000000E+00 0.  1.
<scales pt_clust_5="13000.00000" pt_clust_6="13000.00000" pt_clust_7="13000.00000" pt_clust_8="13000.00000" pt_clust_9="25.99826" pt_clust_10="28.87417"></scales>
<clustering>
<clus scale="   25.998">  1  9  2 -1</clus>
<clus scale="   28.874">  2 10  1 -1</clus>
<clus scale="   90.930">  7  8 -1 -1</clus>
<clus scale="   91.423">  5  6 -1 -1</clus>
<clus scale="  120.273">  2  7  1 -1</clus>
<clus scale="   25.998">  1  5  2 -1</clus>
</clustering>
</event>
<event>
10    2  0.2445576E-006  0.1437350E+03  0.7546771E-02  0.1208797E+00
         -1   -1    0    0    0  501 -0.00000000000E+00  0.00000000000E+00  0.14230980755E+03  0.14230980755E+03  0.00000000000E+00 0.  1.
          1   -1    0    0  502    0  0.00000000000E+00 -0.00000000000E+00 -0.42206339829E+03  0.42206339829E+03  0.00000000000E+00 0. -1.
         23    2    1    2    0    0  0.42313017456E+02 -0.11481679427E+03 -0.92933918385E+01  0.15259242470E+03  0.90690645883E+02 0.  0.
         23    2    1    2    0    0 -0.84977810945E+01  0.12795251205E+03 -0.24272180975E+03  0.28972356637E+03  0.92638061071E+02 0.  0.
        -11    1    3    3    0    0 -0.25313681367E+02 -0.92783236254E+01 -0.13347017685E+01  0.26993539643E+02  0.00000000000E+00 0. -1.
         11    1    3    3    0    0  0.67626698822E+02 -0.10553847064E+03 -0.79586900700E+01  0.12559888505E+03  0.00000000000E+00 0.  1.
        -11    1    4    4    0    0  0.12891801256E+02  0.33126390229E+02 -0.91120628788E+01  0.36695857520E+02  0.00000000000E+00 0.  1.
         11    1    4    4    0    0 -0.21389582351E+02  0.94826121820E+02 -0.23360974688E+03  0.25302770885E+03  0.00000000000E+00 0. -1.
         21    1    1    2  502  503  0.85684228748E+01 -0.29827593901E+02 -0.59100332891E+02  0.66752921856E+02  0.00000000000E+00 0.  1.
         21    1    1    2  503  501 -0.42383659236E+02  0.16691876119E+02  0.31361943748E+02  0.55304292910E+02  0.00000000000E+00 0.  1.
<scales pt_clust_5="13000.00000" pt_clust_6="13000.00000" pt_clust_7="13000.00000" pt_clust_8="13000.00000" pt_clust_9="31.03390" pt_clust_10="44.92951"></scales>
<clustering>
<clus scale="   31.034">  2  9  1 -1</clus>
<clus scale="   44.930">  1 10  2 -1</clus>
<clus scale="   90.691">  5  6 -1 -1</clus>
<clus scale="   92.638">  7  8 -1 -1</clus>
<clus scale="  142.488">  1  5  2 -1</clus>
<clus scale="   31.034">  2  5  1 -1</clus>
</clustering>
</event>
<event>
10    2  0.2445576E-006  0.2819216E+03  0.7546771E-02  0.1094680E+00
          2   -1    0    0  502    0  0.00000000000E+00  0.00000000000E+00  0.43092582463E+03  0.43092582463E+03  0.00000000000E+00 0. -1.
         -2   -1    0    0    0  501 -0.00000000000E+00 -0.00000000000E+00 -0.31612171932E+03  0.31612171932E+03  0.00000000000E+00 0.  1.
         23    2    1    2    0    0 -0.20929480301E+03  0.14320647202E+03 -0.52827192685E+02  0.27478725754E+03  0.91678331269E+02 0.  0.
         23    2    1    2    0    0  0.21846186642E+03 -0.17045366627E+03  0.23934820960E+02  0.29259051813E+03  0.90864163569E+02 0.  0.
        -11    1    3    3    0    0 -0.37861121466E+02  0.39805589411E+02 -0.50425290074E+02  0.74569828658E+02  0.00000000000E+00 0.  1.
         11    1    3    3    0    0 -0.17143368154E+03  0.10340088261E+03 -0.24019026109E+01  0.20021742888E+03  0.00000000000E+00 0. -1.
        -11    1    4    4    0    0  0.16570972513E+03 -0.97426890303E+02  0.50345404865E+02  0.19871178059E+03  0.00000000000E+00 0.  1.
         11    1    4    4    0    0  0.52752141289E+02 -0.73026775966E+02 -0.26410583905E+02  0.93878737533E+02  0.00000000000E+00 0. -1.
         21    1    1    2  502  503  0.14226077832E+02  0.15237380673E+02  0.15095729815E+03  0.15238984521E+03  0.00000000000E+00 0. -1.
         21    1    1    2  503  501 -0.23393141240E+02  0.12009813578E+02 -0.72608211081E+01  0.27279923064E+02  0.00000000000E+00 0. -1.
<scales pt_clust_5="13000.00000" pt_clust_6="13000.00000" pt_clust_7="13000.00000" pt_clust_8="13000.00000" pt_clust_9="20.84608" pt_clust_10="26.10162"></scales>
<clustering>
<clus scale="   20.846">  1  9  2 -1</clus>
<clus scale="   26.102">  2 10  1 -1</clus>
<clus scale="   90.864">  7  8 -1 -1</clus>
<clus scale="   91.678">  5  6 -1 -1</clus>
<clus scale="  281.658">  1  7  2 -1</clus>
<clus scale="   20.846">  1  5  2 -1</clus>
</clustering>
</event>
<event>
10    2  0.2445576E-006  0.1005848E+03  0.7546771E-02  0.1280246E+00
         -2   -1    0    0    0  501 -0.00000000000E+00  0.00000000000E+00  0.59429940583E+03  0.59429940583E+03  0.00000000000E+00 0.  1.
          2   -1    0    0  502    0  0.00000000000E+00 -0.00000000000E+00 -0.93834639954E+02  0.93834639954E+02  0.00000000000E+00 0. -1.
         23    2    1    2    0    0 -0.77543815214E+01  0.77450093978E+02  0.93304835360E+02  0.15047404127E+03  0.88758083044E+02 0.  0.
         23    2    1    2    0    0 -0.64901218537E+01 -0.22856730034E+02  0.35002188376E+02  0.10055144869E+03  0.91218906226E+02 0.  0.
        -11    1    4    4    0    0  0.29018311375E+02 -0.21893877746E+02  0.50146737261E+02  0.61936253807E+02  0.00000000000E+00 0.  1.
         11    1    4    4    0    0 -0.35508433229E+02 -0.96285228827E+00 -0.15144548885E+02  0.38615194883E+02  0.00000000000E+00 0. -1.
        -13    1    3    3    0    0 -0.38497245131E+02  0.84255856744E+01  0.16475330403E+02  0.42713755261E+02  0.00000000000E+00 0.  1.
         13    1    3    3    0    0  0.30742863610E+02  0.69024508304E+02  0.76829504957E+02  0.10776028601E+03  0.00000000000E+00 0. -1.
         21    1    1    2  502  503 -0.25872434850E+02  0.44561327094E+01 -0.23395427201E+02  0.35165125020E+02  0.00000000000E+00 0.  1.
         21    1    1    2  503  501  0.40116938225E+02 -0.59049496654E+02  0.39555316934E+03  0.40194343080E+03  0.00000000000E+00 0.  1.
<scales pt_clust_5="13000.00000" pt_clust_6="13000.00000" pt_clust_7="13000.00000" pt_clust_8="13000.00000" pt_clust_9="26.25338" pt_clust_10="70.49190"></scales>
<clustering>
<clus scale="   26.253">  2  9  1 -1</clus>
<clus scale="   70.492">  1 10  2 -1</clus>
<clus scale="   88.758">  7  8 -1 -1</clus>
<clus scale="   91.219">  5  6 -1 -1</clus>
<clus scale="   98.359">  1  7  2 -1</clus>
<clus scale="   26.253">  2  5  1 -1</clus>
</clustering>
</event>
<event>
10    2  0.2445576E-006  0.1017612E+03  0.7546771E-02  0.1279022E+00
          2   -1    0    0  502    0  0.00000000000E+00  0.00000000000E+00  0.63629996509E+03  0.63629996509E+03  0.00000000000E+00 0. -1.
         -2   -1    0    0    0  501 -0.00000000000E+00 -0.00000000000E+00 -0.62871106669E+02  0.62871106669E+02  0.00000000000E+00 0.  1.
         23    2    1    2    0    0  0.20025331423E+02  0.65543479693E+02  0.18022257933E+03  0.21204485124E+03  0.88237629217E+02 0.  0.
         23    2    1    2    0    0  0.40418535345E+02  0.48864094862E+01  0.29720003197E+03  0.31446189951E+03  0.94344540079E+02 0.  0.
        -11    1    4    4    0    0  0.24324979139E+02  0.37555705536E+02  0.25421863600E+03  0.25812642351E+03  0.00000000000E+00 0. -1.
         11    1    4    4    0    0  0.16093556205E+02 -0.32669296049E+02  0.42981395972E+02  0.56335475994E+02  0.00000000000E+00 0.  1.
        -13    1    3    3    0    0 -0.88973554814E+01  0.61860828494E+02  0.17004016811E+03  0.18116176144E+03  0.00000000000E+00 0.  1.
         13    1    3    3    0    0  0.28922686904E+02  0.36826511986E+01  0.10182411218E+02  0.30883089804E+02  0.00000000000E+00 0. -1.
         21    1    1    2  502  503  0.22498370396E+02 -0.42798790570E+01  0.53826721596E+02  0.58496239136E+02  0.00000000000E+00 0.  1.
         21    1    1    2  503  501 -0.82942237164E+02 -0.66150010122E+02  0.42179525529E+02  0.11416808187E+03  0.00000000000E+00 0.  1.
<scales pt_clust_5="13000.00000" pt_clust_6="13000.00000" pt_clust_7="13000.00000" pt_clust_8="13000.00000" pt_clust_9="22.90183" pt_clust_10="104.10646"></scales>
<clustering>
<clus scale="   22.902">  1  9  2 -1</clus>
<clus scale="   88.238">  7  8 -1 -1</clus>
<clus scale="   94.345">  5  6 -1 -1</clus>
<clus scale="  104.106">  2 10  1 -1</clus>
<clus scale="  104.106">  2  7  1 -1</clus>
<clus scale="   22.902">  1  5  2 -1</clus>
</clustering>
</event>
<event>
10    2  0.2445576E-006  0.1135753E+03  0.7546771E-02  0.1254760E+00
          1   -1    0    0  502    0  0.00000000000E+00  0.00000000000E+00  0.63436050921E+03  0.63436050921E+03  0.00000000000E+00 0. -1.
         -1   -1    0    0    0  501 -0.00000000000E+00 -0.00000000000E+00 -0.79086252724E+02  0.79086252724E+02  0.00000000000E+00 0.  1.
         23    2    1    2    0    0  0.37640521577E+01  0.21729169129E+02  0.97882712757E+02  0.13546536745E+03  0.91013820055E+02 0.  0.
         23    2    1    2    0    0  0.11950351916E+02 -0.10563406183E+03  0.28301260675E+03  0.31625911679E+03  0.92856488416E+02 0.  0.
        -11    1    3    3    0    0 -0.75566752216E+01  0.56094589500E+02  0.50555224466E+02  0.75891613716E+02  0.00000000000E+00 0.  1.
         11    1    3    3    0    0  0.11320727379E+02 -0.34365420371E+02  0.47327488291E+02  0.59573753730E+02  0.00000000000E+00 0. -1.
        -13    1    4    4    0    0  0.67061178931E+01 -0.81413897025E+02  0.27954492792E+03  0.29123626383E+03  0.00000000000E+00 0. -1.
         13    1    4    4    0    0  0.52442340225E+01 -0.24220164805E+02  0.34676788369E+01  0.25022852958E+02  0.00000000000E+00 0.  1.
         21    1    1    2  502  503 -0.36325415991E+02  0.71987259163E+01  0.17839086227E+03  0.18219400990E+03  0.00000000000E+00 0. -1.
         21    1    1    2  503  501  0.20611011918E+02  0.76706166784E+02 -0.40119252929E+01  0.79528267802E+02  0.00000000000E+00 0.  1.
<scales pt_clust_5="13000.00000" pt_clust_6="13000.00000" pt_clust_7="13000.00000" pt_clust_8="13000.00000" pt_clust_9="37.03184" pt_clust_10="79.28083"></scales>
<clustering>
<clus scale="   37.032">  1  9  2 -1</clus>
<clus scale="   79.281">  2 10  1 -1</clus>
<clus scale="   91.014">  5  6 -1 -1</clus>
<clus scale="   92.856">  7  8 -1 -1</clus>
<clus scale="  112.074">  2  5  1 -1</clus>
<clus scale="   37.032">  1  5  2 -1</clus>
</clustering>
</event>
<event>
10    2  0.2445576E-006  0.1637370E+03  0.7546771E-02  0.1184849E+00
          1   -1    0    0  502    0  0.00000000000E+00  0.00000000000E+00  0.10983181309E+03  0.10983181309E+03  0.00000000000E+00 0. -1.
         -1   -1    0    0    0  501 -0.00000000000E+00 -0.00000000000E+00 -0.45314437868E+03  0.45314437868E+03  0.00000000000E+00 0.  1.
         23    2    1    2    0    0  0.84711203620E+02 -0.74181101183E+02 -0.15774977369E+03  0.21475295714E+03  0.92493338749E+02 0.  0.
         23    2    1    2    0    0 -0.16051777769E+03  0.58440944446E+02 -0.97701887981E+02  0.21828206426E+03  0.94446279532E+02 0.  0.
        -13    1    4    4    0    0 -0.31109932520E+02  0.44933961093E+02  0.14907248663E+01  0.54672763068E+02  0.00000000000E+00 0. -1.
         13    1    4    4    0    0 -0.12940784517E+03  0.13506983353E+02 -0.99192612848E+02  0.16360930119E+03  0.00000000000E+00 0.  1.
        -13    1    3    3    0    0 -0.12899090926E+02 -0.35087355650E+02 -0.62769970222E+02  0.73058731408E+02  0.00000000000E+00 0.  1.
         13    1    3    3    0    0  0.97610294546E+02 -0.39093745533E+02 -0.94979803464E+02  0.14169422574E+03  0.00000000000E+00 0. -1.
         21    1    1    2  502  503  0.50996590635E+02  0.34855143799E+01 -0.16999017995E+02  0.53868058064E+02  0.00000000000E+00 0.  1.
         21    1    1    2  503  501  0.24809983438E+02  0.12254642357E+02 -0.70861885935E+02  0.76073112305E+02  0.00000000000E+00 0. -1.
<scales pt_clust_5="13000.00000" pt_clust_6="13000.00000" pt_clust_7="13000.00000" pt_clust_8="13000.00000" pt_clust_9="53.51260" pt_clust_10="27.67149"></scales>
<clustering>
<clus scale="   27.671">  2 10  1 -1</clus>
<clus scale="   53.513">  1  9  2 -1</clus>
<clus scale="   92.493">  7  8 -1 -1</clus>
<clus scale="   94.446">  5  6 -1 -1</clus>
<clus scale="  162.618">  2  7  1 -1</clus>
<clus scale="   53.513">  1  5  2 -1</clus>
</clustering>
</event>
<event>
10    2  0.2445576E-006  0.1228631E+03  0.7546771E-02  0.1246463E+00
          3   -1    0    0  502    0  0.00000000000E+00  0.00000000000E+00  0.31080751449E+03  0.31080751449E+03  0.00000000000E+00 0. -1.
         -3   -1    0    0    0  501 -0.00000000000E+00 -0.00000000000E+00 -0.93222662115E+02  0.93222662115E+02  0.00000000000E+00 0.  1.
         23    2    1    2    0    0  0.52032498738E+02  0.62932979910E+00  0.29017063637E+02  0.10932486778E+03  0.91663295552E+02 0.  0.
         23    2    1    2    0    0 -0.12081120484E+02 -0.69695131164E+02  0.13389201619E+03  0.18844956553E+03  0.11217308933E+03 0.  0.
        -13    1    4    4    0    0  0.14721997980E+02 -0.94609221992E+02  0.91357967771E+02  0.13234016921E+03  0.00000000000E+00 0.  1.
         13    1    4    4    0    0 -0.26803118464E+02  0.24914090828E+02  0.42534048421E+02  0.56109396327E+02  0.00000000000E+00 0. -1.
        -13    1    3    3    0    0 -0.25220307697E+02  0.10888170037E+02  0.78875905702E+01  0.28580242338E+02  0.00000000000E+00 0. -1.
         13    1    3    3    0    0  0.77252806436E+02 -0.10258840238E+02  0.21129473066E+02  0.80744625439E+02  0.00000000000E+00 0.  1.
         21    1    1    2  502  503 -0.21022722755E+02  0.15749871322E+02  0.39919286791E+02  0.47786638055E+02  0.00000000000E+00 0. -1.
         21    1    1    2  503  501 -0.18928655500E+02  0.53315930043E+02  0.14756485754E+02  0.58469105237E+02  0.00000000000E+00 0. -1.
<scales pt_clust_5="13000.00000" pt_clust_6="13000.00000" pt_clust_7="13000.00000" pt_clust_8="13000.00000" pt_clust_9="26.26810" pt_clust_10="59.60997"></scales>
<clustering>
<clus scale="   26.268">  1  9  2 -1</clus>
<clus scale="   59.610">  2 10  1 -1</clus>
<clus scale="   91.663">  7  8 -1 -1</clus>
<clus scale="  104.473">  2  7  1 -1</clus>
<clus scale="  112.173">  5  6 -1 -1</clus>
<clus scale="   26.268">  1  5  2 -1</clus>
</clustering>
</event>
<event>
10    2  0.2445576E-006  0.2610735E+03  0.7546771E-02  0.1108210E+00
         -1   -1    0    0    0  501 -0.00000000000E+00  0.00000000000E+00  0.68398932748E+02  0.68398932748E+02  0.00000000000E+00 0.  1.
          1   -1    0    0  502    0  0.00000000000E+00 -0.00000000000E+00 -0.22690170554E+04  0.22690170554E+04  0.00000000000E+00 0. -1.
         23    2    1    2    0    0 -0.57105568803E+02 -0.20305725635E+03 -0.34697362563E+03  0.41605547456E+03  0.90654099091E+02 0.  0.
         23    2    1    2    0    0 -0.28865308696E+02  0.31091045022E+03 -0.11131116025E+04  0.11620877173E+04  0.11803350748E+03 0.  0.
        -11    1    3    3    0    0 -0.50055284832E+01 -0.14515023942E+03 -0.17610244038E+03  0.22826676681E+03  0.00000000000E+00 0. -1.
         11    1    3    3    0    0 -0.52100040319E+02 -0.57907016925E+02 -0.17087118525E+03  0.18778870775E+03  0.00000000000E+00 0.  1.
        -13    1    4    4    0    0 -0.13386249247E+02  0.13179300118E+03 -0.27942499465E+03  0.30923601741E+03  0.00000000000E+00 0.  1.
         13    1    4    4    0    0 -0.15479059449E+02  0.17911744905E+03 -0.83368660783E+03  0.85285169984E+03  0.00000000000E+00 0. -1.
         21    1    1    2  502  503  0.69274499978E+01 -0.73425693020E+02 -0.45728679019E+03  0.46319599571E+03  0.00000000000E+00 0. -1.
         21    1    1    2  503  501  0.79043427501E+02 -0.34427500858E+02 -0.28324610436E+03  0.29607680065E+03  0.00000000000E+00 0.  1.
<scales pt_clust_5="13000.00000" pt_clust_6="13000.00000" pt_clust_7="13000.00000" pt_clust_8="13000.00000" pt_clust_9="73.75176" pt_clust_10="92.50743"></scales>
<clustering>
<clus scale="   73.752">  2  9  1 -1</clus>
<clus scale="   90.654">  5  6 -1 -1</clus>
<clus scale="   92.507">  2 10  1 -1</clus>
<clus scale="  118.034">  7  8 -1 -1</clus>
<clus scale="  249.891">  1  5  2 -1</clus>
<clus scale="   73.752">  2  5  1 -1</clus>
</clustering>
</event>
<event>
10    2  0.2445576E-006  0.1155211E+03  0.7546771E-02  0.1261728E+00
         -1   -1    0    0    0  501 -0.00000000000E+00  0.00000000000E+00  0.34199567651E+03  0.34199567651E+03  0.00000000000E+00 0.  1.
          1   -1    0    0  502    0  0.00000000000E+00 -0.00000000000E+00 -0.20892663331E+03  0.20892663331E+03  0.00000000000E+00 0. -1.
         23    2    1    2    0    0  0.66224636296E+02  0.34749152869E+02  0.67989464773E+02  0.14935170679E+03  0.10995525873E+03 0.  0.
         23    2    1    2    0    0  0.34695481571E+01 -0.19095537276E+02 -0.29453871034E+02  0.92779551575E+02  0.85812804192E+02 0.  0.
        -11    1    4    4    0    0 -0.17855785401E+02  0.28123569789E+02 -0.23192319129E+02  0.40591229552E+02  0.00000000000E+00 0.  1.
         11    1    4    4    0    0  0.21325333558E+02 -0.47219107065E+02 -0.62615519049E+01  0.52188322023E+02  0.00000000000E+00 0. -1.
        -13    1    3    3    0    0  0.83767441968E+02 -0.10069354265E+02  0.37134135582E+02  0.92180910468E+02  0.00000000000E+00 0. -1.
         13    1    3    3    0    0 -0.17542805672E+02  0.44818507134E+02  0.30855329191E+02  0.57170796322E+02  0.00000000000E+00 0.  1.
         21    1    1    2  502  503 -0.17026596548E+02 -0.18002008334E+02 -0.10217693275E+03  0.10513849381E+03  0.00000000000E+00 0. -1.
         21    1    1    2  503  501 -0.52667587906E+02  0.23483927407E+01  0.19671038221E+03  0.20365255764E+03  0.00000000000E+00 0.  1.
<scales pt_clust_5="13000.00000" pt_clust_6="13000.00000" pt_clust_7="13000.00000" pt_clust_8="13000.00000" pt_clust_9="24.77857" pt_clust_10="53.25793"></scales>
<clustering>
<clus scale="   24.779">  2  9  1 -1</clus>
<clus scale="   53.258">  1 10  2 -1</clus>
<clus scale="   85.813">  5  6 -1 -1</clus>
<clus scale="   92.837">  2  5  1 -1</clus>
<clus scale="  109.955">  7  8 -1 -1</clus>
<clus scale="   24.779">  2  5  1 -1</clus>
</clustering>
</event>
<event>
10    2  0.2445576E-006  0.1244966E+03  0.7546771E-02  0.1236152E+00
         -2   -1    0    0    0  501 -0.00000000000E+00  0.00000000000E+00  0.42754375276E+03  0.42754375276E+03  0.00000000000E+00 0.  1.
          2   -1    0    0  502    0  0.00000000000E+00 -0.00000000000E+00 -0.13795579690E+03  0.13795579690E+03  0.00000000000E+00 0. -1.
         23    2    1    2    0    0 -0.87534233067E+02  0.14602242216E+01  0.31117438345E+03  0.33559259076E+03  0.90158282154E+02 0.  0.
         23    2    1    2    0    0  0.52726892709E+02 -0.44225663176E+01 -0.27761548968E+02  0.10901401259E+03  0.91179312522E+02 0.  0.
        -11    1    3    3    0    0 -0.95062428788E+02 -0.20533922001E+02  0.20495534355E+03  0.22685942821E+03  0.00000000000E+00 0.  1.
         11    1    3    3    0    0  0.75281957211E+01  0.21994146223E+02  0.10621903991E+03  0.10873316255E+03  0.00000000000E+00 0. -1.
        -13    1    4    4    0    0 -0.13962192902E+02  0.14328285318E+02  0.17236675162E+02  0.26407301290E+02  0.00000000000E+00 0.  1.
         13    1    4    4    0    0  0.66689085611E+02 -0.18750851636E+02 -0.44998224130E+02  0.82606711299E+02  0.00000000000E+00 0. -1.
         21    1    1    2  502  503  0.38054165498E+02  0.40144176176E+02 -0.34891694196E+02  0.65399577341E+02  0.00000000000E+00 0. -1.
         21    1    1    2  503  501 -0.32468251398E+01 -0.37181834079E+02  0.41066815567E+02  0.55493368971E+02  0.00000000000E+00 0.  1.
<scales pt_clust_5="13000.00000" pt_clust_6="13000.00000" pt_clust_7="13000.00000" pt_clust_8="13000.00000" pt_clust_9="54.14722" pt_clust_10="37.32333"></scales>
<clustering>
<clus scale="   37.323">  1 10  2 -1</clus>
<clus scale="   54.147">  2  9  1 -1</clus>
<clus scale="   90.158">  5  6 -1 -1</clus>
<clus scale="   91.179">  7  8 -1 -1</clus>
<clus scale="  123.751">  1  5  2 -1</clus>
<clus scale="   54.147">  2  5  1 -1</clus>
</clustering>
</event>
<event>
10    2  0.2445576E-006  0.2944077E+03  0.7546771E-02  0.1088398E+00
          1   -1    0    0  502    0  0.00000000000E+00  0.00000000000E+00  0.93495094155E+03  0.93495094155E+03  0.00000000000E+00 0. -1.
         -1   -1    0    0    0  501 -0.00000000000E+00 -0.00000000000E+00 -0.18426618986E+03  0.18426618986E+03  0.00000000000E+00 0.  1.
         23    2    1    2    0    0  0.28396500579E+03  0.50148072735E+01  0.24648861045E+03  0.38474201245E+03  0.81292731876E+02 0.  0.
         23    2    1    2    0    0 -0.28277612989E+03 -0.53949246218E+02  0.41031813381E+03  0.50925006649E+03  0.90009991011E+02 0.  0.
        -11    1    3    3    0    0  0.23148246537E+02 -0.23113971400E+02  0.21490497233E+02  0.39139985475E+02  0.00000000000E+00 0.  1.
         11    1    3    3    0    0  0.26081675926E+03  0.28128778674E+02  0.22499811322E+03  0.34560202698E+03  0.00000000000E+00 0. -1.
        -11    1    4    4    0    0 -0.89261779974E+02  0.20486202218E+02  0.15852575229E+03  0.18307857326E+03  0.00000000000E+00 0. -1.
         11    1    4    4    0    0 -0.19351434992E+03 -0.74435448436E+02  0.25179238152E+03  0.32617149324E+03  0.00000000000E+00 0.  1.
         21    1    1    2  502  503  0.23248129422E+02  0.11695682461E+02  0.15075412709E+03  0.15298389244E+03  0.00000000000E+00 0. -1.
         21    1    1    2  503  501 -0.24437005322E+02  0.37238756483E+02 -0.56876119673E+02  0.72241160031E+02  0.00000000000E+00 0.  1.
<scales pt_clust_5="13000.00000" pt_clust_6="13000.00000" pt_clust_7="13000.00000" pt_clust_8="13000.00000" pt_clust_9="26.02431" pt_clust_10="44.51242"></scales>
<clustering>
<clus scale="   26.024">  1  9  2 -1</clus>
<clus scale="   44.512">  2 10  1 -1</clus>
<clus scale="   81.293">  5  6 -1 -1</clus>
<clus scale="   90.010">  7  8 -1 -1</clus>
<clus scale="  291.861">  2  5  1 -1</clus>
<clus scale="   26.024">  1  5  2 -1</clus>
</clustering>
</event>
<event>
10    2  0.2445576E-006  0.1126290E+03  0.7546771E-02  0.1256487E+00
         -2   -1    0    0    0  501 -0.00000000000E+00  0.00000000000E+00  0.93942504015E+02  0.93942504015E+02  0.00000000000E+00 0.  1.
          2   -1    0    0  503    0  0.00000000000E+00 -0.00000000000E+00 -0.41555735012E+03  0.41555735012E+03  0.00000000000E+00 0. -1.
         23    2    1    2    0    0 -0.80424932597E+02 -0.38840718919E+02 -0.12310788442E+03  0.17672674767E+03  0.90000116146E+02 0.  0.
         23    2    1    2    0    0  0.54610024204E+02  0.74053748974E+01 -0.22116986036E+03  0.24577316916E+03  0.91930676212E+02 0.  0.
        -13    1    4    4    0    0  0.61239671213E+02  0.33704980528E+02 -0.10265824537E+03  0.12419757802E+03  0.00000000000E+00 0.  1.
         13    1    4    4    0    0 -0.66296470094E+01 -0.26299605630E+02 -0.11851161499E+03  0.12157559114E+03  0.00000000000E+00 0. -1.
        -13    1    3    3    0    0  0.14214264268E+02 -0.28111560703E+02 -0.28518803308E+02  0.42492673439E+02  0.00000000000E+00 0.  1.
         13    1    3    3    0    0 -0.94639196865E+02 -0.10729158216E+02 -0.94589081113E+02  0.13423407423E+03  0.00000000000E+00 0. -1.
         21    1    1    2  502  501 -0.14913463407E+02  0.18742053556E+02 -0.16503539637E+02  0.29086814587E+02  0.00000000000E+00 0.  1.
         21    1    1    2  503  502  0.40728371800E+02  0.12693290466E+02  0.39166438312E+02  0.57913122712E+02  0.00000000000E+00 0.  1.
<scales pt_clust_5="13000.00000" pt_clust_6="13000.00000" pt_clust_7="13000.00000" pt_clust_8="13000.00000" pt_clust_9="23.95153" pt_clust_10="39.83219"></scales>
<clustering>
<clus scale="   23.952">  1  9  2 -1</clus>
<clus scale="   39.832">  1 10  2 -1</clus>
<clus scale="   90.000">  7  8 -1 -1</clus>
<clus scale="   91.931">  5  6 -1 -1</clus>
<clus scale="  111.059">  1  7  2 -1</clus>
<clus scale="  112.629">  2  5  1 -1</clus>
</clustering>
</event>
<event>
10    2  0.2445576E-006  0.1535365E+03  0.7546771E-02  0.1196622E+00
         -1   -1    0    0    0  501 -0.00000000000E+00  0.00000000000E+00  0.29192944639E+03  0.29192944639E+03  0.00000000000E+00 0.  1.
          1   -1    0    0  502    0  0.00000000000E+00 -0.00000000000E+00 -0.21479753209E+03  0.21479753209E+03  0.00000000000E+00 0. -1.
         23    2    1    2    0    0  0.13093471395E+02  0.97960423756E+02  0.23738998050E+02  0.13495418855E+03  0.88777302076E+02 0.  0.
         23    2    1    2    0    0 -0.66756747655E+02 -0.13545409740E+03 -0.20893320762E+02  0.17765029188E+03  0.91207562699E+02 0.  0.
        -11    1    3    3    0    0  0.38119465910E+02  0.25323898059E+02  0.34588373956E+02  0.57365051269E+02  0.00000000000E+00 0.  1.
         11    1    3    3    0    0 -0.25025994515E+02  0.72636525697E+02 -0.10849375907E+02  0.77589137283E+02  0.00000000000E+00 0. -1.
        -13    1    4    4    0    0 -0.87144442135E+02 -0.12093966224E+03 -0.74736239266E+01  0.14925284169E+03  0.00000000000E+00 0.  1.
         13    1    4    4    0    0  0.20387694480E+02 -0.14514435155E+02 -0.13419696836E+02  0.28397450189E+02  0.00000000000E+00 0. -1.
         21    1    1    2  502  503  0.79975826094E+02 -0.45643879662E+02  0.40664404727E+02  0.10066325209E+03  0.00000000000E+00 0. -1.
         21    1    1    2  503  501 -0.26312549834E+02  0.83137553304E+02  0.33621832279E+02  0.93459245952E+02  0.00000000000E+00 0.  1.
<scales pt_clust_5="13000.00000" pt_clust_6="13000.00000" pt_clust_7="13000.00000" pt_clust_8="13000.00000" pt_clust_9="74.54575" pt_clust_10="87.20208"></scales>
<clustering>
<clus scale="   87.202">  1 10  2 -1</clus>
<clus scale="   74.546">  1  9  2 -1</clus>
<clus scale="   88.777">  5  6 -1 -1</clus>
<clus scale="   91.208">  7  8 -1 -1</clus>
<clus scale="  152.105">  1  5  2 -1</clus>
<clus scale="  153.537">  2  5  1 -1</clus>
</clustering>
</event>
<event>
10    2  0.2445576E-006  0.1749047E+03  0.7546771E-02  0.1172844E+00
         -1   -1    0    0    0  501 -0.00000000000E+00  0.00000000000E+00  0.32143380935E+03  0.32143380935E+03  0.00000000000E+00 0.  1.
          1   -1    0    0  502    0  0.00000000000E+00 -0.00000000000E+00 -0.40708331133E+03  0.40708331133E+03  0.00000000000E+00 0. -1.
         23    2    1    2    0    0 -0.94494063095E+02  0.13258361503E+03  0.18540008354E+03  0.26375190400E+03  0.93189768516E+02 0.  0.
         23    2    1    2    0    0  0.32854665354E+02 -0.12055827497E+03 -0.24178913450E+02  0.15766894546E+03  0.93065298613E+02 0.  0.
        -11    1    3    3    0    0  0.16952059746E+02  0.19425977857E+02  0.44536077701E+02  0.51460695315E+02  0.00000000000E+00 0. -1.
         11    1    3    3    0    0 -0.11144612284E+03  0.11315763717E+03  0.14086400584E+03  0.21229120869E+03  0.00000000000E+00 0.  1.
        -13    1    4    4    0    0 -0.23470652522E+02 -0.35054115826E+02 -0.34858434660E+02  0.54724519487E+02  0.00000000000E+00 0. -1.
         13    1    4    4    0    0  0.56325317875E+02 -0.85504159145E+02  0.10679521209E+02  0.10294442597E+03  0.00000000000E+00 0.  1.
         21    1    1    2  502  503  0.36603506386E+02 -0.22883276695E+02 -0.26870309784E+03  0.27214851794E+03  0.00000000000E+00 0. -1.
         21    1    1    2  503  501  0.25035891355E+02  0.10857936639E+02  0.21832425771E+02  0.34947753276E+02  0.00000000000E+00 0. -1.
<scales pt_clust_5="13000.00000" pt_clust_6="13000.00000" pt_clust_7="13000.00000" pt_clust_8="13000.00000" pt_clust_9="43.25899" pt_clust_10="27.28902"></scales>
<clustering>
<clus scale="   27.289">  1 10  2 -1</clus>
<clus scale="   43.259">  2  9  1 -1</clus>
<clus scale="   93.065">  7  8 -1 -1</clus>
<clus scale="   93.190">  5  6 -1 -1</clus>
<clus scale="  174.838">  2  7  1 -1</clus>
<clus scale="   43.259">  2  5  1 -1</clus>
</clustering>
</event>
<event>
10    2  0.2445576E-006  0.1189904E+03  0.7546771E-02  0.1244874E+00
          1   -1    0    0  502    0  0.00000000000E+00  0.00000000000E+00  0.28726638560E+02  0.28726638560E+02  0.00000000000E+00 0. -1.
         -1   -1    0    0    0  501 -0.00000000000E+00 -0.00000000000E+00 -0.10087847908E+04  0.10087847908E+04  0.00000000000E+00 0.  1.
         23    2    1    2    0    0  0.10697513166E+03  0.32038338771E+02 -0.34460764071E+03  0.37354928470E+03  0.91183924709E+02 0.  0.
         23    2    1    2    0    0 -0.41646333573E+02 -0.30375753269E+02 -0.25527182202E+03  0.27603157000E+03  0.91502027474E+02 0.  0.
        -11    1    3    3    0    0  0.26209184097E+02  0.40645202726E+02 -0.21670390112E+03  0.22203498508E+03  0.00000000000E+00 0.  1.
         11    1    3    3    0    0  0.80765947559E+02 -0.86068639555E+01 -0.12790373958E+03  0.15151429963E+03  0.00000000000E+00 0. -1.
        -13    1    4    4    0    0 -0.26872463853E+02 -0.61966817402E+02 -0.19538558100E+03  0.20673060015E+03  0.00000000000E+00 0.  1.
         13    1    4    4    0    0 -0.14773869720E+02  0.31591064133E+02 -0.59886241019E+02  0.69300969856E+02  0.00000000000E+00 0. -1.
         21    1    1    2  502  503 -0.47323166046E+02  0.17350829164E+02 -0.27173034346E+03  0.27636554213E+03  0.00000000000E+00 0.  1.
         21    1    1    2  503  501 -0.18005632037E+02 -0.19013414665E+02 -0.10844834605E+03  0.11156503253E+03  0.00000000000E+00 0.  1.
<scales pt_clust_5="13000.00000" pt_clust_6="13000.00000" pt_clust_7="13000.00000" pt_clust_8="13000.00000" pt_clust_9="54.06224" pt_clust_10="26.18612"></scales>
<clustering>
<clus scale="   26.186">  2 10  1 -1</clus>
<clus scale="   54.062">  2  9  1 -1</clus>
<clus scale="   91.184">  5  6 -1 -1</clus>
<clus scale="   91.502">  7  8 -1 -1</clus>
<clus scale="  118.746">  2  5  1 -1</clus>
<clus scale="  118.990">  1  5  2 -1</clus>
</clustering>
</event>
<event>
10    2  0.2445576E-006  0.1214876E+03  0.7546771E-02  0.1241693E+00
         -1   -1    0    0    0  501 -0.00000000000E+00  0.00000000000E+00  0.21421634761E+03  0.21421634761E+03  0.00000000000E+00 0.  1.
          1   -1    0    0  502    0  0.00000000000E+00 -0.00000000000E+00 -0.64237285040E+03  0.64237285040E+03  0.00000000000E+00 0. -1.
         23    2    1    2    0    0  0.75497025412E+02 -0.53060265116E+01  0.16855200111E+03  0.20575203301E+03  0.90532686067E+02 0.  0.
         23    2    1    2    0    0 -0.11766794966E+03 -0.48117185295E+02 -0.44815045547E+03  0.47518367380E+03  0.93806626687E+02 0.  0.
        -13    1    4    4    0    0 -0.73372744623E+01  0.22447361211E+02 -0.39097994968E+02  0.45676830367E+02  0.00000000000E+00 0.  1.
         13    1    4    4    0    0 -0.11033067520E+03 -0.70564546506E+02 -0.40905246050E+03  0.42950684343E+03  0.00000000000E+00 0. -1.
        -13    1    3    3    0    0  0.24052255367E+02 -0.42603998076E+02  0.10521804007E+03  0.11603640634E+03  0.00000000000E+00 0.  1.
         13    1    3    3    0    0  0.51444770045E+02  0.37297971564E+02  0.63333961039E+02  0.89715626669E+02  0.00000000000E+00 0. -1.
         21    1    1    2  502  503  0.20716745050E+02  0.67920568859E+01 -0.10815373543E+03  0.11032926199E+03  0.00000000000E+00 0.  1.
         21    1    1    2  503  501  0.21454179200E+02  0.46631154920E+02 -0.40404312996E+02  0.65324229219E+02  0.00000000000E+00 0.  1.
<scales pt_clust_5="13000.00000" pt_clust_6="13000.00000" pt_clust_7="13000.00000" pt_clust_8="13000.00000" pt_clust_9="21.80173" pt_clust_10="52.82400"></scales>
<clustering>
<clus scale="   21.802">  2  9  1 -1</clus>
<clus scale="   52.824">  2 10  1 -1</clus>
<clus scale="   90.533">  7  8 -1 -1</clus>
<clus scale="   93.807">  5  6 -1 -1</clus>
<clus scale="  118.978">  1  7  2 -1</clus>
<clus scale="   21.802">  2  5  1 -1</clus>
</clustering>
</event>
<event>
10    2  0.2445576E-006  0.1330527E+03  0.7546771E-02  0.1224018E+00
         -1   -1    0    0    0  501 -0.00000000000E+00  0.00000000000E+00  0.64214832344E+02  0.64214832344E+02  0.00000000000E+00 0.  1.
          1   -1    0    0  502    0  0.00000000000E+00 -0.00000000000E+00 -0.72276057721E+03  0.72276057721E+03  0.00000000000E+00 0. -1.
         23    2    1    2    0    0 -0.16744102152E+02  0.12467172287E+03 -0.18233192162E+03  0.24081897389E+03  0.94474573852E+02 0.  0.
         23    2    1    2    0    0  0.18752598049E+02 -0.61080764001E+02 -0.40810802989E+03  0.42287111610E+03  0.90472631776E+02 0.  0.
        -13    1    4    4    0    0 -0.24770001752E+02 -0.61646024688E+02 -0.22117687847E+03  0.23093937931E+03  0.00000000000E+00 0.  1.
         13    1    4    4    0    0  0.43522599801E+02  0.56526068651E+00 -0.18693115143E+03  0.19193173679E+03  0.00000000000E+00 0. -1.
        -13    1    3    3    0    0  0.11877736414E+02  0.42268681684E+02 -0.62960145112E+01  0.44354953188E+02  0.00000000000E+00 0.  1.
         13    1    3    3    0    0 -0.28621838566E+02  0.82403041189E+02 -0.17603590711E+03  0.19646402070E+03  0.00000000000E+00 0. -1.
         21    1    1    2  502  503 -0.20220534147E+01 -0.33077726022E+02 -0.82970547338E+02  0.89343921921E+02  0.00000000000E+00 0.  1.
         21    1    1    2  503  501  0.13557517451E-01 -0.30513232849E+02  0.14864753987E+02  0.33941397641E+02  0.00000000000E+00 0. -1.
<scales pt_clust_5="13000.00000" pt_clust_6="13000.00000" pt_clust_7="13000.00000" pt_clust_8="13000.00000" pt_clust_9="35.57757" pt_clust_10="30.51324"></scales>
<clustering>
<clus scale="   30.513">  1 10  2 -1</clus>
<clus scale="   35.578">  2  9  1 -1</clus>
<clus scale="   90.473">  5  6 -1 -1</clus>
<clus scale="   94.475">  7  8 -1 -1</clus>
<clus scale="  130.242">  2  5  1 -1</clus>
<clus scale="   35.578">  2  5  1 -1</clus>
</clustering>
</event>
<event>
10    2  0.2445576E-006  0.9831787E+02  0.7546771E-02  0.1286767E+00
          1   -1    0    0  502    0  0.00000000000E+00  0.00000000000E+00  0.35850292125E+03  0.35850292125E+03  0.00000000000E+00 0. -1.
         -1   -1    0    0    0  501 -0.00000000000E+00 -0.00000000000E+00 -0.82092209245E+02  0.82092209245E+02  0.00000000000E+00 0.  1.
         23    2    1    2    0    0  0.17315675289E+01  0.18753168071E+02  0.57213860177E+02  0.11035468724E+03  0.92466488854E+02 0.  0.
         23    2    1    2    0    0  0.25048375867E+02 -0.45241982270E+02  0.23551154792E+03  0.25630047508E+03  0.86890656752E+02 0.  0.
        -13    1    3    3    0    0  0.11969689699E+01 -0.37604072884E+02  0.27810817070E+02  0.46786115230E+02  0.00000000000E+00 0.  1.
         13    1    3    3    0    0  0.53459855896E+00  0.56357240955E+02  0.29403043107E+02  0.63568572012E+02  0.00000000000E+00 0. -1.
        -13    1    4    4    0    0  0.40242752564E+02 -0.58706819130E+02  0.12416783582E+03  0.14312100194E+03  0.00000000000E+00 0.  1.
         13    1    4    4    0    0 -0.15194376698E+02  0.13464836859E+02  0.11134371210E+03  0.11317947314E+03  0.00000000000E+00 0. -1.
         21    1    1    2  502  503  0.14316312927E+01  0.19997441703E+02  0.19446322086E+02  0.27930389999E+02  0.00000000000E+00 0. -1.
         21    1    1    2  503  501 -0.28211574688E+02  0.64913724959E+01 -0.35761018172E+02  0.46009578177E+02  0.00000000000E+00 0.  1.
<scales pt_clust_5="13000.00000" pt_clust_6="13000.00000" pt_clust_7="13000.00000" pt_clust_8="13000.00000" pt_clust_9="20.04862" pt_clust_10="28.99762"></scales>
<clustering>
<clus scale="   20.049">  1  9  2 -1</clus>
<clus scale="   28.998">  2 10  1 -1</clus>
<clus scale="   86.891">  7  8 -1 -1</clus>
<clus scale="   92.466">  5  6 -1 -1</clus>
<clus scale="   93.093">  1  7  2 -1</clus>
<clus scale="   20.049">  1  5  2 -1</clus>
</clustering>
</event>
<event>
10    2  0.2445576E-006  0.1422431E+03  0.7546771E-02  0.1210717E+00
         -1   -1    0    0    0  501 -0.00000000000E+00  0.00000000000E+00  0.42315037639E+03  0.42315037639E+03  0.00000000000E+00 0.  1.
          1   -1    0    0  502    0  0.00000000000E+00 -0.00000000000E+00 -0.16835958733E+03  0.16835958733E+03  0.00000000000E+00 0. -1.
         23    2    1    2    0    0  0.73426506956E+02  0.76734594696E+01  0.13324799168E+03  0.17676114160E+03  0.89661251313E+02 0.  0.
         23    2    1    2    0    0 -0.11400544269E+03  0.38528489653E+02 -0.89350245419E+02  0.17557223133E+03  0.91435532362E+02 0.  0.
        -11    1    4    4    0    0 -0.72306818416E+02  0.90642445709E+01 -0.24252847339E+00  0.72873145528E+02  0.00000000000E+00 0.  1.
         11    1    4    4    0    0 -0.41698624277E+02  0.29464245082E+02 -0.89107716945E+02  0.10269908580E+03  0.00000000000E+00 0. -1.
        -11    1    3    3    0    0  0.32614641633E+02  0.30364326535E+02  0.11000680696E+02  0.45899043024E+02  0.00000000000E+00 0. -1.
         11    1    3    3    0    0  0.40811865324E+02 -0.22690867065E+02  0.12224731099E+03  0.13086209857E+03  0.00000000000E+00 0.  1.
         21    1    1    2  502  503  0.11031299980E+02 -0.60141358121E+02  0.63292265106E+02  0.88003314472E+02  0.00000000000E+00 0.  1.
         21    1    1    2  503  501  0.29547635756E+02  0.13939408999E+02  0.14760077769E+03  0.15117327633E+03  0.00000000000E+00 0.  1.
<scales pt_clust_5="13000.00000" pt_clust_6="13000.00000" pt_clust_7="13000.00000" pt_clust_8="13000.00000" pt_clust_9="59.47270" pt_clust_10="32.67063"></scales>
<clustering>
<clus scale="   32.671">  1 10  2 -1</clus>
<clus scale="   59.473">  1  9  2 -1</clus>
<clus scale="   89.661">  7  8 -1 -1</clus>
<clus scale="   91.436">  5  6 -1 -1</clus>
<clus scale="  141.109">  1  7  2 -1</clus>
<clus scale="  142.243">  2  5  1 -1</clus>
</clustering>
</event>
<event>
10    2  0.2445576E-006  0.9623190E+02  0.7546771E-02  0.1288833E+00
         -1   -1    0    0    0  501 -0.00000000000E+00  0.00000000000E+00  0.50793734958E+03  0.50793734958E+03  0.00000000000E+00 0.  1.
          1   -1    0    0  502    0  0.00000000000E+00 -0.00000000000E+00 -0.63726730535E+02  0.63726730535E+02  0.00000000000E+00 0. -1.
         23    2    1    2    0    0 -0.23525998979E+02  0.36109516022E+02  0.28189807092E+03  0.29970716365E+03  0.92198111578E+02 0.  0.
         23    2    1    2    0    0  0.48148637545E+02  0.14423269391E+02  0.60414908231E+02  0.12056659885E+03  0.91433153861E+02 0.  0.
        -11    1    3    3    0    0 -0.41934764322E+02 -0.43384518424E+01  0.59556886758E+02  0.72968276556E+02  0.00000000000E+00 0. -1.
         11    1    3    3    0    0  0.18408765343E+02  0.40447967864E+02  0.22234118416E+03  0.22673888709E+03  0.00000000000E+00 0.  1.
        -13    1    4    4    0    0  0.44301441259E+02  0.48013607792E+02  0.20965260055E+02  0.68610978421E+02  0.00000000000E+00 0.  1.
         13    1    4    4    0    0  0.38471962866E+01 -0.33590338401E+02  0.39449648176E+02  0.51955620431E+02  0.00000000000E+00 0. -1.
         21    1    1    2  502  503 -0.45409600632E+02 -0.40834447884E+02  0.16918350726E+02  0.63369665888E+02  0.00000000000E+00 0. -1.
         21    1    1    2  503  501  0.20786962065E+02 -0.96983375284E+01  0.84979289174E+02  0.88020651732E+02  0.00000000000E+00 0.  1.
<scales pt_clust_5="13000.00000" pt_clust_6="13000.00000" pt_clust_7="13000.00000" pt_clust_8="13000.00000" pt_clust_9="60.24846" pt_clust_10="22.93808"></scales>
<clustering>
<clus scale="   22.938">  1 10  2 -1</clus>
<clus scale="   60.248">  2  9  1 -1</clus>
<clus scale="   91.433">  7  8 -1 -1</clus>
<clus scale="   92.198">  5  6 -1 -1</clus>
<clus scale="   95.499">  2  7  1 -1</clus>
<clus scale="   60.248">  2  5  1 -1</clus>
</clustering>
</event>
<event>
10    2  0.2445576E-006  0.9654834E+02  0.7546771E-02  0.1288413E+00
         -1   -1    0    0    0  501 -0.00000000000E+00  0.00000000000E+00  0.81604166433E+02  0.81604166433E+02  0.00000000000E+00 0.  1.
          1   -1    0    0  502    0  0.00000000000E+00 -0.00000000000E+00 -0.37994888771E+03  0.37994888771E+03  0.00000000000E+00 0. -1.
         23    2    1    2    0    0  0.44971856481E+02 -0.70649856057E+01 -0.66630400992E+02  0.12356363208E+03  0.93573387991E+02 0.  0.
         23    2    1    2    0    0  0.31966250797E+02  0.41101689805E+02 -0.86695531628E+02  0.13691577469E+03  0.92296392446E+02 0.  0.
        -13    1    3    3    0    0  0.29804879251E+02  0.63474720371E+01  0.18773903699E+02  0.35792187535E+02  0.00000000000E+00 0.  1.
         13    1    3    3    0    0  0.15166977230E+02 -0.13412457643E+02 -0.85404304691E+02  0.87771444548E+02  0.00000000000E+00 0. -1.
        -13    1    4    4    0    0 -0.16834823534E+02 -0.17670140825E+02 -0.41532326930E+02  0.48172391890E+02  0.00000000000E+00 0.  1.
         13    1    4    4    0    0  0.48801074331E+02  0.58771830630E+02 -0.45163204699E+02  0.88743382796E+02  0.00000000000E+00 0. -1.
         21    1    1    2  502  503 -0.53631390164E+02 -0.37487345276E+02 -0.16019815874E+03  0.17304645946E+03  0.00000000000E+00 0.  1.
         21    1    1    2  503  501 -0.23306717114E+02  0.34506410768E+01  0.15179370084E+02  0.28027187918E+02  0.00000000000E+00 0.  1.
<scales pt_clust_5="13000.00000" pt_clust_6="13000.00000" pt_clust_7="13000.00000" pt_clust_8="13000.00000" pt_clust_9="67.29007" pt_clust_10="23.56077"></scales>
<clustering>
<clus scale="   23.561">  1 10  2 -1</clus>
<clus scale="   67.290">  2  9  1 -1</clus>
<clus scale="   92.296">  7  8 -1 -1</clus>
<clus scale="   93.573">  5  6 -1 -1</clus>
<clus scale="   95.311">  2  7  1 -1</clus>
<clus scale="   67.290">  2  5  1 -1</clus>
</clustering>
</event>
<event>
10    2  0.2445576E-006  0.1079385E+03  0.7546771E-02  0.1264721E+00
         -1   -1    0    0    0  501 -0.00000000000E+00  0.00000000000E+00  0.49048050141E+03  0.49048050141E+03  0.00000000000E+00 0.  1.
          1   -1    0    0  502    0  0.00000000000E+00 -0.00000000000E+00 -0.21092392475E+03  0.21092392475E+03  0.00000000000E+00 0. -1.
         23    2    1    2    0    0 -0.33608768643E+02  0.56493105962E+02  0.34140494568E+03  0.35944194324E+03  0.91214874189E+02 0.  0.
         23    2    1    2    0    0 -0.73530050334E+01 -0.22634783271E+02  0.71042742378E+02  0.11858520735E+03  0.91918333649E+02 0.  0.
        -11    1    4    4    0    0  0.37501262814E+02 -0.82320653489E+01  0.58257177814E+02  0.69771128552E+02  0.00000000000E+00 0.  1.
         11    1    4    4    0    0 -0.44854267847E+02 -0.14402717922E+02  0.12785564564E+02  0.48814078798E+02  0.00000000000E+00 0. -1.
        -11    1    3    3    0    0  0.29227282043E+02  0.53972125106E+01  0.66164252972E+02  0.72533249547E+02  0.00000000000E+00 0. -1.
         11    1    3    3    0    0 -0.62836050685E+02  0.51095893452E+02  0.27524069271E+03  0.28690869370E+03  0.00000000000E+00 0.  1.
         21    1    1    2  502  503  0.32165840724E+02 -0.56003988149E+02 -0.16854418488E+03  0.18049440505E+03  0.00000000000E+00 0. -1.
         21    1    1    2  503  501  0.87959329519E+01  0.22145665457E+02  0.35653073477E+02  0.42882870512E+02  0.00000000000E+00 0.  1.
<scales pt_clust_5="13000.00000" pt_clust_6="13000.00000" pt_clust_7="13000.00000" pt_clust_8="13000.00000" pt_clust_9="64.38815" pt_clust_10="23.82853"></scales>
<clustering>
<clus scale="   23.829">  1 10  2 -1</clus>
<clus scale="   64.388">  2  9  1 -1</clus>
<clus scale="   91.215">  7  8 -1 -1</clus>
<clus scale="   91.918">  5  6 -1 -1</clus>
<clus scale="  107.340">  1  7  2 -1</clus>
<clus scale="   64.388">  2  5  1 -1</clus>
</clustering>
</event>
<event>
10    2  0.2445576E-006  0.1921010E+03  0.7546771E-02  0.1157586E+00
          2   -1    0    0  502    0  0.00000000000E+00  0.00000000000E+00  0.46668237001E+03  0.46668237001E+03  0.00000000000E+00 0. -1.
         -2   -1    0    0    0  501 -0.00000000000E+00 -0.00000000000E+00 -0.35533401446E+03  0.35533401446E+03  0.00000000000E+00 0.  1.
         23    2    1    2    0    0  0.80049922279E+02 -0.15929301524E+03 -0.74917510097E+02  0.21356454984E+03  0.90636244779E+02 0.  0.
         23    2    1    2    0    0 -0.10535004853E+03  0.90982639210E+02  0.33462080420E+03  0.37584622198E+03  0.99563178997E+02 0.  0.
        -11    1    3    3    0    0 -0.18148931981E+01 -0.91269945069E+02 -0.50640618669E+02  0.10439333776E+03  0.00000000000E+00 0.  1.
         11    1    3    3    0    0  0.81864815477E+02 -0.68023070171E+02 -0.24276891428E+02  0.10917121208E+03  0.00000000000E+00 0. -1.
        -11    1    4    4    0    0 -0.15648811138E+02  0.63207853332E+02  0.20963842207E+03  0.21951853230E+03  0.00000000000E+00 0. -1.
         11    1    4    4    0    0 -0.89701237390E+02  0.27774785878E+02  0.12498238213E+03  0.15632768968E+03  0.00000000000E+00 0.  1.
         21    1    1    2  502  503  0.12085239382E+02  0.48494719389E+02  0.26202891654E+02  0.56430331831E+02  0.00000000000E+00 0. -1.
         21    1    1    2  503  501  0.13214886867E+02  0.19815656642E+02 -0.17455783021E+03  0.17617528082E+03  0.00000000000E+00 0.  1.
<scales pt_clust_5="13000.00000" pt_clust_6="13000.00000" pt_clust_7="13000.00000" pt_clust_8="13000.00000" pt_clust_9="51.86539" pt_clust_10="23.81792"></scales>
<clustering>
<clus scale="   23.818">  2 10  1 -1</clus>
<clus scale="   51.865">  1  9  2 -1</clus>
<clus scale="   90.636">  5  6 -1 -1</clus>
<clus scale="   99.563">  7  8 -1 -1</clus>
<clus scale="  187.630">  2  5  1 -1</clus>
<clus scale="   51.865">  1  5  2 -1</clus>
</clustering>
</event>
<event>
10    2  0.2445576E-006  0.1102402E+03  0.7546771E-02  0.1264851E+00
          2   -1    0    0  502    0  0.00000000000E+00  0.00000000000E+00  0.53130000457E+03  0.53130000457E+03  0.00000000000E+00 0. -1.
         -2   -1    0    0    0  501 -0.00000000000E+00 -0.00000000000E+00 -0.64063058634E+02  0.64063058634E+02  0.00000000000E+00 0.  1.
         23    2    1    2    0    0  0.53895787227E+02 -0.15126011568E+01  0.39675541491E+02  0.11282073925E+03  0.90814793782E+02 0.  0.
         23    2    1    2    0    0 -0.11862799403E+02 -0.34485168207E+00  0.33304115705E+03  0.34836349321E+03  0.10148825633E+03 0.  0.
        -13    1    4    4    0    0  0.39397733941E+02  0.10428851008E+02  0.78068982761E+02  0.88066500114E+02  0.00000000000E+00 0.  1.
         13    1    4    4    0    0 -0.51260533344E+02 -0.10773702690E+02  0.25497217429E+03  0.26029699309E+03  0.00000000000E+00 0. -1.
        -13    1    3    3    0    0  0.59568126848E+02  0.21363012848E+02 -0.37689056231E+01  0.63395147320E+02  0.00000000000E+00 0.  1.
         13    1    3    3    0    0 -0.56723396207E+01 -0.22875614005E+02  0.43444447114E+02  0.49425591932E+02  0.00000000000E+00 0. -1.
         21    1    1    2  502  503 -0.31811437735E+02  0.29614995556E+02  0.95134737696E+02  0.10459270457E+03  0.00000000000E+00 0. -1.
         21    1    1    2  503  501 -0.10221550089E+02 -0.27757542717E+02 -0.61449030424E+00  0.29586126178E+02  0.00000000000E+00 0. -1.
<scales pt_clust_5="13000.00000" pt_clust_6="13000.00000" pt_clust_7="13000.00000" pt_clust_8="13000.00000" pt_clust_9="42.44052" pt_clust_10="29.57974"></scales>
<clustering>
<clus scale="   29.580">  2 10  1 -1</clus>
<clus scale="   42.441">  1  9  2 -1</clus>
<clus scale="   90.815">  7  8 -1 -1</clus>
<clus scale="  100.501">  2  7  1 -1</clus>
<clus scale="  101.488">  5  6 -1 -1</clus>
<clus scale="   42.441">  1  5  2 -1</clus>
</clustering>
</event>
<event>
10    2  0.2445576E-006  0.9715898E+02  0.7546771E-02  0.1288389E+00
          1   -1    0    0  502    0  0.00000000000E+00  0.00000000000E+00  0.92962167174E+02  0.92962167174E+02  0.00000000000E+00 0. -1.
         -1   -1    0    0    0  501 -0.00000000000E+00 -0.00000000000E+00 -0.26783723137E+03  0.26783723137E+03  0.00000000000E+00 0.  1.
         23    2    1    2    0    0 -0.15701128488E+02 -0.32594392261E+02 -0.16733401861E+03  0.19399635056E+03  0.91241385362E+02 0.  0.
         23    2    1    2    0    0 -0.22195859586E+02 -0.47258098536E+00 -0.28083371166E+01  0.97523681891E+02  0.94921558440E+02 0.  0.
        -11    1    4    4    0    0 -0.25302417999E+01 -0.46735772243E+02  0.31078019662E+01  0.46907280499E+02  0.00000000000E+00 0.  1.
         11    1    4    4    0    0 -0.19665617786E+02  0.46263191258E+02 -0.59161390828E+01  0.50616401392E+02  0.00000000000E+00 0. -1.
        -11    1    3    3    0    0 -0.21443866788E+02  0.21840561487E+02 -0.19344903822E+02  0.36208767622E+02  0.00000000000E+00 0. -1.
         11    1    3    3    0    0  0.57427382998E+01 -0.54434953747E+02 -0.14798911479E+03  0.15778758293E+03  0.00000000000E+00 0.  1.
         21    1    1    2  502  503  0.10854947170E+02  0.24125997306E+02  0.18699816268E+02  0.32397171983E+02  0.00000000000E+00 0. -1.
         21    1    1    2  503  501  0.27042040904E+02  0.89409759401E+01 -0.23432524738E+02  0.36882194113E+02  0.00000000000E+00 0. -1.
<scales pt_clust_5="13000.00000" pt_clust_6="13000.00000" pt_clust_7="13000.00000" pt_clust_8="13000.00000" pt_clust_9="26.45550" pt_clust_10="30.32784"></scales>
<clustering>
<clus scale="   26.456">  1  9  2 -1</clus>
<clus scale="   30.328">  2 10  1 -1</clus>
<clus scale="   91.241">  7  8 -1 -1</clus>
<clus scale="   93.567">  2  7  1 -1</clus>
<clus scale="   94.922">  5  6 -1 -1</clus>
<clus scale="   26.456">  1  5  2 -1</clus>
</clustering>
</event>
<event>
10    2  0.2445576E-006  0.9731820E+02  0.7546771E-02  0.1286780E+00
         -3   -1    0    0    0  501 -0.00000000000E+00  0.00000000000E+00  0.10126535651E+03  0.10126535651E+03  0.00000000000E+00 0.  1.
          3   -1    0    0  502    0  0.00000000000E+00 -0.00000000000E+00 -0.16555451267E+03  0.16555451267E+03  0.00000000000E+00 0. -1.
         23    2    1    2    0    0  0.48822601128E+01  0.27168555746E+02 -0.36722446376E+02  0.10212298970E+03  0.91206359827E+02 0.  0.
         23    2    1    2    0    0  0.17309827570E+02 -0.39725273981E+02 -0.33072926027E+02  0.10502066416E+03  0.89765215649E+02 0.  0.
        -11    1    3    3    0    0  0.28391630397E+02 -0.25107194146E+02 -0.16573586080E+02  0.41365923537E+02  0.00000000000E+00 0.  1.
         11    1    3    3    0    0 -0.23509370284E+02  0.52275749892E+02 -0.20148860295E+02  0.60757066166E+02  0.00000000000E+00 0. -1.
        -11    1    4    4    0    0 -0.79063347458E+01 -0.18383772104E+02  0.28688923209E+02  0.34978958257E+02  0.00000000000E+00 0.  1.
         11    1    4    4    0    0  0.25216162316E+02 -0.21341501878E+02 -0.61761849236E+02  0.70041705900E+02  0.00000000000E+00 0. -1.
         21    1    1    2  502  503 -0.36580732720E+01  0.23879965320E+02 -0.16106828418E+02  0.29035567248E+02  0.00000000000E+00 0. -1.
         21    1    1    2  503  501 -0.18534014411E+02 -0.11323247085E+02  0.21613044665E+02  0.30640648074E+02  0.00000000000E+00 0.  1.
<scales pt_clust_5="13000.00000" pt_clust_6="13000.00000" pt_clust_7="13000.00000" pt_clust_8="13000.00000" pt_clust_9="23.50033" pt_clust_10="21.71925"></scales>
<clustering>
<clus scale="   21.719">  1 10  2 -1</clus>
<clus scale="   23.500">  2  9  1 -1</clus>
<clus scale="   89.765">  7  8 -1 -1</clus>
<clus scale="   91.206">  5  6 -1 -1</clus>
<clus scale="   95.969">  2  7  1 -1</clus>
<clus scale="   23.500">  2  5  1 -1</clus>
</clustering>
</event>
<event>
10    2  0.2445576E-006  0.1782626E+03  0.7546771E-02  0.1169517E+00
         -1   -1    0    0    0  501 -0.00000000000E+00  0.00000000000E+00  0.13067747354E+03  0.13067747354E+03  0.00000000000E+00 0.  1.
          1   -1    0    0  502    0  0.00000000000E+00 -0.00000000000E+00 -0.42419785667E+03  0.42419785667E+03  0.00000000000E+00 0. -1.
         23    2    1    2    0    0 -0.13331465950E+03  0.39366820147E+02 -0.30475124427E+02  0.17044272621E+03  0.93805355623E+02 0.  0.
         23    2    1    2    0    0  0.13224829781E+03 -0.80537007742E+02 -0.22320584189E+03  0.28745074583E+03  0.93974792026E+02 0.  0.
        -11    1    4    4    0    0  0.45879630404E+02 -0.68406114179E+01 -0.12402022395E+02  0.48016086992E+02  0.00000000000E+00 0.  1.
         11    1    4    4    0    0  0.86368667407E+02 -0.73696396324E+02 -0.21080381949E+03  0.23943465884E+03  0.00000000000E+00 0. -1.
        -11    1    3    3    0    0 -0.11945072788E+03  0.72066793418E+00 -0.43871986338E+02  0.12725465390E+03  0.00000000000E+00 0.  1.
         11    1    3    3    0    0 -0.13863931614E+02  0.38646152213E+02  0.13396861912E+02  0.43188072309E+02  0.00000000000E+00 0. -1.
         21    1    1    2  502  503  0.18638353000E+02  0.19777323043E+02 -0.57877042759E+02  0.63939680855E+02  0.00000000000E+00 0. -1.
         21    1    1    2  503  501 -0.17571991311E+02  0.21392864552E+02  0.18037625939E+02  0.33042177318E+02  0.00000000000E+00 0.  1.
<scales pt_clust_5="13000.00000" pt_clust_6="13000.00000" pt_clust_7="13000.00000" pt_clust_8="13000.00000" pt_clust_9="27.17592" pt_clust_10="27.76134"></scales>
<clustering>
<clus scale="   27.176">  2  9  1 -1</clus>
<clus scale="   27.761">  1 10  2 -1</clus>
<clus scale="   93.805">  7  8 -1 -1</clus>
<clus scale="   93.975">  5  6 -1 -1</clus>
<clus scale="  178.173">  1  7  2 -1</clus>
<clus scale="   27.176">  2  5  1 -1</clus>
</clustering>
</event>
<event>
10    2  0.2445576E-006  0.9521241E+02  0.7546771E-02  0.1290763E+00
          1   -1    0    0  502    0  0.00000000000E+00  0.00000000000E+00  0.23004611342E+03  0.23004611342E+03  0.00000000000E+00 0. -1.
         -1   -1    0    0    0  501 -0.00000000000E+00 -0.00000000000E+00 -0.11904476201E+03  0.11904476201E+03  0.00000000000E+00 0.  1.
         23    2    1    2    0    0 -0.36245307733E+02  0.45926397184E+02 -0.18414126164E+02  0.10919225658E+03  0.90337769305E+02 0.  0.
         23    2    1    2    0    0 -0.18259319057E+02 -0.25875154906E+02  0.12938999673E+03  0.16102050366E+03  0.90459410626E+02 0.  0.
        -11    1    4    4    0    0  0.24994034292E+02 -0.17713720078E+02  0.76612335929E+01  0.31578032386E+02  0.00000000000E+00 0.  1.
         11    1    4    4    0    0 -0.43253353349E+02 -0.81614348276E+01  0.12172876313E+03  0.12944247127E+03  0.00000000000E+00 0. -1.
        -13    1    3    3    0    0 -0.39157046662E+02 -0.12832364982E+02  0.12063285649E+02  0.42935611734E+02  0.00000000000E+00 0. -1.
         13    1    3    3    0    0  0.29117389293E+01  0.58758762167E+02 -0.30477411814E+02  0.66256644843E+02  0.00000000000E+00 0.  1.
         21    1    1    2  502  503  0.20190172390E+02  0.19019681913E+01  0.24149276566E+02  0.31534871219E+02  0.00000000000E+00 0. -1.
         21    1    1    2  503  501  0.34314454400E+02 -0.21953210470E+02 -0.24123795721E+02  0.47343243982E+02  0.00000000000E+00 0.  1.
<scales pt_clust_5="13000.00000" pt_clust_6="13000.00000" pt_clust_7="13000.00000" pt_clust_8="13000.00000" pt_clust_9="20.27956" pt_clust_10="41.65985"></scales>
<clustering>
<clus scale="   20.280">  1  9  2 -1</clus>
<clus scale="   41.660">  2 10  1 -1</clus>
<clus scale="   90.338">  7  8 -1 -1</clus>
<clus scale="   90.459">  5  6 -1 -1</clus>
<clus scale="   95.097">  2  7  1 -1</clus>
<clus scale="   20.280">  1  5  2 -1</clus>
</clustering>
</event>
<event>
10    2  0.2445576E-006  0.1162132E+03  0.7546771E-02  0.1249626E+00
         -3   -1    0    0    0  501 -0.00000000000E+00  0.00000000000E+00  0.16309127059E+03  0.16309127059E+03  0.00000000000E+00 0.  1.
          3   -1    0    0  502    0  0.00000000000E+00 -0.00000000000E+00 -0.23319407512E+03  0.23319407512E+03  0.00000000000E+00 0. -1.
         23    2    1    2    0    0 -0.69530405844E+02  0.87645958866E+02 -0.29424449781E+02  0.14735888333E+03  0.91282806752E+02 0.  0.
         23    2    1    2    0    0 -0.12365279159E+02 -0.50079700818E+02 -0.15198377918E+02  0.10556977363E+03  0.90846628176E+02 0.  0.
        -13    1    3    3    0    0  0.17800184897E+02  0.22881976610E+02 -0.25426686552E+02  0.38560962449E+02  0.00000000000E+00 0.  1.
         13    1    3    3    0    0 -0.87330590741E+02  0.64763982257E+02 -0.39977632284E+01  0.10879792088E+03  0.00000000000E+00 0. -1.
        -13    1    4    4    0    0 -0.43869007564E+02 -0.29744432163E+02 -0.34654565437E+02  0.63325823919E+02  0.00000000000E+00 0. -1.
         13    1    4    4    0    0  0.31503728405E+02 -0.20335268655E+02  0.19456187519E+02  0.42243949714E+02  0.00000000000E+00 0.  1.
         21    1    1    2  502  503  0.73562495747E+02  0.70915067912E+01 -0.52359323415E+02  0.90571678783E+02  0.00000000000E+00 0. -1.
         21    1    1    2  503  501  0.83331892554E+01 -0.44657764839E+02  0.26879346584E+02  0.52785009959E+02  0.00000000000E+00 0.  1.
<scales pt_clust_5="13000.00000" pt_clust_6="13000.00000" pt_clust_7="13000.00000" pt_clust_8="13000.00000" pt_clust_9="74.85440" pt_clust_10="45.42860"></scales>
<clustering>
<clus scale="   45.429">  1 10  2 -1</clus>
<clus scale="   74.854">  2  9  1 -1</clus>
<clus scale="   90.847">  7  8 -1 -1</clus>
<clus scale="   91.283">  5  6 -1 -1</clus>
<clus scale="  115.871">  2  7  1 -1</clus>
<clus scale="   74.854">  2  5  1 -1</clus>
</clustering>
</event>
<event>
10    2  0.2445576E-006  0.2023560E+03  0.7546771E-02  0.1148041E+00
         -2   -1    0    0    0  501 -0.00000000000E+00  0.00000000000E+00  0.31231484354E+03  0.31231484354E+03  0.00000000000E+00 0.  1.
          2   -1    0    0  502    0  0.00000000000E+00 -0.00000000000E+00 -0.93629225578E+03  0.93629225578E+03  0.00000000000E+00 0. -1.
         23    2    1    2    0    0 -0.15896681414E+03  0.39673676571E+02  0.95040855122E+02  0.20924854539E+03  0.88925480002E+02 0.  0.
         23    2    1    2    0    0  0.11050014333E+03 -0.74870561875E+02 -0.78231650082E+03  0.79892084695E+03  0.91866912010E+02 0.  0.
        -13    1    3    3    0    0 -0.12704626773E+03 -0.94937575160E+01  0.58661320874E+02  0.14025703598E+03  0.00000000000E+00 0. -1.
         13    1    3    3    0    0 -0.31920546412E+02  0.49167434087E+02  0.36379534248E+02  0.68991509405E+02  0.00000000000E+00 0.  1.
        -13    1    4    4    0    0 -0.10900068216E+02 -0.30181265332E+02 -0.18421860161E+03  0.18699254916E+03  0.00000000000E+00 0.  1.
         13    1    4    4    0    0  0.12140021154E+03 -0.44689296543E+02 -0.59809789921E+03  0.61192829779E+03  0.00000000000E+00 0. -1.
         21    1    1    2  502  503  0.68369267089E+02  0.15836140104E+02 -0.73045455688E+02  0.10129550144E+03  0.00000000000E+00 0.  1.
         21    1    1    2  503  501 -0.19902596271E+02  0.19360745200E+02  0.13634368915E+03  0.13914220555E+03  0.00000000000E+00 0.  1.
<scales pt_clust_5="13000.00000" pt_clust_6="13000.00000" pt_clust_7="13000.00000" pt_clust_8="13000.00000" pt_clust_9="68.98988" pt_clust_10="27.76602"></scales>
<clustering>
<clus scale="   27.766">  1 10  2 -1</clus>
<clus scale="   68.990">  2  9  1 -1</clus>
<clus scale="   88.925">  5  6 -1 -1</clus>
<clus scale="   91.867">  7  8 -1 -1</clus>
<clus scale="  201.038">  1  5  2 -1</clus>
<clus scale="   68.990">  2  5  1 -1</clus>
</clustering>
</event>
<event>
10    2  0.2445576E-006  0.1000013E+03  0.7546771E-02  0.1300777E+00
          1   -1    0    0  502    0  0.00000000000E+00  0.00000000000E+00  0.31594879997E+03  0.31594879997E+03  0.00000000000E+00 0. -1.
         -1   -1    0    0    0  501 -0.00000000000E+00 -0.00000000000E+00 -0.48787226916E+02  0.48787226916E+02  0.00000000000E+00 0.  1.
         23    2    1    2    0    0 -0.54097084928E+02 -0.18481612222E+02  0.78702137168E+02  0.11244213667E+03  0.56401623343E+02 0.  0.
         23    2    1    2    0    0  0.70629230201E+01  0.15646928786E+02  0.13723084389E+03  0.16632164574E+03  0.92389794160E+02 0.  0.
        -11    1    4    4    0    0 -0.24818824252E+02  0.41600484980E+02  0.98843904448E+02  0.11007584583E+03  0.00000000000E+00 0. -1.
         11    1    4    4    0    0  0.31881747272E+02 -0.25953556195E+02  0.38386939443E+02  0.56245799915E+02  0.00000000000E+00 0.  1.
        -13    1    3    3    0    0 -0.14477776957E+02 -0.20715207583E+02  0.11168568241E+01  0.25297691989E+02  0.00000000000E+00 0.  1.
         13    1    3    3    0    0 -0.39619307971E+02  0.22335953614E+01  0.77585280344E+02  0.87144444679E+02  0.00000000000E+00 0. -1.
         21    1    1    2  502  503  0.17831724463E+02  0.18866302593E+02  0.45190157586E+02  0.52115814428E+02  0.00000000000E+00 0. -1.
         21    1    1    2  503  501  0.29202437445E+02 -0.16031619157E+02  0.60384344082E+01  0.33856430048E+02  0.00000000000E+00 0.  1.
<scales pt_clust_5="13000.00000" pt_clust_6="13000.00000" pt_clust_7="13000.00000" pt_clust_8="13000.00000" pt_clust_9="25.95973" pt_clust_10="33.85449"></scales>
<clustering>
<clus scale="   25.960">  1  9  2 -1</clus>
<clus scale="   33.854">  2 10  1 -1</clus>
<clus scale="   56.402">  7  8 -1 -1</clus>
<clus scale="   68.158">  2  7  1 -1</clus>
<clus scale="   92.390">  5  6 -1 -1</clus>
<clus scale="   25.960">  1  5  2 -1</clus>
</clustering>
</event>
<event>
10    2  0.2445576E-006  0.1726647E+03  0.7546771E-02  0.1177482E+00
          1   -1    0    0  502    0  0.00000000000E+00  0.00000000000E+00  0.68539786095E+03  0.68539786095E+03  0.00000000000E+00 0. -1.
         -1   -1    0    0    0  501 -0.00000000000E+00 -0.00000000000E+00 -0.12182499824E+03  0.12182499824E+03  0.00000000000E+00 0.  1.
         23    2    1    2    0    0 -0.91047892457E+02 -0.10047958038E+03  0.14311104913E+03  0.21735621316E+03  0.91526423643E+02 0.  0.
         23    2    1    2    0    0  0.13072369615E+03 -0.55298151948E+02  0.39989617440E+02  0.17325721954E+03  0.90952318692E+02 0.  0.
        -11    1    3    3    0    0 -0.89565137788E+02 -0.32640034479E+02  0.91129431336E+02  0.13187819764E+03  0.00000000000E+00 0.  1.
         11    1    3    3    0    0 -0.14827546693E+01 -0.67839545901E+02  0.51981617790E+02  0.85478015522E+02  0.00000000000E+00 0. -1.
        -13    1    4    4    0    0  0.11059348284E+03 -0.78134606826E+02  0.20101252975E+02  0.13689410361E+03  0.00000000000E+00 0. -1.
         13    1    4    4    0    0  0.20130213308E+02  0.22836454878E+02  0.19888364466E+02  0.36363115933E+02  0.00000000000E+00 0.  1.
         21    1    1    2  502  503  0.38460050709E+01  0.59815905635E+02  0.18608656396E+03  0.19550177393E+03  0.00000000000E+00 0. -1.
         21    1    1    2  503  501 -0.43521808767E+02  0.95961826693E+02  0.19438563218E+03  0.22110765256E+03  0.00000000000E+00 0. -1.
<scales pt_clust_5="13000.00000" pt_clust_6="13000.00000" pt_clust_7="13000.00000" pt_clust_8="13000.00000" pt_clust_9="41.05791" pt_clust_10="156.53823"></scales>
<clustering>
<clus scale="   41.058">  9 10 -1 -1</clus>
<clus scale="   90.952">  7  8 -1 -1</clus>
<clus scale="   91.526">  5  6 -1 -1</clus>
<clus scale="  163.594">  2  5  1 -1</clus>
<clus scale="  156.538">  1  9  2 -1</clus>
<clus scale="  156.538">  1  5  2 -1</clus>
</clustering>
</event>
<event>
10    2  0.2445576E-006  0.1477881E+03  0.7546771E-02  0.1223628E+00
         -1   -1    0    0    0  501 -0.00000000000E+00  0.00000000000E+00  0.19128952898E+03  0.19128952898E+03  0.00000000000E+00 0.  1.
          1   -1    0    0  502    0  0.00000000000E+00 -0.00000000000E+00 -0.27597921685E+03  0.27597921685E+03  0.00000000000E+00 0. -1.
         23    2    1    2    0    0  0.19201054018E+02  0.10400881384E+03  0.53086547001E+02  0.14569942707E+03  0.84991927517E+02 0.  0.
         23    2    1    2    0    0 -0.30242400440E+02  0.16115812353E+02 -0.69647900065E+02  0.11879476456E+03  0.89927992925E+02 0.  0.
        -13    1    3    3    0    0  0.37439316145E+02  0.89172233621E+02  0.67666737350E+02  0.11803464316E+03  0.00000000000E+00 0.  1.
         13    1    3    3    0    0 -0.18238262127E+02  0.14836580221E+02 -0.14580190348E+02  0.27664783908E+02  0.00000000000E+00 0. -1.
        -13    1    4    4    0    0 -0.17210052232E+02 -0.12010875581E+02 -0.82580834354E+02  0.85205875576E+02  0.00000000000E+00 0. -1.
         13    1    4    4    0    0 -0.13032348208E+02  0.28126687934E+02  0.12932934289E+02  0.33588888985E+02  0.00000000000E+00 0.  1.
         21    1    1    2  502  503 -0.68074908626E+01 -0.13485374210E+03 -0.96645695554E+02  0.16604898121E+03  0.00000000000E+00 0. -1.
         21    1    1    2  503  501  0.17848837284E+02  0.14729115905E+02  0.28517360743E+02  0.36725572990E+02  0.00000000000E+00 0.  1.
<scales pt_clust_5="13000.00000" pt_clust_6="13000.00000" pt_clust_7="13000.00000" pt_clust_8="13000.00000" pt_clust_9="120.90361" pt_clust_10="23.14147"></scales>
<clustering>
<clus scale="   23.141">  1 10  2 -1</clus>
<clus scale="   84.992">  5  6 -1 -1</clus>
<clus scale="   89.928">  7  8 -1 -1</clus>
<clus scale="   95.815">  2  7  1 -1</clus>
<clus scale="  120.904">  2  9  1 -1</clus>
<clus scale="   95.815">  2  5  1 -1</clus>
</clustering>
</event>
<event>
10    2  0.2445576E-006  0.1359347E+03  0.7546771E-02  0.1219348E+00
         -1   -1    0    0    0  501 -0.00000000000E+00  0.00000000000E+00  0.73346971067E+03  0.73346971067E+03  0.00000000000E+00 0.  1.
          1   -1    0    0  502    0  0.00000000000E+00 -0.00000000000E+00 -0.22497939772E+03  0.22497939772E+03  0.00000000000E+00 0. -1.
         23    2    1    2    0    0 -0.10855119211E+03 -0.61621037299E+02  0.59874728434E+03  0.61869173337E+03  0.93277204516E+02 0.  0.
         23    2    1    2    0    0  0.87392677144E+02  0.10812274982E+02 -0.94958499190E+02  0.15853141278E+03  0.91436901520E+02 0.  0.
        -11    1    4    4    0    0 -0.16993023806E+02 -0.10795668305E+02 -0.11823776430E+02  0.23347612325E+02  0.00000000000E+00 0.  1.
         11    1    4    4    0    0  0.10438570095E+03  0.21607943287E+02 -0.83134722760E+02  0.13518380045E+03  0.00000000000E+00 0. -1.
        -11    1    3    3    0    0 -0.81223858009E+02 -0.79175524461E+02  0.53778373374E+03  0.54961570489E+03  0.00000000000E+00 0.  1.
         11    1    3    3    0    0 -0.27327334097E+02  0.17554487161E+02  0.60963550605E+02  0.69076028481E+02  0.00000000000E+00 0. -1.
         21    1    1    2  502  503 -0.21775838256E+01  0.38872006296E+02 -0.81933155258E+02  0.90712825308E+02  0.00000000000E+00 0. -1.
         21    1    1    2  503  501  0.23336098787E+02  0.11936756022E+02  0.86634683055E+02  0.90513136941E+02  0.00000000000E+00 0.  1.
<scales pt_clust_5="13000.00000" pt_clust_6="13000.00000" pt_clust_7="13000.00000" pt_clust_8="13000.00000" pt_clust_9="39.00554" pt_clust_10="26.21182"></scales>
<clustering>
<clus scale="   26.212">  1 10  2 -1</clus>
<clus scale="   39.006">  2  9  1 -1</clus>
<clus scale="   91.437">  5  6 -1 -1</clus>
<clus scale="   93.277">  7  8 -1 -1</clus>
<clus scale="  134.679">  2  5  1 -1</clus>
<clus scale="   39.006">  2  5  1 -1</clus>
</clustering>
</event>
<event>
10    2  0.2445576E-006  0.1169749E+03  0.7546771E-02  0.1248263E+00
         -3   -1    0    0    0  501 -0.00000000000E+00  0.00000000000E+00  0.12022105772E+03  0.12022105772E+03  0.00000000000E+00 0.  1.
          3   -1    0    0  502    0  0.00000000000E+00 -0.00000000000E+00 -0.27543127156E+03  0.27543127156E+03  0.00000000000E+00 0. -1.
         23    2    1    2    0    0  0.39577607398E+02  0.86011314376E+02 -0.12241568852E+02  0.13224487401E+03  0.91512389798E+02 0.  0.
         23    2    1    2    0    0  0.70437080607E+00 -0.48847677650E+02 -0.57577253754E+02  0.11885091764E+03  0.91781309231E+02 0.  0.
        -13    1    3    3    0    0  0.20105470018E+02 -0.16566648494E+02 -0.97164768896E+01  0.27804562398E+02  0.00000000000E+00 0. -1.
         13    1    3    3    0    0  0.19472137379E+02  0.10257796287E+03 -0.25250919623E+01  0.10444031161E+03  0.00000000000E+00 0.  1.
        -13    1    4    4    0    0 -0.28188865664E+02 -0.18864929362E+02 -0.67944947649E+02  0.75940856054E+02  0.00000000000E+00 0. -1.
         13    1    4    4    0    0  0.28893236470E+02 -0.29982748288E+02  0.10367693895E+02  0.42910061586E+02  0.00000000000E+00 0.  1.
         21    1    1    2  502  503  0.34840360617E+02 -0.10599644971E+02 -0.33397893743E+02  0.49412776767E+02  0.00000000000E+00 0.  1.
         21    1    1    2  503  501 -0.75122338820E+02 -0.26563991755E+02 -0.51993497496E+02  0.95143760855E+02  0.00000000000E+00 0. -1.
<scales pt_clust_5="13000.00000" pt_clust_6="13000.00000" pt_clust_7="13000.00000" pt_clust_8="13000.00000" pt_clust_9="36.41707" pt_clust_10="70.79231"></scales>
<clustering>
<clus scale="   36.417">  2  9  1 -1</clus>
<clus scale="   70.792">  2 10  1 -1</clus>
<clus scale="   91.512">  5  6 -1 -1</clus>
<clus scale="   91.781">  7  8 -1 -1</clus>
<clus scale="  116.764">  1  5  2 -1</clus>
<clus scale="   36.417">  2  5  1 -1</clus>
</clustering>
</event>
<event>
10    2  0.2445576E-006  0.1886944E+03  0.7546771E-02  0.1161646E+00
          1   -1    0    0  502    0  0.00000000000E+00  0.00000000000E+00  0.69573726171E+03  0.69573726171E+03  0.00000000000E+00 0. -1.
         -1   -1    0    0    0  501 -0.00000000000E+00 -0.00000000000E+00 -0.85070249050E+02  0.85070249050E+02  0.00000000000E+00 0.  1.
         23    2    1    2    0    0  0.36268767360E+02 -0.11065727081E+03  0.14362108288E+03  0.21387098872E+03  0.10748641449E+03 0.  0.
         23    2    1    2    0    0 -0.71991099051E+02  0.16552021768E+03  0.42459928269E+03  0.47037407683E+03  0.91583625643E+02 0.  0.
        -11    1    3    3    0    0  0.53317366104E+02 -0.86115374118E+02  0.15216452806E+03  0.18279125468E+03  0.00000000000E+00 0. -1.
         11    1    3    3    0    0 -0.17048598745E+02 -0.24541896693E+02 -0.85434451825E+01  0.31079734041E+02  0.00000000000E+00 0.  1.
        -13    1    4    4    0    0 -0.64147425583E+02  0.87539506245E+02  0.15224145441E+03  0.18696394787E+03  0.00000000000E+00 0.  1.
         13    1    4    4    0    0 -0.78436734678E+01  0.77980711434E+02  0.27235782828E+03  0.28341012895E+03  0.00000000000E+00 0. -1.
         21    1    1    2  502  503  0.47435697816E+02 -0.26494335942E+02  0.36067740504E+02  0.65214853901E+02  0.00000000000E+00 0. -1.
         21    1    1    2  503  501 -0.11713366125E+02 -0.28368610927E+02  0.63789065911E+01  0.31347591314E+02  0.00000000000E+00 0. -1.
<scales pt_clust_5="13000.00000" pt_clust_6="13000.00000" pt_clust_7="13000.00000" pt_clust_8="13000.00000" pt_clust_9="55.39641" pt_clust_10="30.69171"></scales>
<clustering>
<clus scale="   30.692">  2 10  1 -1</clus>
<clus scale="   55.396">  2  9  1 -1</clus>
<clus scale="   91.584">  7  8 -1 -1</clus>
<clus scale="  107.486">  5  6 -1 -1</clus>
<clus scale="  180.111">  1  7  2 -1</clus>
<clus scale="  180.111">  1  5  2 -1</clus>
</clustering>
</event>
<event>
10    2  0.2445576E-006  0.1558429E+03  0.7546771E-02  0.1193625E+00
         -2   -1    0    0    0  501 -0.00000000000E+00  0.00000000000E+00  0.78073728294E+02  0.78073728294E+02  0.00000000000E+00 0.  1.
          2   -1    0    0  502    0  0.00000000000E+00 -0.00000000000E+00 -0.10541039210E+04  0.10541039210E+04  0.00000000000E+00 0. -1.
         23    2    1    2    0    0 -0.79982385009E+02  0.64115986770E+01 -0.98475470608E+02  0.15695416546E+03  0.92189485492E+02 0.  0.
         23    2    1    2    0    0  0.21312432018E+03  0.99005527479E+01 -0.46120553427E+03  0.51630081797E+03  0.91301659299E+02 0.  0.
        -11    1    3    3    0    0 -0.72762879981E+02 -0.34554627385E+02 -0.67426943717E+02  0.10504690246E+03  0.00000000000E+00 0. -1.
         11    1    3    3    0    0 -0.72195050285E+01  0.40966226062E+02 -0.31048526891E+02  0.51907263006E+02  0.00000000000E+00 0.  1.
        -11    1    4    4    0    0  0.80221444764E+02 -0.34013979359E+02 -0.23093813056E+03  0.24682959940E+03  0.00000000000E+00 0. -1.
         11    1    4    4    0    0  0.13290287541E+03  0.43914532107E+02 -0.23026740371E+03  0.26947121857E+03  0.00000000000E+00 0.  1.
         21    1    1    2  502  503 -0.96877530802E+02  0.52907637022E+01 -0.40320270192E+03  0.41471154673E+03  0.00000000000E+00 0. -1.
         21    1    1    2  503  501 -0.36264404367E+02 -0.21602915127E+02 -0.13146485944E+02  0.44211119175E+02  0.00000000000E+00 0. -1.
<scales pt_clust_5="13000.00000" pt_clust_6="13000.00000" pt_clust_7="13000.00000" pt_clust_8="13000.00000" pt_clust_9="100.26863" pt_clust_10="42.21129"></scales>
<clustering>
<clus scale="   42.211">  1 10  2 -1</clus>
<clus scale="   91.302">  7  8 -1 -1</clus>
<clus scale="   92.189">  5  6 -1 -1</clus>
<clus scale="  100.269">  2  9  1 -1</clus>
<clus scale="  155.319">  2  7  1 -1</clus>
<clus scale="  100.269">  2  5  1 -1</clus>
</clustering>
</event>
<event>
10    2  0.2445576E-006  0.9319352E+02  0.7546771E-02  0.1296412E+00
          2   -1    0    0  502    0  0.00000000000E+00  0.00000000000E+00  0.26696320035E+03  0.26696320035E+03  0.00000000000E+00 0. -1.
         -2   -1    0    0    0  501 -0.00000000000E+00 -0.00000000000E+00 -0.87409407286E+02  0.87409407286E+02  0.00000000000E+00 0.  1.
         23    2    1    2    0    0 -0.81585184594E+01  0.29992445664E+02  0.33119238804E+02  0.10058953190E+03  0.89751109904E+02 0.  0.
         23    2    1    2    0    0  0.10495506726E+02  0.28880732843E+01  0.10743405554E+03  0.14166053941E+03  0.91690433021E+02 0.  0.
        -11    1    4    4    0    0  0.14665182406E+02 -0.20692781309E+02  0.11403447117E+03  0.11682088592E+03  0.00000000000E+00 0. -1.
         11    1    4    4    0    0 -0.41696756803E+01  0.23580854593E+02 -0.66004156330E+01  0.24839653483E+02  0.00000000000E+00 0.  1.
        -13    1    3    3    0    0  0.40356794206E+02  0.15068595421E+02  0.74800935023E+01  0.43722822477E+02  0.00000000000E+00 0.  1.
         13    1    3    3    0    0 -0.48515312665E+02  0.14923850243E+02  0.25639145302E+02  0.56866709426E+02  0.00000000000E+00 0. -1.
         21    1    1    2  502  503  0.26610727695E+02  0.19384958440E+02  0.40703738552E+02  0.52351712238E+02  0.00000000000E+00 0. -1.
         21    1    1    2  503  501 -0.28947715962E+02 -0.52265477388E+02 -0.17032398310E+01  0.59770824086E+02  0.00000000000E+00 0. -1.
<scales pt_clust_5="13000.00000" pt_clust_6="13000.00000" pt_clust_7="13000.00000" pt_clust_8="13000.00000" pt_clust_9="32.92275" pt_clust_10="55.84483"></scales>
<clustering>
<clus scale="   32.923">  1  9  2 -1</clus>
<clus scale="   55.845">  2 10  1 -1</clus>
<clus scale="   89.751">  7  8 -1 -1</clus>
<clus scale="   91.286">  2  7  1 -1</clus>
<clus scale="   91.690">  5  6 -1 -1</clus>
<clus scale="   32.923">  1  5  2 -1</clus>
</clustering>
</event>
<event>
10    2  0.2445576E-006  0.9848926E+02  0.7546771E-02  0.1283595E+00
          2   -1    0    0  502    0  0.00000000000E+00  0.00000000000E+00  0.21053096212E+03  0.21053096212E+03  0.00000000000E+00 0. -1.
         -2   -1    0    0    0  501 -0.00000000000E+00 -0.00000000000E+00 -0.14408251289E+03  0.14408251289E+03  0.00000000000E+00 0.  1.
         23    2    1    2    0    0 -0.54889932379E+02  0.24808628163E+02 -0.39375961769E+02  0.11585901160E+03  0.90799072109E+02 0.  0.
         23    2    1    2    0    0  0.40126343150E+02  0.44491556789E+01  0.10157130555E+03  0.14221136832E+03  0.90980353744E+02 0.  0.
        -11    1    3    3    0    0 -0.25601130252E+02  0.46628033895E+02  0.10319870649E+02  0.54185709789E+02  0.00000000000E+00 0.  1.
         11    1    3    3    0    0 -0.29288802128E+02 -0.21819405732E+02 -0.49695832418E+02  0.61673301811E+02  0.00000000000E+00 0. -1.
        -13    1    4    4    0    0  0.59948576860E+02 -0.33556814483E+01  0.10468501441E+03  0.12068158396E+03  0.00000000000E+00 0. -1.
         13    1    4    4    0    0 -0.19822233710E+02  0.78048371272E+01 -0.31137088555E+01  0.21529784362E+02  0.00000000000E+00 0.  1.
         21    1    1    2  502  503 -0.15682317236E+02 -0.21779572445E+02  0.40521201909E+02  0.48603010749E+02  0.00000000000E+00 0. -1.
         21    1    1    2  503  501  0.30445906465E+02 -0.74782113966E+01 -0.36268096460E+02  0.47940084344E+02  0.00000000000E+00 0.  1.
<scales pt_clust_5="13000.00000" pt_clust_6="13000.00000" pt_clust_7="13000.00000" pt_clust_8="13000.00000" pt_clust_9="26.83812" pt_clust_10="31.01038"></scales>
<clustering>
<clus scale="   26.838">  1  9  2 -1</clus>
<clus scale="   31.010">  2 10  1 -1</clus>
<clus scale="   90.799">  5  6 -1 -1</clus>
<clus scale="   90.980">  7  8 -1 -1</clus>
<clus scale="   98.322">  2  5  1 -1</clus>
<clus scale="   26.838">  1  5  2 -1</clus>
</clustering>
</event>
<event>
10    2  0.2445576E-006  0.1013398E+03  0.7546771E-02  0.1278804E+00
         -2   -1    0    0    0  501 -0.00000000000E+00  0.00000000000E+00  0.11599100224E+04  0.11599100224E+04  0.00000000000E+00 0.  1.
          2   -1    0    0  502    0  0.00000000000E+00 -0.00000000000E+00 -0.24559536397E+02  0.24559536397E+02  0.00000000000E+00 0. -1.
         23    2    1    2    0    0 -0.68431262399E+02  0.50961067561E+02  0.45678743076E+03  0.47361674665E+03  0.91532495483E+02 0.  0.
         23    2    1    2    0    0 -0.39817420495E+01 -0.41536252422E+01  0.27322039194E+03  0.28906387508E+03  0.94209524107E+02 0.  0.
        -11    1    4    4    0    0  0.40259675254E+02  0.15958043123E+02  0.16201448998E+03  0.16770269990E+03  0.00000000000E+00 0.  1.
         11    1    4    4    0    0 -0.44241417303E+02 -0.20111668365E+02  0.11120590197E+03  0.12136117518E+03  0.00000000000E+00 0. -1.
        -13    1    3    3    0    0 -0.66194721558E+02 -0.69706664310E+01  0.26703176567E+03  0.27520228057E+03  0.00000000000E+00 0.  1.
         13    1    3    3    0    0 -0.22365408409E+01  0.57931733992E+02  0.18975566509E+03  0.19841446609E+03  0.00000000000E+00 0. -1.
         21    1    1    2  502  503  0.92712160573E+01 -0.31296828309E+02  0.44797045291E+02  0.55427630079E+02  0.00000000000E+00 0. -1.
         21    1    1    2  503  501  0.63141788392E+02 -0.15510614010E+02  0.36054561804E+03  0.36636130701E+03  0.00000000000E+00 0.  1.
<scales pt_clust_5="13000.00000" pt_clust_6="13000.00000" pt_clust_7="13000.00000" pt_clust_8="13000.00000" pt_clust_9="32.64118" pt_clust_10="67.64171"></scales>
<clustering>
<clus scale="   32.641">  2  9  1 -1</clus>
<clus scale="   67.642">  1 10  2 -1</clus>
<clus scale="   91.532">  7  8 -1 -1</clus>
<clus scale="   94.210">  5  6 -1 -1</clus>
<clus scale="   98.856">  1  7  2 -1</clus>
<clus scale="   32.641">  2  5  1 -1</clus>
</clustering>
</event>
<event>
10    2  0.2445576E-006  0.9290689E+02  0.7546771E-02  0.1297548E+00
          1   -1    0    0  502    0  0.00000000000E+00  0.00000000000E+00  0.83474986633E+03  0.83474986633E+03  0.00000000000E+00 0. -1.
         -1   -1    0    0    0  501 -0.00000000000E+00 -0.00000000000E+00 -0.54579126031E+02  0.54579126031E+02  0.00000000000E+00 0.  1.
         23    2    1    2    0    0  0.13742473720E+02 -0.10343932344E+02  0.41565743527E+02  0.10250715028E+03  0.92109458272E+02 0.  0.
         23    2    1    2    0    0 -0.41182208306E+02 -0.51007034850E+02  0.27608180430E+03  0.29750629071E+03  0.89393167899E+02 0.  0.
        -11    1    4    4    0    0  0.78210178971E+01 -0.26842381047E+02  0.16989809325E+02  0.32715980225E+02  0.00000000000E+00 0.  1.
         11    1    4    4    0    0 -0.49003226203E+02 -0.24164653804E+02  0.25909199497E+03  0.26479031049E+03  0.00000000000E+00 0. -1.
        -13    1    3    3    0    0  0.35170045886E+02 -0.42434254187E+02  0.24265069007E+02  0.60219528642E+02  0.00000000000E+00 0.  1.
         13    1    3    3    0    0 -0.21427572166E+02  0.32090321843E+02  0.17300674520E+02  0.42287621637E+02  0.00000000000E+00 0. -1.
         21    1    1    2  502  503  0.46838386104E+02  0.52653187509E+02  0.46271976872E+03  0.46805531396E+03  0.00000000000E+00 0. -1.
         21    1    1    2  503  501 -0.19398651519E+02  0.86977796849E+01 -0.19657624011E+00  0.21260237403E+02  0.00000000000E+00 0. -1.
<scales pt_clust_5="13000.00000" pt_clust_6="13000.00000" pt_clust_7="13000.00000" pt_clust_8="13000.00000" pt_clust_9="70.09304" pt_clust_10="21.25933"></scales>
<clustering>
<clus scale="   21.259">  2 10  1 -1</clus>
<clus scale="   70.093">  1  9  2 -1</clus>
<clus scale="   89.393">  5  6 -1 -1</clus>
<clus scale="   90.215">  1  5  2 -1</clus>
<clus scale="   92.109">  7  8 -1 -1</clus>
<clus scale="   70.093">  1  5  2 -1</clus>
</clustering>
</event>
<event>
10    2  0.2445576E-006  0.1050370E+03  0.7546771E-02  0.1270976E+00
          1   -1    0    0  502    0  0.00000000000E+00  0.00000000000E+00  0.44204494975E+03  0.44204494975E+03  0.00000000000E+00 0. -1.
         -1   -1    0    0    0  501 -0.00000000000E+00 -0.00000000000E+00 -0.12844894835E+03  0.12844894835E+03  0.00000000000E+00 0.  1.
         23    2    1    2    0    0  0.49115671366E+02 -0.48744023490E+01  0.44984999699E+02  0.11280730595E+03  0.90916055274E+02 0.  0.
         23    2    1    2    0    0 -0.41783620310E+02 -0.27057119666E+02  0.80334288000E+02  0.13261426792E+03  0.93032185710E+02 0.  0.
        -13    1    3    3    0    0  0.47723428910E+02  0.36613672166E+02  0.36744760641E+02  0.70485914132E+02  0.00000000000E+00 0. -1.
         13    1    3    3    0    0  0.13922424560E+01 -0.41488074515E+02  0.82402390583E+01  0.42321391822E+02  0.00000000000E+00 0.  1.
        -13    1    4    4    0    0 -0.25664794917E+02 -0.56088635071E+02  0.21993513869E+02  0.65485352061E+02  0.00000000000E+00 0.  1.
         13    1    4    4    0    0 -0.16118825393E+02  0.29031515405E+02  0.58340774131E+02  0.67128915864E+02  0.00000000000E+00 0. -1.
         21    1    1    2  502  503 -0.34167335062E+02  0.47404433903E+02  0.24961100759E+03  0.25635959558E+03  0.00000000000E+00 0. -1.
         21    1    1    2  503  501  0.26835284006E+02 -0.15472911888E+02 -0.61334293890E+02  0.68712728638E+02  0.00000000000E+00 0.  1.
<scales pt_clust_5="13000.00000" pt_clust_6="13000.00000" pt_clust_7="13000.00000" pt_clust_8="13000.00000" pt_clust_9="56.93593" pt_clust_10="30.97650"></scales>
<clustering>
<clus scale="   30.976">  2 10  1 -1</clus>
<clus scale="   56.936">  1  9  2 -1</clus>
<clus scale="   90.916">  5  6 -1 -1</clus>
<clus scale="   93.032">  7  8 -1 -1</clus>
<clus scale="  103.167">  2  5  1 -1</clus>
<clus scale="   56.936">  1  5  2 -1</clus>
</clustering>
</event>
<event>
10    2  0.2445576E-006  0.1373210E+03  0.7546771E-02  0.1217520E+00
         -2   -1    0    0    0  501 -0.00000000000E+00  0.00000000000E+00  0.87228106065E+02  0.87228106065E+02  0.00000000000E+00 0.  1.
          2   -1    0    0  502    0  0.00000000000E+00 -0.00000000000E+00 -0.58847612801E+03  0.58847612801E+03  0.00000000000E+00 0. -1.
         23    2    1    2    0    0  0.82960369251E+02 -0.10985216619E+02 -0.12187266853E+03  0.17350192229E+03  0.90812289124E+02 0.  0.
         23    2    1    2    0    0 -0.12579167485E+03 -0.59005177549E+02 -0.27328197776E+03  0.32040622864E+03  0.93123335104E+02 0.  0.
        -11    1    3    3    0    0  0.75343820323E+02  0.28946372406E+02 -0.95526374386E+02  0.12505947361E+03  0.00000000000E+00 0.  1.
         11    1    3    3    0    0  0.76165489280E+01 -0.39931589025E+02 -0.26346294140E+02  0.48442448685E+02  0.00000000000E+00 0. -1.
        -13    1    4    4    0    0 -0.22828939353E+02 -0.20456134730E+02 -0.15860896135E+03  0.16154385330E+03  0.00000000000E+00 0.  1.
         13    1    4    4    0    0 -0.10296273550E+03 -0.38549042820E+02 -0.11467301642E+03  0.15886237534E+03  0.00000000000E+00 0. -1.
         21    1    1    2  502  503  0.39676660100E+02  0.31793271965E+02 -0.12794518208E+03  0.13767722803E+03  0.00000000000E+00 0.  1.
         21    1    1    2  503  501  0.31546455022E+01  0.38197122203E+02  0.21851806425E+02  0.44118855117E+02  0.00000000000E+00 0.  1.
<scales pt_clust_5="13000.00000" pt_clust_6="13000.00000" pt_clust_7="13000.00000" pt_clust_8="13000.00000" pt_clust_9="53.26550" pt_clust_10="38.32717"></scales>
<clustering>
<clus scale="   38.327">  1 10  2 -1</clus>
<clus scale="   53.265">  2  9  1 -1</clus>
<clus scale="   90.812">  5  6 -1 -1</clus>
<clus scale="   93.123">  7  8 -1 -1</clus>
<clus scale="  135.764">  1  5  2 -1</clus>
<clus scale="   53.265">  2  5  1 -1</clus>
</clustering>
</event>
<event>
10    2  0.2445576E-006  0.9677814E+02  0.7546771E-02  0.1289843E+00
          2   -1    0    0  502    0  0.00000000000E+00  0.00000000000E+00  0.30640621744E+03  0.30640621744E+03  0.00000000000E+00 0. -1.
         -2   -1    0    0    0  501 -0.00000000000E+00 -0.00000000000E+00 -0.74027873375E+02  0.74027873375E+02  0.00000000000E+00 0.  1.
         23    2    1    2    0    0  0.17952020837E+01 -0.22132432505E+02  0.30534631248E+02  0.94492306002E+02  0.86621965280E+02 0.  0.
         23    2    1    2    0    0  0.26820387162E+01  0.54679849210E+02  0.70578501419E+02  0.12790648825E+03  0.91551437081E+02 0.  0.
        -11    1    4    4    0    0  0.91238641718E+01 -0.25057926453E+02  0.17043417231E+02  0.31648422496E+02  0.00000000000E+00 0.  1.
         11    1    4    4    0    0 -0.64418254556E+01  0.79737775663E+02  0.53535084188E+02  0.96258065750E+02  0.00000000000E+00 0. -1.
        -13    1    3    3    0    0  0.29097855741E+02 -0.35630680069E+02 -0.65907019063E+01  0.46472227432E+02  0.00000000000E+00 0.  1.
         13    1    3    3    0    0 -0.27302653657E+02  0.13498247564E+02  0.37125333155E+02  0.48020078570E+02  0.00000000000E+00 0. -1.
         21    1    1    2  502  503  0.45944583210E+00 -0.54425042770E+02  0.12233324006E+03  0.13389442854E+03  0.00000000000E+00 0. -1.
         21    1    1    2  503  501 -0.49366866320E+01  0.21877626065E+02  0.89319713401E+01  0.24140868028E+02  0.00000000000E+00 0.  1.
<scales pt_clust_5="13000.00000" pt_clust_6="13000.00000" pt_clust_7="13000.00000" pt_clust_8="13000.00000" pt_clust_9="52.52112" pt_clust_10="22.42769"></scales>
<clustering>
<clus scale="   22.428">  2 10  1 -1</clus>
<clus scale="   52.521">  1  9  2 -1</clus>
<clus scale="   86.622">  7  8 -1 -1</clus>
<clus scale="   91.551">  5  6 -1 -1</clus>
<clus scale="   92.129">  2  7  1 -1</clus>
<clus scale="   52.521">  1  5  2 -1</clus>
</clustering>
</event>
<event>
10    2  0.2445576E-006  0.1441875E+03  0.7546771E-02  0.1226496E+00
         -1   -1    0    0    0  501 -0.00000000000E+00  0.00000000000E+00  0.16574154204E+03  0.16574154204E+03  0.00000000000E+00 0.  1.
          1   -1    0    0  502    0  0.00000000000E+00 -0.00000000000E+00 -0.20449302558E+03  0.20449302558E+03  0.00000000000E+00 0. -1.
         23    2    1    2    0    0  0.21288420779E+02  0.19611549742E+02  0.91675220286E+01  0.97624948930E+02  0.92783497730E+02 0.  0.
         23    2    1    2    0    0  0.43303163480E+02 -0.10877627112E+03 -0.26235416987E+02  0.15019992285E+03  0.90356397642E+02 0.  0.
        -11    1    3    3    0    0  0.27247384332E+02 -0.83504877363E+01 -0.34923739950E+02  0.45075694231E+02  0.00000000000E+00 0.  1.
         11    1    3    3    0    0 -0.59589635527E+01  0.27962037478E+02  0.44091261978E+02  0.52549254699E+02  0.00000000000E+00 0. -1.
        -13    1    4    4    0    0  0.10745602480E+02 -0.31088591642E+02 -0.52511171046E+02  0.61962824238E+02  0.00000000000E+00 0. -1.
         13    1    4    4    0    0  0.32557561000E+02 -0.77687679474E+02  0.26275754059E+02  0.88237098613E+02  0.00000000000E+00 0.  1.
         21    1    1    2  502  503 -0.90033550067E+01  0.36372668631E+02 -0.26030284984E+02  0.45624633270E+02  0.00000000000E+00 0.  1.
         21    1    1    2  503  501 -0.55588229252E+02  0.52792052743E+02  0.43466963980E+01  0.76785062570E+02  0.00000000000E+00 0. -1.
<scales pt_clust_5="13000.00000" pt_clust_6="13000.00000" pt_clust_7="13000.00000" pt_clust_8="13000.00000" pt_clust_9="34.18950" pt_clust_10="122.54505"></scales>
<clustering>
<clus scale="   34.189">  9 10 -1 -1</clus>
<clus scale="   90.356">  7  8 -1 -1</clus>
<clus scale="   92.783">  5  6 -1 -1</clus>
<clus scale="   97.194">  1  5  2 -1</clus>
<clus scale="  122.545">  2  9  1 -1</clus>
<clus scale="  122.545">  2  5  1 -1</clus>
</clustering>
</event>
<event>
10    2  0.2445576E-006  0.2533716E+03  0.7546771E-02  0.1111239E+00
         -2   -1    0    0    0  501 -0.00000000000E+00  0.00000000000E+00  0.10313595052E+03  0.10313595052E+03  0.00000000000E+00 0.  1.
          2   -1    0    0  502    0  0.00000000000E+00 -0.00000000000E+00 -0.10803315543E+04  0.10803315543E+04  0.00000000000E+00 0. -1.
         23    2    1    2    0    0 -0.17456144417E+03  0.68957997849E+02 -0.16814222871E+03  0.26794640784E+03  0.91085482605E+02 0.  0.
         23    2    1    2    0    0  0.23893284368E+03 -0.90821128222E+02 -0.60094909623E+03  0.65925980747E+03  0.90256835601E+02 0.  0.
        -11    1    4    4    0    0  0.15935183564E+03 -0.17750925055E+02 -0.31231021495E+03  0.35106377373E+03  0.00000000000E+00 0. -1.
         11    1    4    4    0    0  0.79581008044E+02 -0.73070203167E+02 -0.28863888128E+03  0.30819603375E+03  0.00000000000E+00 0.  1.
        -13    1    3    3    0    0 -0.19690370414E+02 -0.21024304834E+02 -0.16079676058E+02  0.32989211311E+02  0.00000000000E+00 0. -1.
         13    1    3    3    0    0 -0.15487107375E+03  0.89982302682E+02 -0.15206255265E+03  0.23495719653E+03  0.00000000000E+00 0.  1.
         21    1    1    2  502  503  0.36810359900E+02 -0.16153128128E+02 -0.71966434806E+02  0.82432359441E+02  0.00000000000E+00 0. -1.
         21    1    1    2  503  501 -0.10118175942E+03  0.38016258501E+02 -0.13613784407E+03  0.17382893009E+03  0.00000000000E+00 0.  1.
<scales pt_clust_5="13000.00000" pt_clust_6="13000.00000" pt_clust_7="13000.00000" pt_clust_8="13000.00000" pt_clust_9="40.19858" pt_clust_10="101.88684"></scales>
<clustering>
<clus scale="   40.199">  2  9  1 -1</clus>
<clus scale="   90.257">  5  6 -1 -1</clus>
<clus scale="   91.085">  7  8 -1 -1</clus>
<clus scale="  101.887">  1 10  2 -1</clus>
<clus scale="  253.075">  2  5  1 -1</clus>
<clus scale="   40.199">  2  5  1 -1</clus>
</clustering>
</event>
<event>
10    2  0.2445576E-006  0.9963660E+02  0.7546771E-02  0.1281301E+00
          1   -1    0    0  502    0  0.00000000000E+00  0.00000000000E+00  0.17063484253E+03  0.17063484253E+03  0.00000000000E+00 0. -1.
         -1   -1    0    0    0  501 -0.00000000000E+00 -0.00000000000E+00 -0.28944010318E+03  0.28944010318E+03  0.00000000000E+00 0.  1.
         23    2    1    2    0    0 -0.15234680963E+02  0.16521531445E+02 -0.14903066004E+03  0.17881829409E+03  0.96232988949E+02 0.  0.
         23    2    1    2    0    0 -0.84601342310E+01 -0.44504975238E+02 -0.34641810470E+02  0.11146085291E+03  0.95766382440E+02 0.  0.
        -11    1    3    3    0    0 -0.22589823834E+02 -0.31689548692E+02 -0.26895770445E+02  0.47306554567E+02  0.00000000000E+00 0.  1.
         11    1    3    3    0    0  0.73551428710E+01  0.48211080137E+02 -0.12213488960E+03  0.13151173952E+03  0.00000000000E+00 0. -1.
        -11    1    4    4    0    0  0.10917363942E+02  0.28094273905E+02 -0.43901677803E+01  0.30458999242E+02  0.00000000000E+00 0. -1.
         11    1    4    4    0    0 -0.19377498173E+02 -0.72599249143E+02 -0.30251642690E+02  0.81001853664E+02  0.00000000000E+00 0.  1.
         21    1    1    2  502  503 -0.27059086131E+02 -0.16353636551E+02  0.91897811053E+02  0.97184583382E+02  0.00000000000E+00 0.  1.
         21    1    1    2  503  501  0.50753901325E+02  0.44337080345E+02 -0.27030601192E+02  0.72611215345E+02  0.00000000000E+00 0. -1.
<scales pt_clust_5="13000.00000" pt_clust_6="13000.00000" pt_clust_7="13000.00000" pt_clust_8="13000.00000" pt_clust_9="31.61701" pt_clust_10="58.08987"></scales>
<clustering>
<clus scale="   31.617">  1  9  2 -1</clus>
<clus scale="   58.090">  1 10  2 -1</clus>
<clus scale="   95.766">  7  8 -1 -1</clus>
<clus scale="   96.233">  5  6 -1 -1</clus>
<clus scale="   99.186">  1  7  2 -1</clus>
<clus scale="   31.617">  1  5  2 -1</clus>
</clustering>
</event>
<event>
10    2  0.2445576E-006  0.1398451E+03  0.7546771E-02  0.1213620E+00
         -1   -1    0    0    0  501 -0.00000000000E+00  0.00000000000E+00  0.30657189986E+03  0.30657189986E+03  0.00000000000E+00 0.  1.
          1   -1    0    0  502    0  0.00000000000E+00 -0.00000000000E+00 -0.44234090324E+03  0.44234090324E+03  0.00000000000E+00 0. -1.
         23    2    1    2    0    0  0.82575043220E+02 -0.17651613115E+02  0.47645263292E+02  0.13313741105E+03  0.91242982741E+02 0.  0.
         23    2    1    2    0    0 -0.98900889919E+02 -0.50217112803E+01 -0.26717465588E+03  0.29930321059E+03  0.91616109452E+02 0.  0.
        -11    1    3    3    0    0 -0.11567619217E+02 -0.24133408175E+02 -0.13775064910E+01  0.26797923961E+02  0.00000000000E+00 0.  1.
         11    1    3    3    0    0  0.94142662436E+02  0.64817950604E+01  0.49022769783E+02  0.10633948709E+03  0.00000000000E+00 0. -1.
        -13    1    4    4    0    0 -0.20278350496E+02  0.18842129957E+02 -0.10179967310E+02  0.29493543269E+02  0.00000000000E+00 0.  1.
         13    1    4    4    0    0 -0.78622539424E+02 -0.23863841237E+02 -0.25699468857E+03  0.26980966732E+03  0.00000000000E+00 0. -1.
         21    1    1    2  502  503 -0.12946777324E+02 -0.18490962603E+02 -0.11202469543E+03  0.11427627544E+03  0.00000000000E+00 0. -1.
         21    1    1    2  503  501  0.29272624023E+02  0.41164286998E+02  0.19578508464E+03  0.20219590602E+03  0.00000000000E+00 0.  1.
<scales pt_clust_5="13000.00000" pt_clust_6="13000.00000" pt_clust_7="13000.00000" pt_clust_8="13000.00000" pt_clust_9="22.57288" pt_clust_10="50.29144"></scales>
<clustering>
<clus scale="   22.573">  2  9  1 -1</clus>
<clus scale="   50.291">  1 10  2 -1</clus>
<clus scale="   91.243">  5  6 -1 -1</clus>
<clus scale="   91.616">  7  8 -1 -1</clus>
<clus scale="  139.601">  1  5  2 -1</clus>
<clus scale="   22.573">  2  5  1 -1</clus>
</clustering>
</event>
<event>
10    2  0.2445576E-006  0.1068882E+03  0.7546771E-02  0.1273339E+00
         -2   -1    0    0    0  501 -0.00000000000E+00  0.00000000000E+00  0.12575965623E+03  0.12575965623E+03  0.00000000000E+00 0.  1.
          2   -1    0    0  502    0  0.00000000000E+00 -0.00000000000E+00 -0.42897979610E+03  0.42897979610E+03  0.00000000000E+00 0. -1.
         23    2    1    2    0    0  0.25832172936E+02  0.12600197070E+02  0.74411688007E+02  0.12144280491E+03  0.91570679953E+02 0.  0.
         23    2    1    2    0    0 -0.34113140226E+02 -0.45661734613E+02 -0.17653673630E+03  0.21324711525E+03  0.10516849602E+03 0.  0.
        -11    1    3    3    0    0  0.20334154526E+02  0.50573489165E+02  0.28175669821E+02  0.61359791529E+02  0.00000000000E+00 0.  1.
         11    1    3    3    0    0  0.54980184103E+01 -0.37973292095E+02  0.46236018186E+02  0.60083013379E+02  0.00000000000E+00 0. -1.
        -11    1    4    4    0    0  0.17686173859E+01  0.31423017023E+02 -0.71418801011E+02  0.78046006587E+02  0.00000000000E+00 0. -1.
         11    1    4    4    0    0 -0.35881757612E+02 -0.77084751636E+02 -0.10511793529E+03  0.13520110866E+03  0.00000000000E+00 0.  1.
         21    1    1    2  502  503  0.27715149673E+02  0.40117299399E+02 -0.19083988282E+03  0.19697052598E+03  0.00000000000E+00 0. -1.
         21    1    1    2  503  501 -0.19434182383E+02 -0.70557618560E+01 -0.10255208753E+02  0.23079006193E+02  0.00000000000E+00 0. -1.
<scales pt_clust_5="13000.00000" pt_clust_6="13000.00000" pt_clust_7="13000.00000" pt_clust_8="13000.00000" pt_clust_9="48.32806" pt_clust_10="20.67538"></scales>
<clustering>
<clus scale="   20.675">  1 10  2 -1</clus>
<clus scale="   48.328">  2  9  1 -1</clus>
<clus scale="   91.571">  5  6 -1 -1</clus>
<clus scale="   93.541">  1  5  2 -1</clus>
<clus scale="  105.168">  7  8 -1 -1</clus>
<clus scale="   48.328">  2  5  1 -1</clus>
</clustering>
</event>
<event>
10    2  0.2445576E-006  0.1245950E+03  0.7546771E-02  0.1236488E+00
         -3   -1    0    0    0  501 -0.00000000000E+00  0.00000000000E+00  0.60912842267E+02  0.60912842267E+02  0.00000000000E+00 0.  1.
          3   -1    0    0  502    0  0.00000000000E+00 -0.00000000000E+00 -0.40443551520E+03  0.40443551520E+03  0.00000000000E+00 0. -1.
         23    2    1    2    0    0 -0.71794076590E+02 -0.28401738895E+02 -0.12870347624E+03  0.17592687232E+03  0.91785790844E+02 0.  0.
         23    2    1    2    0    0  0.98650130836E+02 -0.18814407432E+01 -0.16497199252E+03  0.21186243811E+03  0.89076069924E+02 0.  0.
        -11    1    4    4    0    0  0.79077716331E+02 -0.11279148360E+02 -0.48640513413E+02  0.93522211014E+02  0.00000000000E+00 0.  1.
         11    1    4    4    0    0  0.19572414505E+02  0.93977076165E+01 -0.11633147911E+03  0.11834022710E+03  0.00000000000E+00 0. -1.
        -11    1    3    3    0    0  0.20066688664E+02 -0.18933166410E+02 -0.28992253607E+02  0.40021088859E+02  0.00000000000E+00 0.  1.
         11    1    3    3    0    0 -0.91860765254E+02 -0.94685724856E+01 -0.99711222634E+02  0.13590578346E+03  0.00000000000E+00 0. -1.
         21    1    1    2  502  503 -0.32111196654E+02  0.96624958568E+01 -0.44313757851E+02  0.55571592668E+02  0.00000000000E+00 0. -1.
         21    1    1    2  503  501  0.52551424082E+01  0.20620683782E+02 -0.55334463154E+01  0.21987454366E+02  0.00000000000E+00 0. -1.
<scales pt_clust_5="13000.00000" pt_clust_6="13000.00000" pt_clust_7="13000.00000" pt_clust_8="13000.00000" pt_clust_9="33.70725" pt_clust_10="21.27978"></scales>
<clustering>
<clus scale="   21.280">  1 10  2 -1</clus>
<clus scale="   33.707">  2  9  1 -1</clus>
<clus scale="   89.076">  5  6 -1 -1</clus>
<clus scale="   91.786">  7  8 -1 -1</clus>
<clus scale="  122.612">  2  5  1 -1</clus>
<clus scale="   33.707">  2  5  1 -1</clus>
</clustering>
</event>
<event>
10    2  0.2445576E-006  0.9592029E+02  0.7546771E-02  0.1289358E+00
          1   -1    0    0  502    0  0.00000000000E+00  0.00000000000E+00  0.65964041153E+03  0.65964041153E+03  0.00000000000E+00 0. -1.
         -1   -1    0    0    0  501 -0.00000000000E+00 -0.00000000000E+00 -0.42397489229E+02  0.42397489229E+02  0.00000000000E+00 0.  1.
         23    2    1    2    0    0  0.55874014584E+02 -0.51858456280E+02  0.16009134449E+03  0.19926335706E+03  0.90914475718E+02 0.  0.
         23    2    1    2    0    0  0.11852383893E+01 -0.27256771042E+02  0.22818502987E+03  0.24697228132E+03  0.90457523317E+02 0.  0.
        -11    1    3    3    0    0  0.20342755451E+02 -0.62882447008E+02  0.14455558046E+03  0.15894761930E+03  0.00000000000E+00 0. -1.
         11    1    3    3    0    0  0.35531259133E+02  0.11023990729E+02  0.15535764032E+02  0.40315737761E+02  0.00000000000E+00 0.  1.
        -13    1    4    4    0    0  0.11338564646E+02  0.28635276856E+02  0.40508974715E+02  0.50887318276E+02  0.00000000000E+00 0. -1.
         13    1    4    4    0    0 -0.10153326257E+02 -0.55892047898E+02  0.18767605516E+03  0.19608496304E+03  0.00000000000E+00 0.  1.
         21    1    1    2  502  503 -0.32336110843E+02  0.56302559633E+02  0.20350892318E+03  0.21361527122E+03  0.00000000000E+00 0. -1.
         21    1    1    2  503  501 -0.24723142130E+02  0.22812667689E+02  0.25457624757E+02  0.42186991148E+02  0.00000000000E+00 0.  1.
<scales pt_clust_5="13000.00000" pt_clust_6="13000.00000" pt_clust_7="13000.00000" pt_clust_8="13000.00000" pt_clust_9="69.70920" pt_clust_10="33.64003"></scales>
<clustering>
<clus scale="   33.640">  2 10  1 -1</clus>
<clus scale="   69.709">  1  9  2 -1</clus>
<clus scale="   90.458">  7  8 -1 -1</clus>
<clus scale="   90.914">  5  6 -1 -1</clus>
<clus scale="   95.487">  1  7  2 -1</clus>
<clus scale="   69.709">  1  5  2 -1</clus>
</clustering>
</event>
<event>
10    2  0.2445576E-006  0.1150646E+03  0.7546771E-02  0.1251644E+00
         -1   -1    0    0    0  501 -0.00000000000E+00  0.00000000000E+00  0.77776321657E+02  0.77776321657E+02  0.00000000000E+00 0.  1.
          1   -1    0    0  502    0  0.00000000000E+00 -0.00000000000E+00 -0.50882843745E+03  0.50882843745E+03  0.00000000000E+00 0. -1.
         23    2    1    2    0    0  0.71437528330E+02  0.10226819974E+02 -0.11362525116E+03  0.16260122654E+03  0.91217064579E+02 0.  0.
         23    2    1    2    0    0 -0.53415031658E+02 -0.99461529648E+00 -0.23045182354E+03  0.25335824540E+03  0.90709440925E+02 0.  0.
        -13    1    3    3    0    0  0.10119756579E+02  0.44784105665E+02 -0.46070808835E+02  0.65042640015E+02  0.00000000000E+00 0. -1.
         13    1    3    3    0    0  0.61317771751E+02 -0.34557285691E+02 -0.67554442325E+02  0.97558586525E+02  0.00000000000E+00 0.  1.
        -13    1    4    4    0    0 -0.39993460055E+02 -0.43178380264E+02 -0.15609636935E+03  0.16682303766E+03  0.00000000000E+00 0. -1.
         13    1    4    4    0    0 -0.13421571603E+02  0.42183764967E+02 -0.74355454187E+02  0.86535207739E+02  0.00000000000E+00 0.  1.
         21    1    1    2  502  503 -0.44724460727E+02 -0.48795128514E+01 -0.11988124143E+03  0.12804530089E+03  0.00000000000E+00 0. -1.
         21    1    1    2  503  501  0.26701964055E+02 -0.43526918266E+01  0.32906200335E+02  0.42599986280E+02  0.00000000000E+00 0.  1.
<scales pt_clust_5="13000.00000" pt_clust_6="13000.00000" pt_clust_7="13000.00000" pt_clust_8="13000.00000" pt_clust_9="42.33710" pt_clust_10="27.05440"></scales>
<clustering>
<clus scale="   27.054">  1 10  2 -1</clus>
<clus scale="   42.337">  2  9  1 -1</clus>
<clus scale="   90.709">  7  8 -1 -1</clus>
<clus scale="   91.217">  5  6 -1 -1</clus>
<clus scale="  114.663">  2  7  1 -1</clus>
<clus scale="   42.337">  2  5  1 -1</clus>
</clustering>
</event>
<event>
10    2  0.2445576E-006  0.1130633E+03  0.7546771E-02  0.1260882E+00
         -2   -1    0    0    0  501 -0.00000000000E+00  0.00000000000E+00  0.14213029377E+03  0.14213029377E+03  0.00000000000E+00 0.  1.
          2   -1    0    0  502    0  0.00000000000E+00 -0.00000000000E+00 -0.18352616351E+03  0.18352616351E+03  0.00000000000E+00 0. -1.
         23    2    1    2    0    0  0.45843322682E+02 -0.30652526972E+02  0.32766925426E+02  0.11106647677E+03  0.90669196622E+02 0.  0.
         23    2    1    2    0    0 -0.19620408014E+02  0.31530245280E+02 -0.38565415668E+02  0.11719304757E+03  0.10424875220E+03 0.  0.
        -11    1    3    3    0    0 -0.13485100011E+02 -0.20337766847E+02 -0.19572069157E+02  0.31281601201E+02  0.00000000000E+00 0. -1.
         11    1    3    3    0    0  0.59328422693E+02 -0.10314760125E+02  0.52338994583E+02  0.79784875570E+02  0.00000000000E+00 0.  1.
        -11    1    4    4    0    0 -0.56465534025E+02  0.41967383536E+02 -0.14106906343E+02  0.71753903170E+02  0.00000000000E+00 0. -1.
         11    1    4    4    0    0  0.36845126011E+02 -0.10437138256E+02 -0.24458509325E+02  0.45439144403E+02  0.00000000000E+00 0.  1.
         21    1    1    2  502  503  0.15862478936E+02  0.17821884497E+02 -0.44499184822E+02  0.50491734520E+02  0.00000000000E+00 0.  1.
         21    1    1    2  503  501 -0.42085393604E+02 -0.18699602804E+02  0.89018053252E+01  0.46905198410E+02  0.00000000000E+00 0. -1.
<scales pt_clust_5="13000.00000" pt_clust_6="13000.00000" pt_clust_7="13000.00000" pt_clust_8="13000.00000" pt_clust_9="23.85871" pt_clust_10="43.03898"></scales>
<clustering>
<clus scale="   23.859">  2  9  1 -1</clus>
<clus scale="   43.039">  1 10  2 -1</clus>
<clus scale="   90.669">  5  6 -1 -1</clus>
<clus scale="  100.680">  1  5  2 -1</clus>
<clus scale="  104.249">  7  8 -1 -1</clus>
<clus scale="   23.859">  2  5  1 -1</clus>
</clustering>
</event>
<event>
10    2  0.2445576E-006  0.1051457E+03  0.7546771E-02  0.1274031E+00
          2   -1    0    0  502    0  0.00000000000E+00  0.00000000000E+00  0.44429776392E+03  0.44429776392E+03  0.00000000000E+00 0. -1.
         -2   -1    0    0    0  501 -0.00000000000E+00 -0.00000000000E+00 -0.27311559248E+03  0.27311559248E+03  0.00000000000E+00 0.  1.
         23    2    1    2    0    0  0.29624296594E+02 -0.48829477439E+02 -0.18923937027E+03  0.22080533397E+03  0.98394814068E+02 0.  0.
         23    2    1    2    0    0 -0.14910388693E+02  0.51479636706E+02  0.30861469951E+03  0.32579884768E+03  0.89606828477E+02 0.  0.
        -11    1    4    4    0    0 -0.18570161811E+02 -0.23058603024E+02  0.79321918610E+02  0.84667094287E+02  0.00000000000E+00 0.  1.
         11    1    4    4    0    0  0.36597731189E+01  0.74538239730E+02  0.22929278090E+03  0.24113175339E+03  0.00000000000E+00 0. -1.
        -11    1    3    3    0    0  0.53581360508E+02 -0.65457393661E+02 -0.13908361805E+03  0.16278785393E+03  0.00000000000E+00 0.  1.
         11    1    3    3    0    0 -0.23957063914E+02  0.16627916223E+02 -0.50155752221E+02  0.58017480039E+02  0.00000000000E+00 0. -1.
         21    1    1    2  502  503 -0.11477567977E+01 -0.20058268052E+02  0.10830534201E+03  0.11015306882E+03  0.00000000000E+00 0.  1.
         21    1    1    2  503  501 -0.13566151104E+02  0.17408108784E+02 -0.56498499808E+02  0.60656105940E+02  0.00000000000E+00 0. -1.
<scales pt_clust_5="13000.00000" pt_clust_6="13000.00000" pt_clust_7="13000.00000" pt_clust_8="13000.00000" pt_clust_9="20.09108" pt_clust_10="21.97632"></scales>
<clustering>
<clus scale="   20.091">  1  9  2 -1</clus>
<clus scale="   21.976">  2 10  1 -1</clus>
<clus scale="   89.607">  5  6 -1 -1</clus>
<clus scale="   96.971">  1  5  2 -1</clus>
<clus scale="   98.395">  7  8 -1 -1</clus>
<clus scale="   20.091">  1  5  2 -1</clus>
</clustering>
</event>
<event>
10    2  0.2445576E-006  0.1045523E+03  0.7546771E-02  0.1271910E+00
          1   -1    0    0  502    0  0.00000000000E+00  0.00000000000E+00  0.18541755025E+03  0.18541755025E+03  0.00000000000E+00 0. -1.
         -1   -1    0    0    0  501 -0.00000000000E+00 -0.00000000000E+00 -0.17594870838E+03  0.17594870838E+03  0.00000000000E+00 0.  1.
         23    2    1    2    0    0  0.27979960132E+01 -0.47912768097E+02 -0.94834490453E+02  0.14056675761E+03  0.91988970194E+02 0.  0.
         23    2    1    2    0    0 -0.39791864907E+01  0.32827429193E+02  0.20497431020E+02  0.97980822137E+02  0.89925651489E+02 0.  0.
        -11    1    4    4    0    0 -0.35972656086E+02 -0.14603967287E+01  0.33645406671E+02  0.49276547510E+02  0.00000000000E+00 0.  1.
         11    1    4    4    0    0  0.31993469595E+02  0.34287825922E+02 -0.13147975651E+02  0.48704274627E+02  0.00000000000E+00 0. -1.
        -13    1    3    3    0    0 -0.18266382594E+02 -0.35066175430E+02  0.30161914839E+01  0.39653433690E+02  0.00000000000E+00 0. -1.
         13    1    3    3    0    0  0.21064378607E+02 -0.12846592667E+02 -0.97850681937E+02  0.10091332392E+03  0.00000000000E+00 0.  1.
         21    1    1    2  502  503  0.14566499169E+02  0.32255093514E+02  0.92757000750E+02  0.99279580699E+02  0.00000000000E+00 0. -1.
         21    1    1    2  503  501 -0.13385308692E+02 -0.17169754611E+02 -0.89510994446E+01  0.23539098186E+02  0.00000000000E+00 0.  1.
<scales pt_clust_5="13000.00000" pt_clust_6="13000.00000" pt_clust_7="13000.00000" pt_clust_8="13000.00000" pt_clust_9="34.95983" pt_clust_10="21.77078"></scales>
<clustering>
<clus scale="   21.771">  2 10  1 -1</clus>
<clus scale="   34.960">  1  9  2 -1</clus>
<clus scale="   89.926">  5  6 -1 -1</clus>
<clus scale="   91.989">  7  8 -1 -1</clus>
<clus scale="  102.742">  1  5  2 -1</clus>
<clus scale="   34.960">  1  5  2 -1</clus>
</clustering>
</event>
<event>
10    2  0.2445576E-006  0.1533620E+03  0.7546771E-02  0.1197219E+00
          2   -1    0    0  502    0  0.00000000000E+00  0.00000000000E+00  0.10807577865E+04  0.10807577865E+04  0.00000000000E+00 0. -1.
         -2   -1    0    0    0  501 -0.00000000000E+00 -0.00000000000E+00 -0.74036540584E+02  0.74036540584E+02  0.00000000000E+00 0.  1.
         23    2    1    2    0    0  0.30072557201E+02 -0.10984552998E+03  0.41959460067E+02  0.15500986311E+03  0.96421274717E+02 0.  0.
         23    2    1    2    0    0  0.71608097447E+00  0.16224917716E+03  0.68466530549E+03  0.70962267749E+03  0.92045942916E+02 0.  0.
        -11    1    3    3    0    0  0.56460340484E+02 -0.10336133974E+03  0.18720796738E+02  0.11925520882E+03  0.00000000000E+00 0.  1.
         11    1    3    3    0    0 -0.26387783283E+02 -0.64841902378E+01  0.23238663329E+02  0.35754654284E+02  0.00000000000E+00 0. -1.
        -13    1    4    4    0    0 -0.40685329640E+02  0.41422617037E+02  0.18538435682E+03  0.19426396734E+03  0.00000000000E+00 0.  1.
         13    1    4    4    0    0  0.41401410615E+02  0.12082656012E+03  0.49928094866E+03  0.51535871015E+03  0.00000000000E+00 0. -1.
         21    1    1    2  502  503 -0.86827511076E+01 -0.24747274546E+02  0.20999818721E+03  0.21162952628E+03  0.00000000000E+00 0.  1.
         21    1    1    2  503  501 -0.22105887068E+02 -0.27656372634E+02  0.70098293182E+02  0.78532260233E+02  0.00000000000E+00 0.  1.
<scales pt_clust_5="13000.00000" pt_clust_6="13000.00000" pt_clust_7="13000.00000" pt_clust_8="13000.00000" pt_clust_9="26.22628" pt_clust_10="37.52721"></scales>
<clustering>
<clus scale="   26.226">  1  9  2 -1</clus>
<clus scale="   37.527">  1 10  2 -1</clus>
<clus scale="   92.046">  7  8 -1 -1</clus>
<clus scale="   96.421">  5  6 -1 -1</clus>
<clus scale="  150.650">  1  7  2 -1</clus>
<clus scale="   26.226">  1  5  2 -1</clus>
</clustering>
</event>
<event>
10    2  0.2445576E-006  0.1136505E+03  0.7546771E-02  0.1254325E+00
          1   -1    0    0  502    0  0.00000000000E+00  0.00000000000E+00  0.21038952024E+03  0.21038952024E+03  0.00000000000E+00 0. -1.
         -1   -1    0    0    0  501 -0.00000000000E+00 -0.00000000000E+00 -0.12612422088E+03  0.12612422088E+03  0.00000000000E+00 0.  1.
         23    2    1    2    0    0 -0.60918097351E+02  0.88908173350E+02  0.41465479133E+02  0.14679020774E+03  0.90621748241E+02 0.  0.
         23    2    1    2    0    0  0.28556696091E+02 -0.20159723884E+02  0.23943218656E+02  0.10097291317E+03  0.91653434829E+02 0.  0.
        -13    1    3    3    0    0  0.21787206243E+02  0.11022042853E+02  0.19108409570E+02  0.31004823831E+02  0.00000000000E+00 0. -1.
         13    1    3    3    0    0 -0.82705303595E+02  0.77886130497E+02  0.22357069564E+02  0.11578538390E+03  0.00000000000E+00 0.  1.
        -13    1    4    4    0    0 -0.27736886069E+02 -0.97809859775E+01 -0.13717617694E+02  0.32452666619E+02  0.00000000000E+00 0.  1.
         13    1    4    4    0    0  0.56293582159E+02 -0.10378737906E+02  0.37660836351E+02  0.68520246552E+02  0.00000000000E+00 0. -1.
         21    1    1    2  502  503  0.74815071723E+01 -0.28069575931E+02  0.27830390230E+02  0.40229400479E+02  0.00000000000E+00 0. -1.
         21    1    1    2  503  501  0.24879894088E+02 -0.40678873535E+02 -0.89737886558E+01  0.48521219737E+02  0.00000000000E+00 0. -1.
<scales pt_clust_5="13000.00000" pt_clust_6="13000.00000" pt_clust_7="13000.00000" pt_clust_8="13000.00000" pt_clust_9="29.04951" pt_clust_10="50.81514"></scales>
<clustering>
<clus scale="   29.050">  1  9  2 -1</clus>
<clus scale="   50.815">  2 10  1 -1</clus>
<clus scale="   90.622">  5  6 -1 -1</clus>
<clus scale="   91.653">  7  8 -1 -1</clus>
<clus scale="  112.820">  2  5  1 -1</clus>
<clus scale="   29.050">  1  5  2 -1</clus>
</clustering>
</event>
<event>
10    2  0.2445576E-006  0.1631653E+03  0.7546771E-02  0.1185723E+00
         -2   -1    0    0    0  501 -0.00000000000E+00  0.00000000000E+00  0.76245098556E+02  0.76245098556E+02  0.00000000000E+00 0.  1.
          2   -1    0    0  502    0  0.00000000000E+00 -0.00000000000E+00 -0.11587121797E+04  0.11587121797E+04  0.00000000000E+00 0. -1.
         23    2    1    2    0    0  0.13846023876E+02  0.12745148347E+03 -0.42046778703E+02  0.16390484447E+03  0.93065962761E+02 0.  0.
         23    2    1    2    0    0 -0.31558256322E+02 -0.13465676616E+03 -0.82232781596E+03  0.83866768104E+03  0.89510190019E+02 0.  0.
        -13    1    4    4    0    0  0.30271941995E+02 -0.62593686914E+02 -0.37112834611E+03  0.37758523462E+03  0.00000000000E+00 0. -1.
         13    1    4    4    0    0 -0.61830198317E+02 -0.72063079250E+02 -0.45119946985E+03  0.46108244643E+03  0.00000000000E+00 0.  1.
        -13    1    3    3    0    0 -0.18809071702E+02  0.11092606388E+03 -0.62070472489E+01  0.11268052299E+03  0.00000000000E+00 0.  1.
         13    1    3    3    0    0  0.32655095578E+02  0.16525419589E+02 -0.35839731454E+02  0.51224321475E+02  0.00000000000E+00 0. -1.
         21    1    1    2  502  503 -0.23106082276E+02  0.10933862151E+02 -0.15535881543E+03  0.15744777518E+03  0.00000000000E+00 0.  1.
         21    1    1    2  503  501  0.40818314722E+02 -0.37285794575E+01 -0.62733671064E+02  0.74936977565E+02  0.00000000000E+00 0. -1.
<scales pt_clust_5="13000.00000" pt_clust_6="13000.00000" pt_clust_7="13000.00000" pt_clust_8="13000.00000" pt_clust_9="25.56248" pt_clust_10="39.34430"></scales>
<clustering>
<clus scale="   25.562">  2  9  1 -1</clus>
<clus scale="   39.344">  1 10  2 -1</clus>
<clus scale="   89.510">  5  6 -1 -1</clus>
<clus scale="   93.066">  7  8 -1 -1</clus>
<clus scale="  161.164">  2  5  1 -1</clus>
<clus scale="   25.562">  2  5  1 -1</clus>
</clustering>
</event>
<event>
10    2  0.2445576E-006  0.1310272E+03  0.7546771E-02  0.1244460E+00
          1   -1    0    0  502    0  0.00000000000E+00  0.00000000000E+00  0.79681829808E+02  0.79681829808E+02  0.00000000000E+00 0. -1.
         -1   -1    0    0    0  501 -0.00000000000E+00 -0.00000000000E+00 -0.62589287274E+03  0.62589287274E+03  0.00000000000E+00 0.  1.
         23    2    1    2    0    0  0.17132371615E+02  0.10268977534E+03 -0.38964084750E+03  0.41266794899E+03  0.87384998490E+02 0.  0.
         23    2    1    2    0    0 -0.10026449190E+02  0.74539101222E+01 -0.20049083978E+02  0.92471262498E+02  0.89402897940E+02 0.  0.
        -13    1    3    3    0    0 -0.16340973090E+02  0.61991019307E+02 -0.10373298207E+03  0.12194443589E+03  0.00000000000E+00 0. -1.
         13    1    3    3    0    0  0.33473344706E+02  0.40698756037E+02 -0.28590786544E+03  0.29072351310E+03  0.00000000000E+00 0.  1.
        -13    1    4    4    0    0  0.30527528211E+02  0.27441522677E+02  0.40321639749E+01  0.41245914850E+02  0.00000000000E+00 0.  1.
         13    1    4    4    0    0 -0.40553977400E+02 -0.19987612555E+02 -0.24081247953E+02  0.51225347647E+02  0.00000000000E+00 0. -1.
         21    1    1    2  502  503  0.87023838835E+01 -0.21022825197E+02  0.12589685933E+02  0.26003670056E+02  0.00000000000E+00 0. -1.
         21    1    1    2  503  501 -0.15808306309E+02 -0.89120860270E+02 -0.14911079739E+03  0.17443182101E+03  0.00000000000E+00 0. -1.
<scales pt_clust_5="13000.00000" pt_clust_6="13000.00000" pt_clust_7="13000.00000" pt_clust_8="13000.00000" pt_clust_9="22.75282" pt_clust_10="97.63188"></scales>
<clustering>
<clus scale="   22.753">  1  9  2 -1</clus>
<clus scale="   87.385">  5  6 -1 -1</clus>
<clus scale="   89.403">  7  8 -1 -1</clus>
<clus scale="   89.680">  1  7  2 -1</clus>
<clus scale="   97.632">  1 10  2 -1</clus>
<clus scale="   22.753">  1  5  2 -1</clus>
</clustering>
</event>
<event>
10    2  0.2445576E-006  0.1394741E+03  0.7546771E-02  0.1219429E+00
         -3   -1    0    0    0  501 -0.00000000000E+00  0.00000000000E+00  0.11042563959E+03  0.11042563959E+03  0.00000000000E+00 0.  1.
          3   -1    0    0  502    0  0.00000000000E+00 -0.00000000000E+00 -0.36688082453E+03  0.36688082453E+03  0.00000000000E+00 0. -1.
         23    2    1    2    0    0  0.68105938950E+02  0.55727858407E+02  0.30775594059E+02  0.12813674686E+03  0.87908336258E+02 0.  0.
         23    2    1    2    0    0 -0.77112926936E+02 -0.45588123436E+02 -0.22794817314E+03  0.26771856203E+03  0.10811187870E+03 0.  0.
        -11    1    3    3    0    0  0.88329949143E+02  0.34290659594E+02  0.26237105762E+02  0.98317928018E+02  0.00000000000E+00 0.  1.
         11    1    3    3    0    0 -0.20224010192E+02  0.21437198813E+02  0.45384882975E+01  0.29818818844E+02  0.00000000000E+00 0. -1.
        -11    1    4    4    0    0  0.10969063603E+02  0.19048692420E+02 -0.85024331064E+02  0.87819758097E+02  0.00000000000E+00 0.  1.
         11    1    4    4    0    0 -0.88081990539E+02 -0.64636815856E+02 -0.14292384208E+03  0.17989880393E+03  0.00000000000E+00 0. -1.
         21    1    1    2  502  503 -0.17993348200E+02  0.10489577083E+02 -0.30427521500E+02  0.36873104988E+02  0.00000000000E+00 0. -1.
         21    1    1    2  503  501  0.27000336186E+02 -0.20629312054E+02 -0.28855084360E+02  0.44578050242E+02  0.00000000000E+00 0.  1.
<scales pt_clust_5="13000.00000" pt_clust_6="13000.00000" pt_clust_7="13000.00000" pt_clust_8="13000.00000" pt_clust_9="20.82767" pt_clust_10="31.70342"></scales>
<clustering>
<clus scale="   20.828">  2  9  1 -1</clus>
<clus scale="   31.703">  2 10  1 -1</clus>
<clus scale="   87.908">  5  6 -1 -1</clus>
<clus scale="  108.112">  7  8 -1 -1</clus>
<clus scale="  124.470">  1  5  2 -1</clus>
<clus scale="   20.828">  2  5  1 -1</clus>
</clustering>
</event>
<event>
10    2  0.2445576E-006  0.1842709E+03  0.7546771E-02  0.1166437E+00
          2   -1    0    0  502    0  0.00000000000E+00  0.00000000000E+00  0.30934978606E+03  0.30934978606E+03  0.00000000000E+00 0. -1.
         -2   -1    0    0    0  501 -0.00000000000E+00 -0.00000000000E+00 -0.25835721864E+03  0.25835721864E+03  0.00000000000E+00 0.  1.
         23    2    1    2    0    0  0.12315247937E+03 -0.99507780907E+00 -0.32964168051E+01  0.15445613829E+03  0.93157441648E+02 0.  0.
         23    2    1    2    0    0 -0.16130228033E+03  0.64769995663E+02  0.11278718716E+03  0.23578906708E+03  0.11252535975E+03 0.  0.
        -13    1    4    4    0    0 -0.32321401692E+02  0.69265398971E+02  0.56182656192E+02  0.94862317908E+02  0.00000000000E+00 0. -1.
         13    1    4    4    0    0 -0.12898087864E+03 -0.44954033081E+01  0.56604530964E+02  0.14092674917E+03  0.00000000000E+00 0.  1.
        -13    1    3    3    0    0  0.75910870638E+02  0.44293252372E+02  0.71744567249E+01  0.88180640256E+02  0.00000000000E+00 0. -1.
         13    1    3    3    0    0  0.47241608737E+02 -0.45288330181E+02 -0.10470873530E+02  0.66275498030E+02  0.00000000000E+00 0.  1.
         21    1    1    2  502  503  0.27046261191E+02  0.38007468661E+02  0.17636429537E+02  0.49870949111E+02  0.00000000000E+00 0. -1.
         21    1    1    2  503  501  0.11103539766E+02 -0.10178238651E+03 -0.76134632470E+02  0.12759085023E+03  0.00000000000E+00 0.  1.
<scales pt_clust_5="13000.00000" pt_clust_6="13000.00000" pt_clust_7="13000.00000" pt_clust_8="13000.00000" pt_clust_9="46.64834" pt_clust_10="99.17508"></scales>
<clustering>
<clus scale="   46.648">  1  9  2 -1</clus>
<clus scale="   93.157">  7  8 -1 -1</clus>
<clus scale="   99.175">  2 10  1 -1</clus>
<clus scale="  112.525">  5  6 -1 -1</clus>
<clus scale="  173.125">  2  7  1 -1</clus>
<clus scale="   46.648">  1  5  2 -1</clus>
</clustering>
</event>
<event>
10    2  0.2445576E-006  0.1813774E+03  0.7546771E-02  0.1180578E+00
          1   -1    0    0  502    0  0.00000000000E+00  0.00000000000E+00  0.16347045406E+04  0.16347045406E+04  0.00000000000E+00 0. -1.
         -1   -1    0    0    0  501 -0.00000000000E+00 -0.00000000000E+00 -0.24901123526E+03  0.24901123526E+03  0.00000000000E+00 0.  1.
         23    2    1    2    0    0 -0.96496022725E+02 -0.15859756699E+02 -0.18088334920E+03  0.23225218883E+03  0.10797814090E+03 0.  0.
         23    2    1    2    0    0  0.73571751380E+02 -0.13649928378E+03  0.69524841373E+03  0.71797159835E+03  0.89822058393E+02 0.  0.
        -13    1    3    3    0    0 -0.81012392410E+01 -0.46782882595E+02 -0.35356906675E+02  0.59197795827E+02  0.00000000000E+00 0. -1.
         13    1    3    3    0    0 -0.88394783484E+02  0.30923125896E+02 -0.14552644253E+03  0.17305439300E+03  0.00000000000E+00 0.  1.
        -13    1    4    4    0    0  0.51704441093E+02 -0.14634614091E+03  0.60438011528E+03  0.62399187970E+03  0.00000000000E+00 0.  1.
         13    1    4    4    0    0  0.21867310287E+02  0.98468571298E+01  0.90868298452E+02  0.93979718653E+02  0.00000000000E+00 0. -1.
         21    1    1    2  502  503 -0.62464076049E+01  0.16585543017E+03  0.88362578240E+03  0.89907817493E+03  0.00000000000E+00 0. -1.
         21    1    1    2  503  501  0.29170678949E+02 -0.13496389685E+02 -0.12297541617E+02  0.34413813719E+02  0.00000000000E+00 0. -1.
<scales pt_clust_5="13000.00000" pt_clust_6="13000.00000" pt_clust_7="13000.00000" pt_clust_8="13000.00000" pt_clust_9="157.57460" pt_clust_10="32.14158"></scales>
<clustering>
<clus scale="   32.142">  2 10  1 -1</clus>
<clus scale="   89.822">  7  8 -1 -1</clus>
<clus scale="  107.978">  5  6 -1 -1</clus>
<clus scale="  131.630">  2  5  1 -1</clus>
<clus scale="  157.575">  1  9  2 -1</clus>
<clus scale="  157.575">  1  5  2 -1</clus>
</clustering>
</event>
<event>
10    2  0.2445576E-006  0.1414992E+03  0.7546771E-02  0.1212582E+00
         -2   -1    0    0    0  501 -0.00000000000E+00  0.00000000000E+00  0.49542342924E+02  0.49542342924E+02  0.00000000000E+00 0.  1.
          2   -1    0    0  502    0  0.00000000000E+00 -0.00000000000E+00 -0.93423912124E+03  0.93423912124E+03  0.00000000000E+00 0. -1.
         23    2    1    2    0    0 -0.75467642156E+02  0.63220428478E+01 -0.97897091913E+02  0.15698825627E+03  0.96571935693E+02 0.  0.
         23    2    1    2    0    0  0.10726597602E+03 -0.22025103680E+02 -0.55114166453E+03  0.56923781770E+03  0.91013537003E+02 0.  0.
        -11    1    3    3    0    0 -0.97649063585E+02 -0.50057418601E+01 -0.76362675869E+02  0.12406311030E+03  0.00000000000E+00 0. -1.
         11    1    3    3    0    0  0.22181421430E+02  0.11327784708E+02 -0.21534416044E+02  0.32925145973E+02  0.00000000000E+00 0.  1.
        -13    1    4    4    0    0  0.16800192093E+02 -0.42068415427E+02 -0.12032992205E+03  0.12857405714E+03  0.00000000000E+00 0.  1.
         13    1    4    4    0    0  0.90465783923E+02  0.20043311747E+02 -0.43081174248E+03  0.44066376056E+03  0.00000000000E+00 0. -1.
         21    1    1    2  502  503 -0.37838583372E+00 -0.22958322305E+02 -0.18530504599E+03  0.18672222098E+03  0.00000000000E+00 0.  1.
         21    1    1    2  503  501 -0.31419948027E+02  0.38661383137E+02 -0.50352975883E+02  0.70833169210E+02  0.00000000000E+00 0.  1.
<scales pt_clust_5="13000.00000" pt_clust_6="13000.00000" pt_clust_7="13000.00000" pt_clust_8="13000.00000" pt_clust_9="22.96144" pt_clust_10="48.41011"></scales>
<clustering>
<clus scale="   22.961">  2  9  1 -1</clus>
<clus scale="   48.410">  1 10  2 -1</clus>
<clus scale="   91.014">  7  8 -1 -1</clus>
<clus scale="   96.572">  5  6 -1 -1</clus>
<clus scale="  137.766">  2  7  1 -1</clus>
<clus scale="   22.961">  2  5  1 -1</clus>
</clustering>
</event>
<event>
10    2  0.2445576E-006  0.9595923E+02  0.7546771E-02  0.1290247E+00
          1   -1    0    0  502    0  0.00000000000E+00  0.00000000000E+00  0.27751148372E+03  0.27751148372E+03  0.00000000000E+00 0. -1.
         -1   -1    0    0    0  501 -0.00000000000E+00 -0.00000000000E+00 -0.15165200943E+03  0.15165200943E+03  0.00000000000E+00 0.  1.
         23    2    1    2    0    0  0.17514616830E+02  0.21677976784E+01  0.57682125945E+00  0.92108050187E+02  0.90399662814E+02 0.  0.
         23    2    1    2    0    0 -0.28379264027E+02 -0.43676331415E+02  0.14762532566E+02  0.10340469905E+03  0.88099914110E+02 0.  0.
        -13    1    4    4    0    0 -0.15687039287E+02  0.22126564684E+02  0.23415893828E+02  0.35832557125E+02  0.00000000000E+00 0.  1.
         13    1    4    4    0    0 -0.12692224740E+02 -0.65802896099E+02 -0.86533612626E+01  0.67572141930E+02  0.00000000000E+00 0. -1.
        -13    1    3    3    0    0  0.11339794475E+02  0.22473993411E+02 -0.39452944637E+02  0.46799638451E+02  0.00000000000E+00 0.  1.
         13    1    3    3    0    0  0.61748223548E+01 -0.20306195733E+02  0.40029765897E+02  0.45308411736E+02  0.00000000000E+00 0. -1.
         21    1    1    2  502  503  0.58650349185E+02 -0.25782452013E+02  0.13341615606E+03  0.14800158441E+03  0.00000000000E+00 0. -1.
         21    1    1    2  503  501 -0.47785701987E+02  0.67290985749E+02 -0.22896035593E+02  0.85649159502E+02  0.00000000000E+00 0. -1.
<scales pt_clust_5="13000.00000" pt_clust_6="13000.00000" pt_clust_7="13000.00000" pt_clust_8="13000.00000" pt_clust_9="64.06714" pt_clust_10="70.32799"></scales>
<clustering>
<clus scale="   64.067">  1  9  2 -1</clus>
<clus scale="   70.328">  2 10  1 -1</clus>
<clus scale="   88.100">  5  6 -1 -1</clus>
<clus scale="   90.400">  7  8 -1 -1</clus>
<clus scale="   93.796">  1  5  2 -1</clus>
<clus scale="   64.067">  1  5  2 -1</clus>
</clustering>
</event>
<event>
10    2  0.2445576E-006  0.2591840E+03  0.7546771E-02  0.1108719E+00
         -1   -1    0    0    0  501 -0.00000000000E+00  0.00000000000E+00  0.16697094921E+03  0.16697094921E+03  0.00000000000E+00 0.  1.
          1   -1    0    0  502    0  0.00000000000E+00 -0.00000000000E+00 -0.62637602125E+03  0.62637602125E+03  0.00000000000E+00 0. -1.
         23    2    1    2    0    0  0.46700737434E+02  0.27179695430E+03 -0.10621667658E+03  0.30917869377E+03  0.90856695171E+02 0.  0.
         23    2    1    2    0    0 -0.35563568086E+02 -0.22663635059E+03 -0.28541686509E+03  0.37245773094E+03  0.68067405356E+02 0.  0.
        -11    1    4    4    0    0 -0.24949084867E+02 -0.17060676508E+03 -0.16237530141E+03  0.23684354253E+03  0.00000000000E+00 0.  1.
         11    1    4    4    0    0 -0.10614483218E+02 -0.56029585512E+02 -0.12304156367E+03  0.13561418841E+03  0.00000000000E+00 0. -1.
        -11    1    3    3    0    0  0.65475786419E+02  0.25730104738E+03 -0.89580287313E+02  0.28020623738E+03  0.00000000000E+00 0. -1.
         11    1    3    3    0    0 -0.18775048985E+02  0.14495906916E+02 -0.16636389266E+02  0.28972456394E+02  0.00000000000E+00 0.  1.
         21    1    1    2  502  503  0.24381044280E+02 -0.80710346614E+00 -0.43600584672E+02  0.49960961960E+02  0.00000000000E+00 0.  1.
         21    1    1    2  503  501 -0.35518213628E+02 -0.44353500235E+02 -0.24170945699E+02  0.61749583792E+02  0.00000000000E+00 0.  1.
<scales pt_clust_5="13000.00000" pt_clust_6="13000.00000" pt_clust_7="13000.00000" pt_clust_8="13000.00000" pt_clust_9="24.39440" pt_clust_10="55.75822"></scales>
<clustering>
<clus scale="   24.394">  2  9  1 -1</clus>
<clus scale="   55.758">  1 10  2 -1</clus>
<clus scale="   68.067">  5  6 -1 -1</clus>
<clus scale="   90.857">  7  8 -1 -1</clus>
<clus scale="  252.100">  2  5  1 -1</clus>
<clus scale="   24.394">  2  5  1 -1</clus>
</clustering>
</event>
<event>
10    2  0.2445576E-006  0.1023831E+03  0.7546771E-02  0.1278482E+00
          1   -1    0    0  502    0  0.00000000000E+00  0.00000000000E+00  0.37984558682E+03  0.37984558682E+03  0.00000000000E+00 0. -1.
         -1   -1    0    0    0  501 -0.00000000000E+00 -0.00000000000E+00 -0.29915759656E+03  0.29915759656E+03  0.00000000000E+00 0.  1.
         23    2    1    2    0    0 -0.20690738891E+02  0.39457050477E+01  0.28287136441E+02  0.10384824396E+03  0.97676099541E+02 0.  0.
         23    2    1    2    0    0 -0.56859615381E+02  0.41842530563E+02  0.91080313162E+02  0.14710986616E+03  0.91443294175E+02 0.  0.
        -13    1    3    3    0    0 -0.11429373594E+02  0.49241920073E+02  0.27632369548E+02  0.57610286582E+02  0.00000000000E+00 0.  1.
         13    1    3    3    0    0 -0.92613652969E+01 -0.45296215026E+02  0.65476689290E+00  0.46237957378E+02  0.00000000000E+00 0. -1.
        -13    1    4    4    0    0 -0.73271944583E+02  0.33982090892E+01  0.52265139504E+02  0.90066478200E+02  0.00000000000E+00 0.  1.
         13    1    4    4    0    0  0.16412329202E+02  0.38444321474E+02  0.38815173658E+02  0.57043387956E+02  0.00000000000E+00 0. -1.
         21    1    1    2  502  503 -0.13779814130E+02 -0.40206630007E+02  0.18318602582E+03  0.18805205777E+03  0.00000000000E+00 0.  1.
         21    1    1    2  503  501  0.91330168402E+02 -0.55816056044E+01 -0.22186548516E+03  0.23999301549E+03  0.00000000000E+00 0. -1.
<scales pt_clust_5="13000.00000" pt_clust_6="13000.00000" pt_clust_7="13000.00000" pt_clust_8="13000.00000" pt_clust_9="42.50243" pt_clust_10="90.99326"></scales>
<clustering>
<clus scale="   42.502">  1  9  2 -1</clus>
<clus scale="   90.993">  2 10  1 -1</clus>
<clus scale="   91.443">  7  8 -1 -1</clus>
<clus scale="   96.455">  1  7  2 -1</clus>
<clus scale="   97.676">  5  6 -1 -1</clus>
<clus scale="   42.502">  1  5  2 -1</clus>
</clustering>
</event>
<event>
10    2  0.2445576E-006  0.9539974E+02  0.7546771E-02  0.1290424E+00
         -1   -1    0    0    0  501 -0.00000000000E+00  0.00000000000E+00  0.60093606692E+02  0.60093606692E+02  0.00000000000E+00 0.  1.
          1   -1    0    0  502    0  0.00000000000E+00 -0.00000000000E+00 -0.44947204807E+03  0.44947204807E+03  0.00000000000E+00 0. -1.
         23    2    1    2    0    0  0.58427975558E+02 -0.12960627642E+02 -0.11958233076E+03  0.16134996735E+03  0.90288825109E+02 0.  0.
         23    2    1    2    0    0  0.37651763502E+01 -0.47660202762E+01 -0.20077700144E+03  0.22011553641E+03  0.90014185322E+02 0.  0.
        -11    1    4    4    0    0  0.28974815899E+02 -0.38345637698E+02 -0.11382442370E+03  0.12355536134E+03  0.00000000000E+00 0. -1.
         11    1    4    4    0    0 -0.25209639549E+02  0.33579617422E+02 -0.86952577746E+02  0.96560175068E+02  0.00000000000E+00 0.  1.
        -11    1    3    3    0    0  0.66584504866E+02  0.78419734665E+01 -0.12165844321E+03  0.13890921367E+03  0.00000000000E+00 0. -1.
         11    1    3    3    0    0 -0.81565293076E+01 -0.20802601108E+02  0.20761124573E+01  0.22440753689E+02  0.00000000000E+00 0.  1.
         21    1    1    2  502  503 -0.46538683125E+02  0.34200551137E+01 -0.88020913201E+02  0.99625433323E+02  0.00000000000E+00 0.  1.
         21    1    1    2  503  501 -0.15654468783E+02  0.14306592804E+02  0.19001804021E+02  0.28474717674E+02  0.00000000000E+00 0.  1.
<scales pt_clust_5="13000.00000" pt_clust_6="13000.00000" pt_clust_7="13000.00000" pt_clust_8="13000.00000" pt_clust_9="49.36767" pt_clust_10="21.20710"></scales>
<clustering>
<clus scale="   21.207">  1 10  2 -1</clus>
<clus scale="   49.368">  2  9  1 -1</clus>
<clus scale="   90.014">  5  6 -1 -1</clus>
<clus scale="   90.289">  7  8 -1 -1</clus>
<clus scale="   95.140">  2  5  1 -1</clus>
<clus scale="   49.368">  2  5  1 -1</clus>
</clustering>
</event>
<event>
10    2  0.2445576E-006  0.1385771E+03  0.7546771E-02  0.1216498E+00
          2   -1    0    0  502    0  0.00000000000E+00  0.00000000000E+00  0.25389151561E+03  0.25389151561E+03  0.00000000000E+00 0. -1.
         -2   -1    0    0    0  501 -0.00000000000E+00 -0.00000000000E+00 -0.18568384240E+03  0.18568384240E+03  0.00000000000E+00 0.  1.
         23    2    1    2    0    0  0.43750594491E+02  0.63175968646E+02 -0.58054244711E+02  0.13620373558E+03  0.96311186914E+02 0.  0.
         23    2    1    2    0    0 -0.70539768833E+02 -0.10172876348E+03  0.11511674187E+03  0.19201545032E+03  0.91068483002E+02 0.  0.
        -11    1    3    3    0    0  0.36184534753E+02  0.88767138026E+02 -0.39379988580E+02  0.10363256655E+03  0.00000000000E+00 0.  1.
         11    1    3    3    0    0  0.75660597383E+01 -0.25591169380E+02 -0.18674256132E+02  0.32571169035E+02  0.00000000000E+00 0. -1.
        -11    1    4    4    0    0 -0.38559627740E+02 -0.32727936996E+02 -0.39529055707E+01  0.50730545176E+02  0.00000000000E+00 0.  1.
         11    1    4    4    0    0 -0.31980141094E+02 -0.69000826482E+02  0.11906964744E+03  0.14128490514E+03  0.00000000000E+00 0. -1.
         21    1    1    2  502  503 -0.71576663767E+01  0.34776943824E+02  0.48908388213E+02  0.60437558250E+02  0.00000000000E+00 0. -1.
         21    1    1    2  503  501  0.33946840719E+02  0.37758510084E+01 -0.37763212160E+02  0.50918613868E+02  0.00000000000E+00 0.  1.
<scales pt_clust_5="13000.00000" pt_clust_6="13000.00000" pt_clust_7="13000.00000" pt_clust_8="13000.00000" pt_clust_9="35.40480" pt_clust_10="34.15619"></scales>
<clustering>
<clus scale="   34.156">  2 10  1 -1</clus>
<clus scale="   35.405">  1  9  2 -1</clus>
<clus scale="   91.068">  7  8 -1 -1</clus>
<clus scale="   96.311">  5  6 -1 -1</clus>
<clus scale="  134.986">  1  7  2 -1</clus>
<clus scale="   35.405">  1  5  2 -1</clus>
</clustering>
</event>
<event>
10    2  0.2445576E-006  0.3481042E+03  0.7546771E-02  0.1063405E+00
         -2   -1    0    0    0  501 -0.00000000000E+00  0.00000000000E+00  0.23393175511E+03  0.23393175511E+03  0.00000000000E+00 0.  1.
          2   -1    0    0  502    0  0.00000000000E+00 -0.00000000000E+00 -0.14284796397E+04  0.14284796397E+04  0.00000000000E+00 0. -1.
         23    2    1    2    0    0 -0.86549572713E+02  0.30235003296E+03 -0.10825860237E+03  0.34489852210E+03  0.91261681949E+02 0.  0.
         23    2    1    2    0    0  0.73769435320E+02 -0.33102761021E+03 -0.11092772058E+04  0.11635746545E+04  0.91590659456E+02 0.  0.
        -11    1    4    4    0    0 -0.99341408459E+01 -0.12517420117E+03 -0.32470048311E+03  0.34813455951E+03  0.00000000000E+00 0.  1.
         11    1    4    4    0    0  0.83703576166E+02 -0.20585340905E+03 -0.78457672272E+03  0.81544009499E+03  0.00000000000E+00 0. -1.
        -13    1    3    3    0    0 -0.69110389760E+02  0.99780492626E+02 -0.19021784460E+02  0.12285854047E+03  0.00000000000E+00 0. -1.
         13    1    3    3    0    0 -0.17439182953E+02  0.20256954034E+03 -0.89236817914E+02  0.22203998164E+03  0.00000000000E+00 0.  1.
         21    1    1    2  502  503 -0.19931957864E+02 -0.69044397995E+01 -0.56834503282E+02  0.60622726733E+02  0.00000000000E+00 0. -1.
         21    1    1    2  503  501  0.32712095256E+02  0.35582017050E+02  0.79822426898E+02  0.93315491476E+02  0.00000000000E+00 0.  1.
<scales pt_clust_5="13000.00000" pt_clust_6="13000.00000" pt_clust_7="13000.00000" pt_clust_8="13000.00000" pt_clust_9="21.09394" pt_clust_10="48.24240"></scales>
<clustering>
<clus scale="   21.094">  2  9  1 -1</clus>
<clus scale="   48.242">  1 10  2 -1</clus>
<clus scale="   91.262">  7  8 -1 -1</clus>
<clus scale="   91.591">  5  6 -1 -1</clus>
<clus scale="  348.018">  1  7  2 -1</clus>
<clus scale="   21.094">  2  5  1 -1</clus>
</clustering>
</event>
<event>
10    2  0.2445576E-006  0.1218291E+03  0.7546771E-02  0.1240640E+00
         -1   -1    0    0    0  501 -0.00000000000E+00  0.00000000000E+00  0.37650765565E+02  0.37650765565E+02  0.00000000000E+00 0.  1.
          1   -1    0    0  502    0  0.00000000000E+00 -0.00000000000E+00 -0.87671732274E+03  0.87671732274E+03  0.00000000000E+00 0. -1.
         23    2    1    2    0    0  0.40606886323E+02 -0.11024386063E+03 -0.25329452623E+03  0.29292682671E+03  0.88574154049E+02 0.  0.
         23    2    1    2    0    0 -0.34649093167E+02  0.38184093973E+02 -0.24215229468E+03  0.26354860448E+03  0.90341288544E+02 0.  0.
        -13    1    4    4    0    0 -0.86248011904E+01 -0.28236841424E+02 -0.44379785723E+02  0.53303581399E+02  0.00000000000E+00 0.  1.
         13    1    4    4    0    0 -0.26024291976E+02  0.66420935397E+02 -0.19777250896E+03  0.21024502309E+03  0.00000000000E+00 0. -1.
        -13    1    3    3    0    0  0.61386812113E+02 -0.10428203730E+03 -0.18305823677E+03  0.21943883443E+03  0.00000000000E+00 0.  1.
         13    1    3    3    0    0 -0.20779925790E+02 -0.59618233336E+01 -0.70236289458E+02  0.73487992285E+02  0.00000000000E+00 0. -1.
         21    1    1    2  502  503  0.16351273432E+02  0.61941458446E+02 -0.30845024744E+03  0.31503279760E+03  0.00000000000E+00 0.  1.
         21    1    1    2  503  501 -0.22309066588E+02  0.10118308214E+02 -0.35169488818E+02  0.42859859506E+02  0.00000000000E+00 0. -1.
<scales pt_clust_5="13000.00000" pt_clust_6="13000.00000" pt_clust_7="13000.00000" pt_clust_8="13000.00000" pt_clust_9="64.50430" pt_clust_10="24.49642"></scales>
<clustering>
<clus scale="   24.496">  1 10  2 -1</clus>
<clus scale="   64.504">  2  9  1 -1</clus>
<clus scale="   88.574">  7  8 -1 -1</clus>
<clus scale="   90.341">  5  6 -1 -1</clus>
<clus scale="  120.525">  1  7  2 -1</clus>
<clus scale="   64.504">  2  5  1 -1</clus>
</clustering>
</event>
<event>
10    2  0.2445576E-006  0.9509384E+02  0.7546771E-02  0.1293698E+00
         -1   -1    0    0    0  501 -0.00000000000E+00  0.00000000000E+00  0.52209857134E+03  0.52209857134E+03  0.00000000000E+00 0.  1.
          1   -1    0    0  502    0  0.00000000000E+00 -0.00000000000E+00 -0.54669871359E+02  0.54669871359E+02  0.00000000000E+00 0. -1.
         23    2    1    2    0    0 -0.18035906095E+02 -0.19270457533E+02  0.29037611815E+03  0.30456457159E+03  0.88003658066E+02 0.  0.
         23    2    1    2    0    0  0.42183915006E+02 -0.11390863844E+02  0.13026453488E+03  0.16583006292E+03  0.92852174215E+02 0.  0.
        -11    1    3    3    0    0  0.14805570764E+02 -0.40419005434E+02  0.21908270672E+03  0.22327143415E+03  0.00000000000E+00 0.  1.
         11    1    3    3    0    0 -0.32841476859E+02  0.21148547901E+02  0.71293411438E+02  0.81293137441E+02  0.00000000000E+00 0. -1.
        -13    1    4    4    0    0  0.38081033668E+02  0.22805546486E+02  0.17145400073E+02  0.47583850405E+02  0.00000000000E+00 0. -1.
         13    1    4    4    0    0  0.41028813378E+01 -0.34196410329E+02  0.11311913481E+03  0.11824621252E+03  0.00000000000E+00 0.  1.
         21    1    1    2  502  503 -0.46179992546E+02  0.31063284636E+02  0.11191324704E+01  0.55666613166E+02  0.00000000000E+00 0. -1.
         21    1    1    2  503  501  0.22031983635E+02 -0.40196325905E+00  0.45668914473E+02  0.50707195018E+02  0.00000000000E+00 0.  1.
<scales pt_clust_5="13000.00000" pt_clust_6="13000.00000" pt_clust_7="13000.00000" pt_clust_8="13000.00000" pt_clust_9="54.55138" pt_clust_10="22.03565"></scales>
<clustering>
<clus scale="   22.036">  1 10  2 -1</clus>
<clus scale="   54.551">  2  9  1 -1</clus>
<clus scale="   88.004">  5  6 -1 -1</clus>
<clus scale="   90.366">  1  5  2 -1</clus>
<clus scale="   92.852">  7  8 -1 -1</clus>
<clus scale="   54.551">  2  5  1 -1</clus>
</clustering>
</event>
<event>
10    2  0.2445576E-006  0.1221460E+03  0.7546771E-02  0.1240662E+00
         -1   -1    0    0    0  501 -0.00000000000E+00  0.00000000000E+00  0.12839932590E+03  0.12839932590E+03  0.00000000000E+00 0.  1.
          1   -1    0    0  502    0  0.00000000000E+00 -0.00000000000E+00 -0.41631766808E+03  0.41631766808E+03  0.00000000000E+00 0. -1.
         23    2    1    2    0    0 -0.81358549889E+02 -0.65471713255E+02 -0.10159303976E+03  0.17068483704E+03  0.88917990247E+02 0.  0.
         23    2    1    2    0    0  0.79052035862E+02  0.15283749048E+02 -0.14030000871E+03  0.18628992297E+03  0.92396025871E+02 0.  0.
        -11    1    4    4    0    0 -0.91189214644E+00  0.32140745127E+02 -0.75276373167E+02  0.81855918551E+02  0.00000000000E+00 0.  1.
         11    1    4    4    0    0  0.79963928009E+02 -0.16856996079E+02 -0.65023635540E+02  0.10443400442E+03  0.00000000000E+00 0. -1.
        -13    1    3    3    0    0 -0.78402763188E+02 -0.26127404528E+02 -0.28131673927E+02  0.87298485787E+02  0.00000000000E+00 0.  1.
         13    1    3    3    0    0 -0.29557867011E+01 -0.39344308728E+02 -0.73461365836E+02  0.83386351250E+02  0.00000000000E+00 0. -1.
         21    1    1    2  502  503 -0.32834481432E+02 -0.70721389192E+01 -0.97489153886E+02  0.10311281902E+03  0.00000000000E+00 0.  1.
         21    1    1    2  503  501  0.35140995459E+02  0.57260103127E+02  0.51463860176E+02  0.84629414958E+02  0.00000000000E+00 0.  1.
<scales pt_clust_5="13000.00000" pt_clust_6="13000.00000" pt_clust_7="13000.00000" pt_clust_8="13000.00000" pt_clust_9="33.58747" pt_clust_10="65.97820"></scales>
<clustering>
<clus scale="   33.587">  2  9  1 -1</clus>
<clus scale="   65.978">  1 10  2 -1</clus>
<clus scale="   88.918">  7  8 -1 -1</clus>
<clus scale="   92.396">  5  6 -1 -1</clus>
<clus scale="  119.537">  1  7  2 -1</clus>
<clus scale="   33.587">  2  5  1 -1</clus>
</clustering>
</event>
<event>
10    2  0.2445576E-006  0.2168843E+03  0.7546771E-02  0.1137497E+00
          1   -1    0    0  502    0  0.00000000000E+00  0.00000000000E+00  0.17425954509E+03  0.17425954509E+03  0.00000000000E+00 0. -1.
         -1   -1    0    0    0  501 -0.00000000000E+00 -0.00000000000E+00 -0.39422865484E+03  0.39422865484E+03  0.00000000000E+00 0.  1.
         23    2    1    2    0    0  0.16704072207E+03 -0.93306056555E+02 -0.14729032137E+03  0.25309145821E+03  0.75843420484E+02 0.  0.
         23    2    1    2    0    0 -0.20273225531E+03  0.66104366146E+02 -0.47844531087E+02  0.23732046542E+03  0.92529722725E+02 0.  0.
        -11    1    4    4    0    0 -0.18956071221E+03  0.81686717379E+02 -0.27031587904E+02  0.20817466261E+03  0.00000000000E+00 0. -1.
         11    1    4    4    0    0 -0.13171543101E+02 -0.15582351233E+02 -0.20812943182E+02  0.29145802811E+02  0.00000000000E+00 0.  1.
        -13    1    3    3    0    0  0.16203994449E+03 -0.63587801433E+02 -0.13604113296E+03  0.22092429011E+03  0.00000000000E+00 0. -1.
         13    1    3    3    0    0  0.50007775757E+01 -0.29718255122E+02 -0.11249188407E+02  0.32167168101E+02  0.00000000000E+00 0.  1.
         21    1    1    2  502  503  0.31789007699E+02 -0.44699020847E+01  0.71576109817E+01  0.32890005018E+02  0.00000000000E+00 0. -1.
         21    1    1    2  503  501  0.39025255422E+01  0.31671592494E+02 -0.31991868275E+02  0.45186271283E+02  0.00000000000E+00 0. -1.
<scales pt_clust_5="13000.00000" pt_clust_6="13000.00000" pt_clust_7="13000.00000" pt_clust_8="13000.00000" pt_clust_9="32.10275" pt_clust_10="31.91112"></scales>
<clustering>
<clus scale="   31.911">  2 10  1 -1</clus>
<clus scale="   32.103">  1  9  2 -1</clus>
<clus scale="   75.843">  7  8 -1 -1</clus>
<clus scale="   92.530">  5  6 -1 -1</clus>
<clus scale="  210.308">  2  7  1 -1</clus>
<clus scale="   32.103">  1  5  2 -1</clus>
</clustering>
</event>
<event>
10    2  0.2445576E-006  0.1594095E+03  0.7546771E-02  0.1191095E+00
          1   -1    0    0  503    0  0.00000000000E+00  0.00000000000E+00  0.28239139888E+03  0.28239139888E+03  0.00000000000E+00 0. -1.
         -1   -1    0    0    0  501 -0.00000000000E+00 -0.00000000000E+00 -0.18797077400E+03  0.18797077400E+03  0.00000000000E+00 0.  1.
         23    2    1    2    0    0 -0.86962448635E+02  0.78034626048E+02 -0.96106060081E+01  0.15554983152E+03  0.10223265624E+03 0.  0.
         23    2    1    2    0    0  0.10576584324E+03 -0.66320499624E+02  0.16390649342E+03  0.22590340342E+03  0.92640092978E+02 0.  0.
        -11    1    3    3    0    0 -0.34555665408E+02 -0.22718565940E+02 -0.70603880366E+01  0.41953263632E+02  0.00000000000E+00 0.  1.
         11    1    3    3    0    0 -0.52406783227E+02  0.10075319199E+03 -0.25502179715E+01  0.11359656789E+03  0.00000000000E+00 0. -1.
        -13    1    4    4    0    0  0.37548540177E+02 -0.73735319422E+02  0.63562615239E+02  0.10434076986E+03  0.00000000000E+00 0.  1.
         13    1    4    4    0    0  0.68217303066E+02  0.74148197980E+01  0.10034387818E+03  0.12156263356E+03  0.00000000000E+00 0. -1.
         21    1    1    2  502  501 -0.15541494205E+02  0.18152712874E+02 -0.23522074340E+01  0.24012328222E+02  0.00000000000E+00 0.  1.
         21    1    1    2  503  502 -0.32619004022E+01 -0.29866839298E+02 -0.57523055101E+02  0.64896609711E+02  0.00000000000E+00 0.  1.
<scales pt_clust_5="13000.00000" pt_clust_6="13000.00000" pt_clust_7="13000.00000" pt_clust_8="13000.00000" pt_clust_9="23.89684" pt_clust_10="25.06953"></scales>
<clustering>
<clus scale="   23.897">  2  9  1 -1</clus>
<clus scale="   25.070">  2 10  1 -1</clus>
<clus scale="   92.640">  7  8 -1 -1</clus>
<clus scale="  102.233">  5  6 -1 -1</clus>
<clus scale="  153.434">  1  7  2 -1</clus>
<clus scale="  153.434">  1  5  2 -1</clus>
</clustering>
</event>
<event>
10    2  0.2445576E-006  0.9666278E+02  0.7546771E-02  0.1290490E+00
         -2   -1    0    0    0  501 -0.00000000000E+00  0.00000000000E+00  0.30535417258E+02  0.30535417258E+02  0.00000000000E+00 0.  1.
          2   -1    0    0  502    0  0.00000000000E+00 -0.00000000000E+00 -0.67024770840E+03  0.67024770840E+03  0.00000000000E+00 0. -1.
         23    2    1    2    0    0 -0.41085147070E+02  0.19003940610E+02 -0.19952336114E+03  0.22206677274E+03  0.86341999329E+02 0.  0.
         23    2    1    2    0    0  0.17272150068E+02  0.36223134017E+02 -0.32003671981E+03  0.33539297615E+03  0.91948375835E+02 0.  0.
        -11    1    3    3    0    0  0.12858219809E+02  0.21899272676E+02 -0.14338475708E+02  0.29163399082E+02  0.00000000000E+00 0.  1.
         11    1    3    3    0    0 -0.53943366880E+02 -0.28953320664E+01 -0.18518488543E+03  0.19290337366E+03  0.00000000000E+00 0. -1.
        -11    1    4    4    0    0  0.53853230987E+02  0.20683732244E+02 -0.22713564737E+03  0.23434715611E+03  0.00000000000E+00 0. -1.
         11    1    4    4    0    0 -0.36581080919E+02  0.15539401774E+02 -0.92901072438E+02  0.10104582005E+03  0.00000000000E+00 0.  1.
         21    1    1    2  502  503  0.87685469776E+01 -0.33300733964E+02 -0.10931128541E+03  0.11460708275E+03  0.00000000000E+00 0. -1.
         21    1    1    2  503  501  0.15044450025E+02 -0.21926340663E+02 -0.10840924777E+02  0.28716294006E+02  0.00000000000E+00 0. -1.
<scales pt_clust_5="13000.00000" pt_clust_6="13000.00000" pt_clust_7="13000.00000" pt_clust_8="13000.00000" pt_clust_9="37.52117" pt_clust_10="26.59135"></scales>
<clustering>
<clus scale="   26.591">  1 10  2 -1</clus>
<clus scale="   37.521">  2  9  1 -1</clus>
<clus scale="   86.342">  5  6 -1 -1</clus>
<clus scale="   91.346">  1  5  2 -1</clus>
<clus scale="   91.948">  7  8 -1 -1</clus>
<clus scale="   37.521">  2  5  1 -1</clus>
</clustering>
</event>
<event>
10    2  0.2445576E-006  0.1094482E+03  0.7546771E-02  0.1261678E+00
          1   -1    0    0  502    0  0.00000000000E+00  0.00000000000E+00  0.53047333766E+03  0.53047333766E+03  0.00000000000E+00 0. -1.
         -1   -1    0    0    0  501 -0.00000000000E+00 -0.00000000000E+00 -0.26403376562E+03  0.26403376562E+03  0.00000000000E+00 0.  1.
         23    2    1    2    0    0  0.71293326115E+02  0.10776401291E+02 -0.11402709462E+03  0.16206959731E+03  0.89808167176E+02 0.  0.
         23    2    1    2    0    0 -0.98761454602E+02 -0.11598329331E+02  0.84194593326E+02  0.15837129267E+03  0.90024389130E+02 0.  0.
        -11    1    3    3    0    0  0.71332741698E+02  0.34925082305E+02 -0.50528794223E+02  0.94134374475E+02  0.00000000000E+00 0.  1.
         11    1    3    3    0    0 -0.39415582857E-01 -0.24148681015E+02 -0.63498300398E+02  0.67935222836E+02  0.00000000000E+00 0. -1.
        -13    1    4    4    0    0 -0.39915825117E+02  0.15079874938E+02  0.83484445404E+02  0.93756750943E+02  0.00000000000E+00 0. -1.
         13    1    4    4    0    0 -0.58845629486E+02 -0.26678204269E+02  0.71014792193E+00  0.64614541728E+02  0.00000000000E+00 0.  1.
         21    1    1    2  502  503  0.52844856608E+02 -0.11097983528E+02  0.38100649750E+03  0.38481384492E+03  0.00000000000E+00 0. -1.
         21    1    1    2  503  501 -0.25376728121E+02  0.11919911569E+02 -0.84734424168E+02  0.89252368378E+02  0.00000000000E+00 0.  1.
<scales pt_clust_5="13000.00000" pt_clust_6="13000.00000" pt_clust_7="13000.00000" pt_clust_8="13000.00000" pt_clust_9="53.70429" pt_clust_10="28.03681"></scales>
<clustering>
<clus scale="   28.037">  2 10  1 -1</clus>
<clus scale="   53.704">  1  9  2 -1</clus>
<clus scale="   89.808">  5  6 -1 -1</clus>
<clus scale="   90.024">  7  8 -1 -1</clus>
<clus scale="  109.270">  2  5  1 -1</clus>
<clus scale="   53.704">  1  5  2 -1</clus>
</clustering>
</event>
<event>
10    2  0.2445576E-006  0.9640440E+02  0.7546771E-02  0.1288287E+00
         -1   -1    0    0    0  501 -0.00000000000E+00  0.00000000000E+00  0.10804880816E+03  0.10804880816E+03  0.00000000000E+00 0.  1.
          1   -1    0    0  502    0  0.00000000000E+00 -0.00000000000E+00 -0.40336352990E+03  0.40336352990E+03  0.00000000000E+00 0. -1.
         23    2    1    2    0    0  0.65790039387E+02  0.15096041357E+01  0.31562441994E+02  0.11637003445E+03  0.90637679720E+02 0.  0.
         23    2    1    2    0    0 -0.19162537858E+01  0.26995978062E+01 -0.21452408602E+03  0.23272758946E+03  0.90169770733E+02 0.  0.
        -11    1    4    4    0    0 -0.40481729678E+02  0.21822750273E+02 -0.91848683745E+02  0.10271895430E+03  0.00000000000E+00 0. -1.
         11    1    4    4    0    0  0.38565475892E+02 -0.19123152467E+02 -0.12267540228E+03  0.13000863516E+03  0.00000000000E+00 0.  1.
        -13    1    3    3    0    0  0.17745636667E+02 -0.27894943251E+02 -0.21130944906E+02  0.39237129257E+02  0.00000000000E+00 0. -1.
         13    1    3    3    0    0  0.48044402720E+02  0.29404547387E+02  0.52693386900E+02  0.77132905188E+02  0.00000000000E+00 0.  1.
         21    1    1    2  502  503 -0.31044913033E+02  0.88303552097E+01 -0.12159186575E+03  0.12580279653E+03  0.00000000000E+00 0. -1.
         21    1    1    2  503  501 -0.32828872568E+02 -0.13039557152E+02  0.92387880370E+01  0.36511917632E+02  0.00000000000E+00 0. -1.
<scales pt_clust_5="13000.00000" pt_clust_6="13000.00000" pt_clust_7="13000.00000" pt_clust_8="13000.00000" pt_clust_9="32.27633" pt_clust_10="36.58419"></scales>
<clustering>
<clus scale="   32.276">  2  9  1 -1</clus>
<clus scale="   36.584">  1 10  2 -1</clus>
<clus scale="   90.170">  5  6 -1 -1</clus>
<clus scale="   90.638">  7  8 -1 -1</clus>
<clus scale="   95.965">  2  5  1 -1</clus>
<clus scale="   32.276">  2  5  1 -1</clus>
</clustering>
</event>
<event>
10    2  0.2445576E-006  0.9412918E+02  0.7546771E-02  0.1294650E+00
         -1   -1    0    0    0  501 -0.00000000000E+00  0.00000000000E+00  0.18484624938E+03  0.18484624938E+03  0.00000000000E+00 0.  1.
          1   -1    0    0  502    0  0.00000000000E+00 -0.00000000000E+00 -0.21857304828E+03  0.21857304828E+03  0.00000000000E+00 0. -1.
         23    2    1    2    0    0  0.26004504779E+02  0.15523426368E+01  0.25872796142E+02  0.97927103799E+02  0.90783655147E+02 0.  0.
         23    2    1    2    0    0 -0.11394211112E+02  0.43044439300E+02 -0.62750978790E+02  0.11696433954E+03  0.88092676101E+02 0.  0.
        -11    1    3    3    0    0  0.17377604077E+02  0.42195567874E+02  0.32267025576E+02  0.55889247724E+02  0.00000000000E+00 0. -1.
         11    1    3    3    0    0  0.86269007023E+01 -0.40643225237E+02 -0.63942294336E+01  0.42037856076E+02  0.00000000000E+00 0.  1.
        -13    1    4    4    0    0  0.10530411503E+02  0.61641569465E+02 -0.62212286888E+02  0.88209643987E+02  0.00000000000E+00 0. -1.
         13    1    4    4    0    0 -0.21924622616E+02 -0.18597130164E+02 -0.53869190191E+00  0.28754695550E+02  0.00000000000E+00 0.  1.
         21    1    1    2  502  503 -0.11750880430E+01 -0.26611875018E+02 -0.89404468450E+02  0.93288432845E+02  0.00000000000E+00 0. -1.
         21    1    1    2  503  501 -0.13435205624E+02 -0.17984906919E+02  0.92555852204E+02  0.95239421482E+02  0.00000000000E+00 0.  1.
<scales pt_clust_5="13000.00000" pt_clust_6="13000.00000" pt_clust_7="13000.00000" pt_clust_8="13000.00000" pt_clust_9="27.03546" pt_clust_10="22.44909"></scales>
<clustering>
<clus scale="   22.449">  1 10  2 -1</clus>
<clus scale="   27.035">  2  9  1 -1</clus>
<clus scale="   88.093">  7  8 -1 -1</clus>
<clus scale="   90.784">  5  6 -1 -1</clus>
<clus scale="   91.537">  2  7  1 -1</clus>
<clus scale="   27.035">  2  5  1 -1</clus>
</clustering>
</event>
<event>
10    2  0.2445576E-006  0.1110267E+03  0.7546771E-02  0.1260540E+00
         -2   -1    0    0    0  501 -0.00000000000E+00  0.00000000000E+00  0.14836081891E+03  0.14836081891E+03  0.00000000000E+00 0.  1.
          2   -1    0    0  502    0  0.00000000000E+00 -0.00000000000E+00 -0.24799757651E+03  0.24799757651E+03  0.00000000000E+00 0. -1.
         23    2    1    2    0    0  0.11971024516E+02  0.49669469969E+02 -0.44864597314E+02  0.11471293832E+03  0.92389742131E+02 0.  0.
         23    2    1    2    0    0 -0.28400665032E+02 -0.59048842225E+02 -0.79189998007E+02  0.14131452649E+03  0.96981318156E+02 0.  0.
        -13    1    4    4    0    0 -0.38431712763E+01 -0.63535495264E+02 -0.59408838839E+01  0.63928266247E+02  0.00000000000E+00 0.  1.
         13    1    4    4    0    0 -0.24557493756E+02  0.44866530399E+01 -0.73249114123E+02  0.77386260246E+02  0.00000000000E+00 0. -1.
        -13    1    3    3    0    0 -0.26849377538E+02 -0.12305222841E+02 -0.12414649599E+01  0.29560933994E+02  0.00000000000E+00 0.  1.
         13    1    3    3    0    0  0.38820402054E+02  0.61974692809E+02 -0.43623132354E+02  0.85152004327E+02  0.00000000000E+00 0. -1.
         21    1    1    2  502  503  0.40701470885E+02  0.21428981792E+02 -0.45894308669E+02  0.64977677406E+02  0.00000000000E+00 0. -1.
         21    1    1    2  503  501 -0.24271830370E+02 -0.12049609536E+02  0.70312146384E+02  0.75353253205E+02  0.00000000000E+00 0. -1.
<scales pt_clust_5="13000.00000" pt_clust_6="13000.00000" pt_clust_7="13000.00000" pt_clust_8="13000.00000" pt_clust_9="42.57560" pt_clust_10="27.09824"></scales>
<clustering>
<clus scale="   27.098">  1 10  2 -1</clus>
<clus scale="   42.576">  2  9  1 -1</clus>
<clus scale="   92.390">  7  8 -1 -1</clus>
<clus scale="   96.981">  5  6 -1 -1</clus>
<clus scale="  107.039">  1  7  2 -1</clus>
<clus scale="   42.576">  2  5  1 -1</clus>
</clustering>
</event>
<event>
10    2  0.2445576E-006  0.9600128E+02  0.7546771E-02  0.1289645E+00
          1   -1    0    0  503    0  0.00000000000E+00  0.00000000000E+00  0.16510791709E+03  0.16510791709E+03  0.00000000000E+00 0. -1.
         -1   -1    0    0    0  501 -0.00000000000E+00 -0.00000000000E+00 -0.23402158980E+03  0.23402158980E+03  0.00000000000E+00 0.  1.
         23    2    1    2    0    0 -0.37891425733E+01  0.14044671563E+02  0.23363750035E+02  0.95721271909E+02  0.91679259810E+02 0.  0.
         23    2    1    2    0    0  0.20210479727E+02 -0.32851064199E+02  0.69916729618E+02  0.12057961548E+03  0.90351749732E+02 0.  0.
        -11    1    4    4    0    0  0.13000229293E+01 -0.42283525862E+02 -0.51308254094E+01  0.42613518845E+02  0.00000000000E+00 0.  1.
         11    1    4    4    0    0  0.18910456798E+02  0.94324616627E+01  0.75047555028E+02  0.77966096638E+02  0.00000000000E+00 0. -1.
        -13    1    3    3    0    0  0.37161782999E+02  0.26128242923E+02  0.27040850052E+02  0.52866726449E+02  0.00000000000E+00 0.  1.
         13    1    3    3    0    0 -0.40950925572E+02 -0.12083571360E+02 -0.36771000174E+01  0.42854545460E+02  0.00000000000E+00 0. -1.
         21    1    1    2  502  501  0.14324700024E+02  0.22267633930E+02 -0.11287590064E+02  0.28782881042E+02  0.00000000000E+00 0.  1.
         21    1    1    2  503  502 -0.30746037178E+02 -0.34612412946E+01 -0.15090656229E+03  0.15404573845E+03  0.00000000000E+00 0.  1.
<scales pt_clust_5="13000.00000" pt_clust_6="13000.00000" pt_clust_7="13000.00000" pt_clust_8="13000.00000" pt_clust_9="26.47725" pt_clust_10="23.99473"></scales>
<clustering>
<clus scale="   26.477">  2  9  1 -1</clus>
<clus scale="   23.995">  2 10  1 -1</clus>
<clus scale="   90.352">  5  6 -1 -1</clus>
<clus scale="   91.679">  7  8 -1 -1</clus>
<clus scale="   94.734">  1  5  2 -1</clus>
<clus scale="   94.734">  1  5  2 -1</clus>
</clustering>
</event>
<event>
10    2  0.2445576E-006  0.1305816E+03  0.7546771E-02  0.1239056E+00
         -2   -1    0    0    0  501 -0.00000000000E+00  0.00000000000E+00  0.20212774832E+03  0.20212774832E+03  0.00000000000E+00 0.  1.
          2   -1    0    0  502    0  0.00000000000E+00 -0.00000000000E+00 -0.72286308117E+03  0.72286308117E+03  0.00000000000E+00 0. -1.
         23    2    1    2    0    0  0.51776502164E+02 -0.38443448190E+02  0.13233582206E+03  0.17361580255E+03  0.92037884646E+02 0.  0.
         23    2    1    2    0    0  0.10692746289E+02 -0.21157874184E+02 -0.21624012112E+03  0.25025508960E+03  0.12371673060E+03 0.  0.
        -11    1    3    3    0    0  0.60516276735E+02  0.89592283970E+01  0.53798123782E+02  0.81466101206E+02  0.00000000000E+00 0.  1.
         11    1    3    3    0    0 -0.87397745708E+01 -0.47402676587E+02  0.78537698275E+02  0.92149701343E+02  0.00000000000E+00 0. -1.
        -11    1    4    4    0    0  0.28958677429E+02 -0.59381848045E+02 -0.63083438812E+02  0.91347299511E+02  0.00000000000E+00 0.  1.
         11    1    4    4    0    0 -0.18265931140E+02  0.38223973861E+02 -0.15315668230E+03  0.15890779009E+03  0.00000000000E+00 0. -1.
         21    1    1    2  502  503 -0.56933798321E+02  0.28139739088E+02 -0.45826883778E+03  0.46264849507E+03  0.00000000000E+00 0. -1.
         21    1    1    2  503  501 -0.55354501325E+01  0.31461583286E+02  0.21437803986E+02  0.38471442276E+02  0.00000000000E+00 0. -1.
<scales pt_clust_5="13000.00000" pt_clust_6="13000.00000" pt_clust_7="13000.00000" pt_clust_8="13000.00000" pt_clust_9="63.74955" pt_clust_10="31.94483"></scales>
<clustering>
<clus scale="   31.945">  1 10  2 -1</clus>
<clus scale="   63.750">  2  9  1 -1</clus>
<clus scale="   92.038">  5  6 -1 -1</clus>
<clus scale="  101.078">  1  5  2 -1</clus>
<clus scale="  123.717">  7  8 -1 -1</clus>
<clus scale="   63.750">  2  5  1 -1</clus>
</clustering>
</event>
<event>
10    2  0.2445576E-006  0.1048156E+03  0.7546771E-02  0.1271470E+00
         -3   -1    0    0    0  501 -0.00000000000E+00  0.00000000000E+00  0.21480774075E+03  0.21480774075E+03  0.00000000000E+00 0.  1.
          3   -1    0    0  502    0  0.00000000000E+00 -0.00000000000E+00 -0.28194152909E+03  0.28194152909E+03  0.00000000000E+00 0. -1.
         23    2    1    2    0    0  0.48386500904E+02  0.89183639996E+01  0.10462827254E+03  0.14733220608E+03  0.91317648057E+02 0.  0.
         23    2    1    2    0    0 -0.65957624430E+02 -0.31521823997E+02 -0.34182532202E+02  0.12016885605E+03  0.89039737466E+02 0.  0.
        -11    1    4    4    0    0 -0.31903864657E+02 -0.18306597130E+02  0.29233454442E+02  0.46984922445E+02  0.00000000000E+00 0.  1.
         11    1    4    4    0    0 -0.34053759773E+02 -0.13215226866E+02 -0.63415986644E+02  0.73183933605E+02  0.00000000000E+00 0. -1.
        -11    1    3    3    0    0 -0.26333095748E+02  0.23930892766E+00  0.14946170673E+02  0.30279980486E+02  0.00000000000E+00 0.  1.
         11    1    3    3    0    0  0.74719596652E+02  0.86790550719E+01  0.89682101864E+02  0.11705222559E+03  0.00000000000E+00 0. -1.
         21    1    1    2  502  503  0.29327267131E+02  0.61186224225E+01 -0.17987678467E+03  0.18235455519E+03  0.00000000000E+00 0. -1.
         21    1    1    2  503  501 -0.11756143605E+02  0.16484837574E+02  0.42297255992E+02  0.46893652521E+02  0.00000000000E+00 0.  1.
<scales pt_clust_5="13000.00000" pt_clust_6="13000.00000" pt_clust_7="13000.00000" pt_clust_8="13000.00000" pt_clust_9="29.89979" pt_clust_10="20.24739"></scales>
<clustering>
<clus scale="   20.247">  1 10  2 -1</clus>
<clus scale="   29.900">  2  9  1 -1</clus>
<clus scale="   89.040">  5  6 -1 -1</clus>
<clus scale="   91.318">  7  8 -1 -1</clus>
<clus scale="  102.837">  2  5  1 -1</clus>
<clus scale="   29.900">  2  5  1 -1</clus>
</clustering>
</event>
<event>
10    2  0.2445576E-006  0.1413340E+03  0.7546771E-02  0.1228987E+00
         -1   -1    0    0    0  501 -0.00000000000E+00  0.00000000000E+00  0.88006352077E+02  0.88006352077E+02  0.00000000000E+00 0.  1.
          1   -1    0    0  502    0  0.00000000000E+00 -0.00000000000E+00 -0.91410492062E+03  0.91410492062E+03  0.00000000000E+00 0. -1.
         23    2    1    2    0    0  0.84594442097E+02  0.43018806142E+02 -0.23246126029E+03  0.26722507136E+03  0.91455803037E+02 0.  0.
         23    2    1    2    0    0 -0.21884447739E+02 -0.34538571988E+02 -0.25711848276E+03  0.27516460981E+03  0.89071916488E+02 0.  0.
        -11    1    3    3    0    0  0.38936488997E+02  0.65604748263E+02 -0.17204281713E+03  0.18819873564E+03  0.00000000000E+00 0. -1.
         11    1    3    3    0    0  0.45657953100E+02 -0.22585942120E+02 -0.60418443160E+02  0.79026335716E+02  0.00000000000E+00 0.  1.
        -13    1    4    4    0    0 -0.47455835895E+02 -0.10563930667E+02 -0.72791262604E+02  0.87534112797E+02  0.00000000000E+00 0.  1.
         13    1    4    4    0    0  0.25571388156E+02 -0.23974641321E+02 -0.18432722015E+03  0.18763049701E+03  0.00000000000E+00 0. -1.
         21    1    1    2  502  503 -0.47740658345E+02  0.11267148152E+03 -0.31209769856E+03  0.33522978188E+03  0.00000000000E+00 0. -1.
         21    1    1    2  503  501 -0.14969336013E+02 -0.12115171568E+03 -0.24421126934E+02  0.12449180966E+03  0.00000000000E+00 0.  1.
<scales pt_clust_5="13000.00000" pt_clust_6="13000.00000" pt_clust_7="13000.00000" pt_clust_8="13000.00000" pt_clust_9="112.01443" pt_clust_10="107.75494"></scales>
<clustering>
<clus scale="   89.072">  7  8 -1 -1</clus>
<clus scale="   91.456">  5  6 -1 -1</clus>
<clus scale="   98.008">  2  7  1 -1</clus>
<clus scale="  112.014">  2  9  1 -1</clus>
<clus scale="  107.755">  1 10  2 -1</clus>
<clus scale="   98.008">  2  5  1 -1</clus>
</clustering>
</event>
<event>
10    2  0.2445576E-006  0.9503525E+02  0.7546771E-02  0.1291410E+00
         -1   -1    0    0    0  501 -0.00000000000E+00  0.00000000000E+00  0.38290522029E+02  0.38290522029E+02  0.00000000000E+00 0.  1.
          1   -1    0    0  502    0  0.00000000000E+00 -0.00000000000E+00 -0.70626905604E+03  0.70626905604E+03  0.00000000000E+00 0. -1.
         23    2    1    2    0    0  0.15105703192E+02  0.12173159151E+00 -0.97583337760E+02  0.13579303220E+03  0.93215034726E+02 0.  0.
         23    2    1    2    0    0  0.51564323405E+02  0.11729833532E+02 -0.40574353145E+03  0.41953342507E+03  0.92649948699E+02 0.  0.
        -11    1    4    4    0    0  0.77140504417E+02  0.17651673257E+02 -0.33048836717E+03  0.33983054575E+03  0.00000000000E+00 0. -1.
         11    1    4    4    0    0 -0.25576181012E+02 -0.59218397251E+01 -0.75255164282E+02  0.79702879320E+02  0.00000000000E+00 0.  1.
        -13    1    3    3    0    0 -0.92954081139E+01  0.39650535881E+02 -0.72104625840E+02  0.82810909155E+02  0.00000000000E+00 0.  1.
         13    1    3    3    0    0  0.24401111306E+02 -0.39528804289E+02 -0.25478711920E+02  0.52982123047E+02  0.00000000000E+00 0. -1.
         21    1    1    2  502  503 -0.36152457578E+02  0.33679218568E+01 -0.14582911319E+03  0.15028131400E+03  0.00000000000E+00 0.  1.
         21    1    1    2  503  501 -0.30517569019E+02 -0.15219486981E+02 -0.18822551610E+02  0.38951806786E+02  0.00000000000E+00 0.  1.
<scales pt_clust_5="13000.00000" pt_clust_6="13000.00000" pt_clust_7="13000.00000" pt_clust_8="13000.00000" pt_clust_9="38.62017" pt_clust_10="34.10212"></scales>
<clustering>
<clus scale="   34.102">  1 10  2 -1</clus>
<clus scale="   38.620">  2  9  1 -1</clus>
<clus scale="   92.650">  5  6 -1 -1</clus>
<clus scale="   93.215">  7  8 -1 -1</clus>
<clus scale="   94.481">  2  5  1 -1</clus>
<clus scale="   38.620">  2  5  1 -1</clus>
</clustering>
</event>
<event>
10    2  0.2445576E-006  0.9717083E+02  0.7546771E-02  0.1287079E+00
          1   -1    0    0  502    0  0.00000000000E+00  0.00000000000E+00  0.22139543305E+03  0.22139543305E+03  0.00000000000E+00 0. -1.
         -1   -1    0    0    0  501 -0.00000000000E+00 -0.00000000000E+00 -0.31331298572E+03  0.31331298572E+03  0.00000000000E+00 0.  1.
         23    2    1    2    0    0 -0.54228601438E+02 -0.19265933680E+02 -0.41501624196E+02  0.11442012418E+03  0.89764484024E+02 0.  0.
         23    2    1    2    0    0 -0.72309483742E+01  0.62829644137E+02  0.10920366931E+03  0.15567653417E+03  0.91158604114E+02 0.  0.
        -11    1    3    3    0    0  0.10066739867E+02  0.21734116732E+02 -0.28223508831E+02  0.37017259926E+02  0.00000000000E+00 0.  1.
         11    1    3    3    0    0 -0.64295341305E+02 -0.41000050412E+02 -0.13278115365E+02  0.77402864255E+02  0.00000000000E+00 0. -1.
        -13    1    4    4    0    0  0.33080550054E+02  0.26460980484E+02  0.11489440173E+02  0.43892066658E+02  0.00000000000E+00 0.  1.
         13    1    4    4    0    0 -0.40311498428E+02  0.36368663653E+02  0.97714229135E+02  0.11178446751E+03  0.00000000000E+00 0. -1.
         21    1    1    2  502  503 -0.48691548081E+01 -0.36201546912E+02  0.39978239549E+02  0.54152749744E+02  0.00000000000E+00 0. -1.
         21    1    1    2  503  501  0.66328704620E+02 -0.73621635452E+01 -0.19959783733E+03  0.21045901067E+03  0.00000000000E+00 0.  1.
<scales pt_clust_5="13000.00000" pt_clust_6="13000.00000" pt_clust_7="13000.00000" pt_clust_8="13000.00000" pt_clust_9="36.52753" pt_clust_10="66.71939"></scales>
<clustering>
<clus scale="   36.528">  1  9  2 -1</clus>
<clus scale="   66.719">  2 10  1 -1</clus>
<clus scale="   89.764">  5  6 -1 -1</clus>
<clus scale="   91.159">  7  8 -1 -1</clus>
<clus scale="   95.864">  2  5  1 -1</clus>
<clus scale="   36.528">  1  5  2 -1</clus>
</clustering>
</event>
<event>
10    2  0.2445576E-006  0.9315004E+02  0.7546771E-02  0.1296697E+00
         -2   -1    0    0    0  501 -0.00000000000E+00  0.00000000000E+00  0.15630183205E+03  0.15630183205E+03  0.00000000000E+00 0.  1.
          2   -1    0    0  502    0  0.00000000000E+00 -0.00000000000E+00 -0.40547660190E+03  0.40547660190E+03  0.00000000000E+00 0. -1.
         23    2    1    2    0    0  0.18668078519E+02  0.17919898397E+02 -0.15417133293E+03  0.18105335678E+03  0.91333992524E+02 0.  0.
         23    2    1    2    0    0 -0.59996975357E+01 -0.11353360052E+02 -0.18421004237E+03  0.20501666142E+03  0.89070739279E+02 0.  0.
        -11    1    4    4    0    0  0.20895298928E+02 -0.40030787875E+02 -0.62442398484E+02  0.77059266955E+02  0.00000000000E+00 0.  1.
         11    1    4    4    0    0 -0.26894996463E+02  0.28677427823E+02 -0.12176764388E+03  0.12795739446E+03  0.00000000000E+00 0. -1.
        -13    1    3    3    0    0  0.30299796685E+02 -0.31104944884E+02 -0.85324613322E+02  0.95738628118E+02  0.00000000000E+00 0.  1.
         13    1    3    3    0    0 -0.11631718166E+02  0.49024843281E+02 -0.68846719610E+02  0.85314728665E+02  0.00000000000E+00 0. -1.
         21    1    1    2  502  503 -0.25241158404E+02  0.17140768475E+02 -0.36268747946E+02  0.47395612656E+02  0.00000000000E+00 0. -1.
         21    1    1    2  503  501  0.12572777421E+02 -0.23707306820E+02  0.12547535339E+03  0.12831280309E+03  0.00000000000E+00 0.  1.
<scales pt_clust_5="13000.00000" pt_clust_6="13000.00000" pt_clust_7="13000.00000" pt_clust_8="13000.00000" pt_clust_9="26.13173" pt_clust_10="26.83489"></scales>
<clustering>
<clus scale="   26.835">  1 10  2 -1</clus>
<clus scale="   26.132">  1  9  2 -1</clus>
<clus scale="   89.071">  5  6 -1 -1</clus>
<clus scale="   90.932">  2  5  1 -1</clus>
<clus scale="   91.334">  7  8 -1 -1</clus>
<clus scale="   90.932">  2  5  1 -1</clus>
</clustering>
</event>
<event>
10    2  0.2445576E-006  0.1282752E+03  0.7546771E-02  0.1230544E+00
          1   -1    0    0  502    0  0.00000000000E+00  0.00000000000E+00  0.30736108085E+03  0.30736108085E+03  0.00000000000E+00 0. -1.
         -1   -1    0    0    0  501 -0.00000000000E+00 -0.00000000000E+00 -0.12531027420E+03  0.12531027420E+03  0.00000000000E+00 0.  1.
         23    2    1    2    0    0 -0.17122454444E+02  0.10771667063E+03  0.62116330495E+02  0.15650742680E+03  0.93488376562E+02 0.  0.
         23    2    1    2    0    0 -0.34991595430E+02 -0.67886526416E+02  0.81698487523E+02  0.14459501627E+03  0.91651970230E+02 0.  0.
        -13    1    4    4    0    0  0.29339443372E+02 -0.28806330137E+02  0.14222954956E+02  0.43507471094E+02  0.00000000000E+00 0. -1.
         13    1    4    4    0    0 -0.64331038802E+02 -0.39080196279E+02  0.67475532567E+02  0.10108754518E+03  0.00000000000E+00 0.  1.
        -13    1    3    3    0    0 -0.55418817195E+02  0.71529494317E+02  0.33049642882E+02  0.96332719007E+02  0.00000000000E+00 0.  1.
         13    1    3    3    0    0  0.38296362751E+02  0.36187176311E+02  0.29066687612E+02  0.60174707794E+02  0.00000000000E+00 0. -1.
         21    1    1    2  502  503  0.76070641671E+01 -0.22859756539E+02  0.70190930207E+02  0.74210528751E+02  0.00000000000E+00 0. -1.
         21    1    1    2  503  501  0.44506985707E+02 -0.16970387674E+02 -0.31954941575E+02  0.57358383219E+02  0.00000000000E+00 0. -1.
<scales pt_clust_5="13000.00000" pt_clust_6="13000.00000" pt_clust_7="13000.00000" pt_clust_8="13000.00000" pt_clust_9="24.09224" pt_clust_10="48.46690"></scales>
<clustering>
<clus scale="   24.092">  1  9  2 -1</clus>
<clus scale="   48.467">  2 10  1 -1</clus>
<clus scale="   91.652">  5  6 -1 -1</clus>
<clus scale="   93.488">  7  8 -1 -1</clus>
<clus scale="  126.943">  1  5  2 -1</clus>
<clus scale="   24.092">  1  5  2 -1</clus>
</clustering>
</event>
<event>
10    2  0.2445576E-006  0.1140941E+03  0.7546771E-02  0.1254294E+00
         -1   -1    0    0    0  501 -0.00000000000E+00  0.00000000000E+00  0.70209951536E+02  0.70209951536E+02  0.00000000000E+00 0.  1.
          1   -1    0    0  502    0  0.00000000000E+00 -0.00000000000E+00 -0.87854511864E+03  0.87854511864E+03  0.00000000000E+00 0. -1.
         23    2    1    2    0    0  0.88830029779E+01  0.75724627001E+02 -0.80078960797E+02  0.14163999776E+03  0.88521873713E+02 0.  0.
         23    2    1    2    0    0 -0.31313472963E+02  0.13646568960E+02 -0.49206983774E+03  0.50170037418E+03  0.91672121215E+02 0.  0.
        -11    1    3    3    0    0 -0.23897540389E+02 -0.39124748487E+01 -0.25719654002E+00  0.24217061055E+02  0.00000000000E+00 0. -1.
         11    1    3    3    0    0  0.32780543366E+02  0.79637101849E+02 -0.79821764257E+02  0.11742293670E+03  0.00000000000E+00 0.  1.
        -13    1    4    4    0    0 -0.21625539273E+02 -0.37978976870E+02 -0.17923691845E+03  0.18448831824E+03  0.00000000000E+00 0. -1.
         13    1    4    4    0    0 -0.96879336899E+01  0.51625545830E+02 -0.31283291929E+03  0.31721205594E+03  0.00000000000E+00 0.  1.
         21    1    1    2  502  503 -0.92261314134E+01 -0.98101015745E+02 -0.25080743205E+03  0.26946854875E+03  0.00000000000E+00 0. -1.
         21    1    1    2  503  501  0.31656601398E+02  0.87298197841E+01  0.14621063488E+02  0.35946149489E+02  0.00000000000E+00 0.  1.
<scales pt_clust_5="13000.00000" pt_clust_6="13000.00000" pt_clust_7="13000.00000" pt_clust_8="13000.00000" pt_clust_9="96.32446" pt_clust_10="32.83824"></scales>
<clustering>
<clus scale="   32.838">  1 10  2 -1</clus>
<clus scale="   88.522">  5  6 -1 -1</clus>
<clus scale="   91.672">  7  8 -1 -1</clus>
<clus scale="   96.324">  2  9  1 -1</clus>
<clus scale="  111.579">  1  5  2 -1</clus>
<clus scale="   96.324">  2  5  1 -1</clus>
</clustering>
</event>
<event>
10    2  0.2445576E-006  0.1628668E+03  0.7546771E-02  0.1198291E+00
          2   -1    0    0  502    0  0.00000000000E+00  0.00000000000E+00  0.29313800845E+03  0.29313800845E+03  0.00000000000E+00 0.  1.
         -2   -1    0    0    0  501 -0.00000000000E+00 -0.00000000000E+00 -0.36444702738E+03  0.36444702738E+03  0.00000000000E+00 0. -1.
         23    2    1    2    0    0 -0.54795271170E+02  0.48748309660E+02 -0.60855242408E+02  0.13084127492E+03  0.89650205002E+02 0.  0.
         23    2    1    2    0    0 -0.37319337742E+02  0.84568583966E+02  0.44481114304E+02  0.13810230272E+03  0.92461333121E+02 0.  0.
        -11    1    3    3    0    0 -0.76812274911E+02  0.53100420286E+02 -0.49542710539E+02  0.10570837421E+03  0.00000000000E+00 0. -1.
         11    1    3    3    0    0  0.22017003741E+02 -0.43521106260E+01 -0.11312531868E+02  0.25132900706E+02  0.00000000000E+00 0.  1.
        -13    1    4    4    0    0 -0.20379844998E+02 -0.21112656005E+01  0.45366128142E+02  0.49778319650E+02  0.00000000000E+00 0.  1.
         13    1    4    4    0    0 -0.16939492743E+02  0.86679849566E+02 -0.88501383777E+00  0.88323983067E+02  0.00000000000E+00 0. -1.
         21    1    1    2  502  503  0.11630329068E+03 -0.13752547232E+03  0.11712147664E+03  0.21484215427E+03  0.00000000000E+00 0.  1.
         21    1    1    2  503  501 -0.24188681770E+02  0.42085786919E+01 -0.17205636747E+03  0.17379930393E+03  0.00000000000E+00 0. -1.
<scales pt_clust_5="13000.00000" pt_clust_6="13000.00000" pt_clust_7="13000.00000" pt_clust_8="13000.00000" pt_clust_9="134.07640" pt_clust_10="24.55208"></scales>
<clustering>
<clus scale="   24.552">  2 10  1 -1</clus>
<clus scale="   89.650">  5  6 -1 -1</clus>
<clus scale="   92.461">  7  8 -1 -1</clus>
<clus scale="  122.878">  2  5  1 -1</clus>
<clus scale="  134.076">  2  9  1 -1</clus>
<clus scale="  162.867">  1  5  2 -1</clus>
</clustering>
</event>
<event>
10    2  0.2445576E-006  0.2735596E+03  0.7546771E-02  0.1139803E+00
          1   -1    0    0  502    0  0.00000000000E+00  0.00000000000E+00  0.78927890199E+03  0.78927890199E+03  0.00000000000E+00 0. -1.
         -1   -1    0    0    0  501 -0.00000000000E+00 -0.00000000000E+00 -0.18095918697E+03  0.18095918697E+03  0.00000000000E+00 0.  1.
         23    2    1    2    0    0  0.19059232532E+02 -0.34774999360E+02 -0.28741219961E+02  0.10243170497E+03  0.89964668253E+02 0.  0.
         23    2    1    2    0    0  0.26057570516E+03  0.23066821322E+02  0.25569881963E+03  0.37692333806E+03  0.90871007721E+02 0.  0.
        -11    1    4    4    0    0  0.73535391459E+02 -0.19038960835E+02  0.32317534574E+02  0.82549130024E+02  0.00000000000E+00 0.  1.
         11    1    4    4    0    0  0.18704031370E+03  0.42105782157E+02  0.22338128506E+03  0.29437420803E+03  0.00000000000E+00 0. -1.
        -11    1    3    3    0    0 -0.18846905052E+02  0.18261465722E+02  0.82104969770E+01  0.27497258426E+02  0.00000000000E+00 0.  1.
         11    1    3    3    0    0  0.37906137583E+02 -0.53036465082E+02 -0.36951716938E+02  0.74934446548E+02  0.00000000000E+00 0. -1.
         21    1    1    2  502  503 -0.25623523892E+03  0.26001292285E+02  0.38502024795E+03  0.46322041859E+03  0.00000000000E+00 0.  1.
         21    1    1    2  503  501 -0.23399698770E+02 -0.14293114247E+02 -0.36581325946E+01  0.27662627342E+02  0.00000000000E+00 0.  1.
<scales pt_clust_5="13000.00000" pt_clust_6="13000.00000" pt_clust_7="13000.00000" pt_clust_8="13000.00000" pt_clust_9="258.02584" pt_clust_10="27.41968"></scales>
<clustering>
<clus scale="   27.420">  2 10  1 -1</clus>
<clus scale="   89.965">  7  8 -1 -1</clus>
<clus scale="   90.871">  5  6 -1 -1</clus>
<clus scale="   99.122">  2  7  1 -1</clus>
<clus scale="  258.026">  1  9  2 -1</clus>
<clus scale="  258.026">  1  5  2 -1</clus>
</clustering>
</event>
<event>
10    2  0.2445576E-006  0.9787206E+02  0.7546771E-02  0.1285029E+00
         -2   -1    0    0    0  501 -0.00000000000E+00  0.00000000000E+00  0.56681463969E+03  0.56681463969E+03  0.00000000000E+00 0.  1.
          2   -1    0    0  502    0  0.00000000000E+00 -0.00000000000E+00 -0.34411600612E+02  0.34411600612E+02  0.00000000000E+00 0. -1.
         23    2    1    2    0    0  0.57033829121E+02 -0.12283862658E+02  0.30050370829E+03  0.31903553250E+03  0.89874586820E+02 0.  0.
         23    2    1    2    0    0 -0.13669993481E+02  0.14539378252E+02  0.10650989078E+03  0.14053549030E+03  0.89485222016E+02 0.  0.
        -11    1    3    3    0    0 -0.89644283916E+01  0.27014659173E+02  0.11015300018E+03  0.11377098151E+03  0.00000000000E+00 0. -1.
         11    1    3    3    0    0  0.65998257513E+02 -0.39298521831E+02  0.19035070811E+03  0.20526455098E+03  0.00000000000E+00 0.  1.
        -11    1    4    4    0    0  0.34156762862E+02  0.11545037808E+01  0.73055542894E+02  0.80654384107E+02  0.00000000000E+00 0.  1.
         11    1    4    4    0    0 -0.47826756343E+02  0.13384874471E+02  0.33454347887E+02  0.59881106198E+02  0.00000000000E+00 0. -1.
         21    1    1    2  502  503 -0.31163443159E+02 -0.19673332488E+02  0.43320644628E+02  0.56875991874E+02  0.00000000000E+00 0.  1.
         21    1    1    2  503  501 -0.12200392481E+02  0.17417816895E+02  0.82068795379E+02  0.84779225622E+02  0.00000000000E+00 0.  1.
<scales pt_clust_5="13000.00000" pt_clust_6="13000.00000" pt_clust_7="13000.00000" pt_clust_8="13000.00000" pt_clust_9="37.02484" pt_clust_10="21.26570"></scales>
<clustering>
<clus scale="   21.266">  1 10  2 -1</clus>
<clus scale="   37.025">  2  9  1 -1</clus>
<clus scale="   89.485">  7  8 -1 -1</clus>
<clus scale="   89.875">  5  6 -1 -1</clus>
<clus scale="   97.515">  2  7  1 -1</clus>
<clus scale="   37.025">  2  5  1 -1</clus>
</clustering>
</event>
<event>
10    2  0.2445576E-006  0.1388495E+03  0.7546771E-02  0.1232160E+00
          2   -1    0    0  502    0  0.00000000000E+00  0.00000000000E+00  0.10932429251E+04  0.10932429251E+04  0.00000000000E+00 0. -1.
         -2   -1    0    0    0  501 -0.00000000000E+00 -0.00000000000E+00 -0.72880773362E+02  0.72880773362E+02  0.00000000000E+00 0.  1.
         23    2    1    2    0    0  0.39231947438E+02 -0.35180200530E+02  0.24223776375E+02  0.10653815013E+03  0.89368864169E+02 0.  0.
         23    2    1    2    0    0  0.54533942787E+02 -0.54732388838E+02  0.16649569401E+03  0.20649963564E+03  0.94613413917E+02 0.  0.
        -13    1    3    3    0    0  0.45307677394E+01  0.24606990631E+02  0.27694416773E+02  0.37323083536E+02  0.00000000000E+00 0. -1.
         13    1    3    3    0    0  0.34701179699E+02 -0.59787191161E+02 -0.34706403981E+01  0.69215066598E+02  0.00000000000E+00 0.  1.
        -13    1    4    4    0    0 -0.17702970126E+02  0.13896992076E+02  0.31509259765E+02  0.38721505536E+02  0.00000000000E+00 0.  1.
         13    1    4    4    0    0  0.72236912913E+02 -0.68629380914E+02  0.13498643425E+03  0.16777813011E+03  0.00000000000E+00 0. -1.
         21    1    1    2  502  503 -0.71611934905E+02  0.77849043328E+02  0.81884135911E+03  0.82564515026E+03  0.00000000000E+00 0.  1.
         21    1    1    2  503  501 -0.22153955319E+02  0.12063546040E+02  0.10801322225E+02  0.27440762401E+02  0.00000000000E+00 0.  1.
<scales pt_clust_5="13000.00000" pt_clust_6="13000.00000" pt_clust_7="13000.00000" pt_clust_8="13000.00000" pt_clust_9="101.62426" pt_clust_10="25.22552"></scales>
<clustering>
<clus scale="   25.226">  2 10  1 -1</clus>
<clus scale="   89.369">  5  6 -1 -1</clus>
<clus scale="   94.613">  7  8 -1 -1</clus>
<clus scale="   96.814">  2  5  1 -1</clus>
<clus scale="  101.624">  1  9  2 -1</clus>
<clus scale="  101.624">  1  5  2 -1</clus>
</clustering>
</event>
<event>
10    2  0.2445576E-006  0.2775426E+03  0.7546771E-02  0.1097194E+00
          1   -1    0    0  502    0  0.00000000000E+00  0.00000000000E+00  0.45650037827E+03  0.45650037827E+03  0.00000000000E+00 0. -1.
         -1   -1    0    0    0  501 -0.00000000000E+00 -0.00000000000E+00 -0.32849874678E+03  0.32849874678E+03  0.00000000000E+00 0.  1.
         23    2    1    2    0    0 -0.58621738769E+02 -0.22563078237E+03 -0.57908547862E+02  0.25772736367E+03  0.93403618006E+02 0.  0.
         23    2    1    2    0    0  0.80868603976E+02  0.26220512202E+03  0.20240672211E+03  0.35265350604E+03  0.90026424130E+02 0.  0.
        -11    1    3    3    0    0 -0.77325773584E+02 -0.12808151481E+03 -0.51367945147E+02  0.15818601546E+03  0.00000000000E+00 0.  1.
         11    1    3    3    0    0  0.18704034815E+02 -0.97549267561E+02 -0.65406027149E+01  0.99541348212E+02  0.00000000000E+00 0. -1.
        -11    1    4    4    0    0  0.55724517414E+02  0.17169140497E+03  0.77694625273E+02  0.19651874001E+03  0.00000000000E+00 0.  1.
         11    1    4    4    0    0  0.25144086562E+02  0.90513717059E+02  0.12471209683E+03  0.15613476602E+03  0.00000000000E+00 0. -1.
         21    1    1    2  502  503 -0.26978272186E+02  0.88889620716E+01  0.70686138082E+02  0.76179859109E+02  0.00000000000E+00 0.  1.
         21    1    1    2  503  501  0.47314069790E+01 -0.45463301722E+02 -0.87182680835E+02  0.98438396234E+02  0.00000000000E+00 0.  1.
<scales pt_clust_5="13000.00000" pt_clust_6="13000.00000" pt_clust_7="13000.00000" pt_clust_8="13000.00000" pt_clust_9="28.40494" pt_clust_10="45.53951"></scales>
<clustering>
<clus scale="   28.405">  1  9  2 -1</clus>
<clus scale="   45.540">  2 10  1 -1</clus>
<clus scale="   90.026">  7  8 -1 -1</clus>
<clus scale="   93.404">  5  6 -1 -1</clus>
<clus scale="  276.424">  1  7  2 -1</clus>
<clus scale="   28.405">  1  5  2 -1</clus>
</clustering>
</event>
<event>
10    2  0.2445576E-006  0.1506464E+03  0.7546771E-02  0.1199743E+00
         -1   -1    0    0    0  501 -0.00000000000E+00  0.00000000000E+00  0.69467708625E+02  0.69467708625E+02  0.00000000000E+00 0.  1.
          1   -1    0    0  502    0  0.00000000000E+00 -0.00000000000E+00 -0.92938255876E+03  0.92938255876E+03  0.00000000000E+00 0. -1.
         23    2    1    2    0    0 -0.13037407641E+02  0.94960027297E+02 -0.51481637391E+02  0.14232470749E+03  0.91752834249E+02 0.  0.
         23    2    1    2    0    0  0.59905599635E+02 -0.13040601038E+03 -0.66766800322E+03  0.68900817222E+03  0.91418217344E+02 0.  0.
        -11    1    3    3    0    0  0.17500579008E+02  0.13999123916E+02 -0.51096376953E+02  0.55795030906E+02  0.00000000000E+00 0. -1.
         11    1    3    3    0    0 -0.30537986649E+02  0.80960903382E+02 -0.38526043712E+00  0.86529676589E+02  0.00000000000E+00 0.  1.
        -11    1    4    4    0    0  0.32258091388E+00 -0.20883090269E+02 -0.18268418460E+02  0.27747840108E+02  0.00000000000E+00 0.  1.
         11    1    4    4    0    0  0.59583018721E+02 -0.10952292011E+03 -0.64939958475E+03  0.66126033212E+03  0.00000000000E+00 0. -1.
         21    1    1    2  502  503 -0.29533592327E+02  0.12676186038E+02 -0.13441511002E+03  0.13820398174E+03  0.00000000000E+00 0. -1.
         21    1    1    2  503  501 -0.17334599667E+02  0.22769797045E+02 -0.63500995103E+01  0.29313405924E+02  0.00000000000E+00 0. -1.
<scales pt_clust_5="13000.00000" pt_clust_6="13000.00000" pt_clust_7="13000.00000" pt_clust_8="13000.00000" pt_clust_9="32.95609" pt_clust_10="28.61734"></scales>
<clustering>
<clus scale="   28.617">  1 10  2 -1</clus>
<clus scale="   32.956">  2  9  1 -1</clus>
<clus scale="   91.418">  7  8 -1 -1</clus>
<clus scale="   91.753">  5  6 -1 -1</clus>
<clus scale="  150.443">  2  7  1 -1</clus>
<clus scale="   32.956">  2  5  1 -1</clus>
</clustering>
</event>
<event>
10    2  0.2445576E-006  0.3713947E+03  0.7546771E-02  0.1054299E+00
         -2   -1    0    0    0  501 -0.00000000000E+00  0.00000000000E+00  0.15677317592E+03  0.15677317592E+03  0.00000000000E+00 0.  1.
          2   -1    0    0  502    0  0.00000000000E+00 -0.00000000000E+00 -0.32656971941E+04  0.32656971941E+04  0.00000000000E+00 0. -1.
         23    2    1    2    0    0 -0.32680975508E+03 -0.12684193478E+03 -0.65174345620E+03  0.74651235766E+03  0.98069745670E+02 0.  0.
         23    2    1    2    0    0  0.36178409773E+03  0.71211657572E+02 -0.20385372284E+04  0.20736779003E+04  0.92450900660E+02 0.  0.
        -11    1    3    3    0    0 -0.64130758342E+02 -0.52719250285E+02 -0.22628411915E+03  0.24103231339E+03  0.00000000000E+00 0. -1.
         11    1    3    3    0    0 -0.26267899674E+03 -0.74122684495E+02 -0.42545933704E+03  0.50548004428E+03  0.00000000000E+00 0.  1.
        -13    1    4    4    0    0  0.36888730948E+02  0.38752888360E+02 -0.26907587094E+03  0.27434356043E+03  0.00000000000E+00 0. -1.
         13    1    4    4    0    0  0.32489536678E+03  0.32458769212E+02 -0.17694613575E+04  0.17993343399E+04  0.00000000000E+00 0.  1.
         21    1    1    2  502  503 -0.32868565675E+02  0.76834751326E+02 -0.50574842923E+03  0.51260647214E+03  0.00000000000E+00 0. -1.
         21    1    1    2  503  501 -0.21057769716E+01 -0.21204474117E+02  0.87105095616E+02  0.89673639948E+02  0.00000000000E+00 0.  1.
<scales pt_clust_5="13000.00000" pt_clust_6="13000.00000" pt_clust_7="13000.00000" pt_clust_8="13000.00000" pt_clust_9="82.63542" pt_clust_10="21.30878"></scales>
<clustering>
<clus scale="   21.309">  1 10  2 -1</clus>
<clus scale="   82.635">  2  9  1 -1</clus>
<clus scale="   92.451">  7  8 -1 -1</clus>
<clus scale="   98.070">  5  6 -1 -1</clus>
<clus scale="  369.951">  2  7  1 -1</clus>
<clus scale="   82.635">  2  5  1 -1</clus>
</clustering>
</event>
<event>
10    2  0.2445576E-006  0.1472081E+03  0.7546771E-02  0.1206268E+00
          1   -1    0    0  502    0  0.00000000000E+00  0.00000000000E+00  0.96303789526E+02  0.96303789526E+02  0.00000000000E+00 0. -1.
         -1   -1    0    0    0  501 -0.00000000000E+00 -0.00000000000E+00 -0.93641506962E+03  0.93641506962E+03  0.00000000000E+00 0.  1.
         23    2    1    2    0    0  0.29709234720E+02  0.72768338997E+02 -0.55937872450E+03  0.57468477638E+03  0.10573629933E+03 0.  0.
         23    2    1    2    0    0 -0.71734601438E+02 -0.53452072821E+02 -0.53063946780E+01  0.13095478614E+03  0.95488329421E+02 0.  0.
        -13    1    4    4    0    0 -0.41577187682E+02  0.16129334161E+02 -0.26930087368E+02  0.52096521590E+02  0.00000000000E+00 0.  1.
         13    1    4    4    0    0 -0.30157413756E+02 -0.69581406982E+02  0.21623692690E+02  0.78858264549E+02  0.00000000000E+00 0. -1.
        -13    1    3    3    0    0  0.69023225550E+02  0.55225703751E+02 -0.35747167376E+03  0.36823916354E+03  0.00000000000E+00 0.  1.
         13    1    3    3    0    0 -0.39313990830E+02  0.17542635246E+02 -0.20190705073E+03  0.20644561284E+03  0.00000000000E+00 0. -1.
         21    1    1    2  502  503  0.24135755894E+02 -0.48046929148E+02 -0.44000842026E+01  0.53948149682E+02  0.00000000000E+00 0. -1.
         21    1    1    2  503  501  0.17889610824E+02  0.28730662972E+02 -0.27102607672E+03  0.27313114695E+03  0.00000000000E+00 0. -1.
<scales pt_clust_5="13000.00000" pt_clust_6="13000.00000" pt_clust_7="13000.00000" pt_clust_8="13000.00000" pt_clust_9="53.00880" pt_clust_10="33.84508"></scales>
<clustering>
<clus scale="   33.845">  2 10  1 -1</clus>
<clus scale="   53.009">  1  9  2 -1</clus>
<clus scale="   95.488">  5  6 -1 -1</clus>
<clus scale="  105.736">  7  8 -1 -1</clus>
<clus scale="  140.029">  1  5  2 -1</clus>
<clus scale="   53.009">  1  5  2 -1</clus>
</clustering>
</event>
<event>
10    2  0.2445576E-006  0.9988724E+02  0.7546771E-02  0.1282609E+00
          1   -1    0    0  502    0  0.00000000000E+00  0.00000000000E+00  0.21690629022E+03  0.21690629022E+03  0.00000000000E+00 0. -1.
         -1   -1    0    0    0  501 -0.00000000000E+00 -0.00000000000E+00 -0.34406143509E+03  0.34406143509E+03  0.00000000000E+00 0.  1.
         23    2    1    2    0    0 -0.26466511586E+02  0.15504085585E+02 -0.14350221682E+03  0.17252832088E+03  0.90731925845E+02 0.  0.
         23    2    1    2    0    0  0.18770578786E+02 -0.45316696644E+02  0.18684517757E+02  0.10836778574E+03  0.94807848617E+02 0.  0.
        -11    1    3    3    0    0  0.19012471719E+02 -0.16247210732E+02 -0.96925430059E+02  0.10009987477E+03  0.00000000000E+00 0.  1.
         11    1    3    3    0    0 -0.45478983305E+02  0.31751296317E+02 -0.46576786759E+02  0.72428446104E+02  0.00000000000E+00 0. -1.
        -13    1    4    4    0    0  0.39765078145E+02 -0.25664154773E+02 -0.26923929838E+02  0.54450053058E+02  0.00000000000E+00 0.  1.
         13    1    4    4    0    0 -0.20994499360E+02 -0.19652541871E+02  0.45608447595E+02  0.53917732681E+02  0.00000000000E+00 0. -1.
         21    1    1    2  502  503 -0.14609127080E+02  0.16634148549E+02  0.13678120205E+03  0.13856124540E+03  0.00000000000E+00 0. -1.
         21    1    1    2  503  501  0.22305059880E+02  0.13178462510E+02 -0.13911864786E+03  0.14151037330E+03  0.00000000000E+00 0.  1.
<scales pt_clust_5="13000.00000" pt_clust_6="13000.00000" pt_clust_7="13000.00000" pt_clust_8="13000.00000" pt_clust_9="22.13869" pt_clust_10="25.84725"></scales>
<clustering>
<clus scale="   22.139">  1  9  2 -1</clus>
<clus scale="   25.847">  2 10  1 -1</clus>
<clus scale="   90.732">  5  6 -1 -1</clus>
<clus scale="   94.808">  7  8 -1 -1</clus>
<clus scale="   96.027">  2  5  1 -1</clus>
<clus scale="   22.139">  1  5  2 -1</clus>
</clustering>
</event>
<event>
10    2  0.2445576E-006  0.1099678E+03  0.7546771E-02  0.1262965E+00
         -1   -1    0    0    0  501 -0.00000000000E+00  0.00000000000E+00  0.17297501694E+03  0.17297501694E+03  0.00000000000E+00 0.  1.
          1   -1    0    0  502    0  0.00000000000E+00 -0.00000000000E+00 -0.21586330291E+03  0.21586330291E+03  0.00000000000E+00 0. -1.
         23    2    1    2    0    0  0.81953118629E+02  0.19707096159E+02  0.97675955254E+02  0.15708193856E+03  0.89607253582E+02 0.  0.
         23    2    1    2    0    0 -0.29072756945E+02 -0.36379970166E+02 -0.91295350540E+02  0.13996725409E+03  0.95327140733E+02 0.  0.
        -11    1    4    4    0    0 -0.54633428323E+02 -0.39234580744E+02 -0.92323734968E+02  0.11422712399E+03  0.00000000000E+00 0. -1.
         11    1    4    4    0    0  0.25560671378E+02  0.28546105786E+01  0.10283844278E+01  0.25740130096E+02  0.00000000000E+00 0.  1.
        -13    1    3    3    0    0  0.65750376545E+02  0.45731635985E+02  0.97820623839E+02  0.12642534949E+03  0.00000000000E+00 0.  1.
         13    1    3    3    0    0  0.16202742084E+02 -0.26024539827E+02 -0.14466858496E+00  0.30656589067E+02  0.00000000000E+00 0. -1.
         21    1    1    2  502  503 -0.21675717590E+02  0.24138512870E+02 -0.50107251107E+02  0.59692890281E+02  0.00000000000E+00 0.  1.
         21    1    1    2  503  501 -0.31204644094E+02 -0.74656388627E+01  0.83836042285E+00  0.32096236927E+02  0.00000000000E+00 0.  1.
<scales pt_clust_5="13000.00000" pt_clust_6="13000.00000" pt_clust_7="13000.00000" pt_clust_8="13000.00000" pt_clust_9="32.92202" pt_clust_10="32.08529"></scales>
<clustering>
<clus scale="   32.085">  1 10  2 -1</clus>
<clus scale="   32.922">  2  9  1 -1</clus>
<clus scale="   89.607">  7  8 -1 -1</clus>
<clus scale="   95.327">  5  6 -1 -1</clus>
<clus scale="  105.048">  1  7  2 -1</clus>
<clus scale="   32.922">  2  5  1 -1</clus>
</clustering>
</event>
<event>
10    2  0.2445576E-006  0.9540125E+02  0.7546771E-02  0.1291844E+00
          1   -1    0    0  502    0  0.00000000000E+00  0.00000000000E+00  0.16094712664E+03  0.16094712664E+03  0.00000000000E+00 0. -1.
         -1   -1    0    0    0  501 -0.00000000000E+00 -0.00000000000E+00 -0.15555450963E+03  0.15555450963E+03  0.00000000000E+00 0.  1.
         23    2    1    2    0    0  0.32564264256E+02  0.22307976004E+01 -0.27453106321E+02  0.98694911597E+02  0.89003397486E+02 0.  0.
         23    2    1    2    0    0 -0.79504814898E+01  0.14176898410E+02  0.64927212492E+02  0.11366626782E+03  0.91871012371E+02 0.  0.
        -13    1    4    4    0    0  0.32917175204E+02  0.97718045620E+01  0.63909069692E+02  0.72549278265E+02  0.00000000000E+00 0. -1.
         13    1    4    4    0    0 -0.40867656694E+02  0.44050938483E+01  0.10181427999E+01  0.41116989557E+02  0.00000000000E+00 0.  1.
        -13    1    3    3    0    0  0.62579251092E+02 -0.54095492577E+01 -0.11503809570E+02  0.63857368604E+02  0.00000000000E+00 0.  1.
         13    1    3    3    0    0 -0.30014986837E+02  0.76403468581E+01 -0.15949296751E+02  0.34837542993E+02  0.00000000000E+00 0. -1.
         21    1    1    2  502  503 -0.24322779545E+02 -0.37188597298E+02  0.19502101987E+02  0.48527531935E+02  0.00000000000E+00 0.  1.
         21    1    1    2  503  501 -0.29100322034E+00  0.20780901287E+02 -0.51583591151E+02  0.55612924911E+02  0.00000000000E+00 0.  1.
<scales pt_clust_5="13000.00000" pt_clust_6="13000.00000" pt_clust_7="13000.00000" pt_clust_8="13000.00000" pt_clust_9="42.01604" pt_clust_10="20.78294"></scales>
<clustering>
<clus scale="   20.783">  2 10  1 -1</clus>
<clus scale="   42.016">  1  9  2 -1</clus>
<clus scale="   89.003">  7  8 -1 -1</clus>
<clus scale="   91.871">  5  6 -1 -1</clus>
<clus scale="   92.643">  2  7  1 -1</clus>
<clus scale="   42.016">  1  5  2 -1</clus>
</clustering>
</event>
<event>
10    2  0.2445576E-006  0.1092598E+03  0.7546771E-02  0.1262290E+00
          2   -1    0    0  502    0  0.00000000000E+00  0.00000000000E+00  0.43016338324E+03  0.43016338324E+03  0.00000000000E+00 0. -1.
         -2   -1    0    0    0  501 -0.00000000000E+00 -0.00000000000E+00 -0.12062396454E+03  0.12062396454E+03  0.00000000000E+00 0.  1.
         23    2    1    2    0    0  0.11079332813E+03 -0.10203507937E+02  0.29518944075E+02  0.14741437480E+03  0.92088852240E+02 0.  0.
         23    2    1    2    0    0 -0.26269066802E+02  0.50219672047E+02  0.27820566183E+03  0.29821383798E+03  0.91219644580E+02 0.  0.
        -11    1    3    3    0    0  0.74826837620E+02 -0.41795940209E+02 -0.87122821677E+01  0.86150218263E+02  0.00000000000E+00 0.  1.
         11    1    3    3    0    0  0.35966490508E+02  0.31592432272E+02  0.38231226242E+02  0.61264156538E+02  0.00000000000E+00 0. -1.
        -13    1    4    4    0    0 -0.26280251143E+02 -0.18656015782E+02  0.47160217746E+02  0.57120790110E+02  0.00000000000E+00 0.  1.
         13    1    4    4    0    0  0.11184341408E-01  0.68875687829E+02  0.23104544408E+03  0.24109304787E+03  0.00000000000E+00 0. -1.
         21    1    1    2  502  503 -0.52663697257E+02 -0.33630043820E+02  0.22757458167E+02  0.66500727502E+02  0.00000000000E+00 0.  1.
         21    1    1    2  503  501 -0.31860564069E+02 -0.63861202905E+01 -0.20942645368E+02  0.38658407497E+02  0.00000000000E+00 0.  1.
<scales pt_clust_5="13000.00000" pt_clust_6="13000.00000" pt_clust_7="13000.00000" pt_clust_8="13000.00000" pt_clust_9="69.83723" pt_clust_10="32.49428"></scales>
<clustering>
<clus scale="   32.494">  2 10  1 -1</clus>
<clus scale="   69.837">  2  9  1 -1</clus>
<clus scale="   91.220">  7  8 -1 -1</clus>
<clus scale="   92.089">  5  6 -1 -1</clus>
<clus scale="  108.528">  1  7  2 -1</clus>
<clus scale="  108.528">  1  5  2 -1</clus>
</clustering>
</event>
<event>
10    2  0.2445576E-006  0.1535486E+03  0.7546771E-02  0.1199352E+00
         -1   -1    0    0    0  501 -0.00000000000E+00  0.00000000000E+00  0.48466872833E+02  0.48466872833E+02  0.00000000000E+00 0.  1.
          1   -1    0    0  502    0  0.00000000000E+00 -0.00000000000E+00 -0.80205492779E+03  0.80205492779E+03  0.00000000000E+00 0. -1.
         23    2    1    2    0    0 -0.75260399067E+02 -0.94103568891E+02 -0.38740045095E+03  0.41984767290E+03  0.10804327698E+03 0.  0.
         23    2    1    2    0    0  0.79111461042E+02  0.62776149284E+02 -0.30018286195E+03  0.33005544745E+03  0.92883688527E+02 0.  0.
        -11    1    4    4    0    0  0.60404024092E+02 -0.47261022920E+01 -0.19059726331E+03  0.19999574733E+03  0.00000000000E+00 0.  1.
         11    1    4    4    0    0  0.18707436950E+02  0.67502251576E+02 -0.10958559864E+03  0.13005970012E+03  0.00000000000E+00 0. -1.
        -11    1    3    3    0    0 -0.47854607851E+02 -0.74970680834E+02 -0.37299346918E+03  0.38345116316E+03  0.00000000000E+00 0. -1.
         11    1    3    3    0    0 -0.27405791216E+02 -0.19132888057E+02 -0.14406981763E+02  0.36396509738E+02  0.00000000000E+00 0.  1.
         21    1    1    2  502  503 -0.22501650267E+02 -0.62668991570E+00 -0.58750666897E+02  0.62915481925E+02  0.00000000000E+00 0. -1.
         21    1    1    2  503  501  0.18650588292E+02  0.31954109523E+02 -0.72540751573E+01  0.37703198344E+02  0.00000000000E+00 0.  1.
<scales pt_clust_5="13000.00000" pt_clust_6="13000.00000" pt_clust_7="13000.00000" pt_clust_8="13000.00000" pt_clust_9="22.51038" pt_clust_10="36.64296"></scales>
<clustering>
<clus scale="   22.510">  2  9  1 -1</clus>
<clus scale="   36.643">  1 10  2 -1</clus>
<clus scale="   92.884">  5  6 -1 -1</clus>
<clus scale="  108.043">  7  8 -1 -1</clus>
<clus scale="  143.287">  2  5  1 -1</clus>
<clus scale="   22.510">  2  5  1 -1</clus>
</clustering>
</event>
<event>
10    2  0.2445576E-006  0.1730678E+03  0.7546771E-02  0.1174918E+00
         -1   -1    0    0    0  501 -0.00000000000E+00  0.00000000000E+00  0.95601042817E+03  0.95601042817E+03  0.00000000000E+00 0.  1.
          1   -1    0    0  502    0  0.00000000000E+00 -0.00000000000E+00 -0.84217495882E+02  0.84217495882E+02  0.00000000000E+00 0. -1.
         23    2    1    2    0    0  0.29561501978E+01  0.14122371093E+03  0.67038242633E+03  0.69126713594E+03  0.92112867420E+02 0.  0.
         23    2    1    2    0    0  0.21878226967E+02 -0.17205566189E+03  0.13920342189E+03  0.24006363018E+03  0.90394392895E+02 0.  0.
        -11    1    3    3    0    0 -0.39156394430E+02  0.29528252069E+02  0.17947704833E+03  0.18605685092E+03  0.00000000000E+00 0. -1.
         11    1    3    3    0    0  0.42112544628E+02  0.11169545887E+03  0.49090537799E+03  0.50521028502E+03  0.00000000000E+00 0.  1.
        -13    1    4    4    0    0  0.13956689521E+02 -0.13755569537E+03  0.55140101482E+02  0.14885156802E+03  0.00000000000E+00 0. -1.
         13    1    4    4    0    0  0.79215374469E+01 -0.34499966517E+02  0.84063320407E+02  0.91212062158E+02  0.00000000000E+00 0.  1.
         21    1    1    2  502  503 -0.91959637641E+01 -0.19365400262E+02 -0.64811934888E+01  0.22396212758E+02  0.00000000000E+00 0. -1.
         21    1    1    2  503  501 -0.15638413401E+02  0.50197351214E+02  0.68688277566E+02  0.86500945183E+02  0.00000000000E+00 0.  1.
<scales pt_clust_5="13000.00000" pt_clust_6="13000.00000" pt_clust_7="13000.00000" pt_clust_8="13000.00000" pt_clust_9="21.43792" pt_clust_10="50.60023"></scales>
<clustering>
<clus scale="   21.438">  2  9  1 -1</clus>
<clus scale="   50.600">  2 10  1 -1</clus>
<clus scale="   90.394">  7  8 -1 -1</clus>
<clus scale="   92.113">  5  6 -1 -1</clus>
<clus scale="  172.159">  2  7  1 -1</clus>
<clus scale="   21.438">  2  5  1 -1</clus>
</clustering>
</event>
<event>
10    2  0.2445576E-006  0.1088460E+03  0.7546771E-02  0.1263157E+00
         -1   -1    0    0    0  501 -0.00000000000E+00  0.00000000000E+00  0.42598384016E+02  0.42598384016E+02  0.00000000000E+00 0.  1.
          1   -1    0    0  502    0  0.00000000000E+00 -0.00000000000E+00 -0.11133527405E+04  0.11133527405E+04  0.00000000000E+00 0. -1.
         23    2    1    2    0    0  0.69500212281E+01 -0.84839193047E+02 -0.23127091597E+03  0.26244585900E+03  0.90252982562E+02 0.  0.
         23    2    1    2    0    0 -0.12073548334E+02  0.46497448603E+02 -0.31377850686E+03  0.32971256351E+03  0.89138318750E+02 0.  0.
        -11    1    4    4    0    0 -0.49698434666E+02  0.27955064099E+02 -0.14522874662E+03  0.15602182175E+03  0.00000000000E+00 0. -1.
         11    1    4    4    0    0  0.37624886332E+02  0.18542384504E+02 -0.16854976025E+03  0.17369074176E+03  0.00000000000E+00 0.  1.
        -11    1    3    3    0    0 -0.12249022578E+02 -0.51434604286E+02 -0.21362052123E+03  0.22006654485E+03  0.00000000000E+00 0. -1.
         11    1    3    3    0    0  0.19199043806E+02 -0.33404588761E+02 -0.17650394740E+02  0.42379314150E+02  0.00000000000E+00 0.  1.
         21    1    1    2  502  503 -0.71978185835E+02 -0.25093210314E+02 -0.37733028445E+03  0.38495281789E+03  0.00000000000E+00 0. -1.
         21    1    1    2  503  501  0.77101712941E+02  0.63434954758E+02 -0.14837464918E+03  0.17883988409E+03  0.00000000000E+00 0.  1.
<scales pt_clust_5="13000.00000" pt_clust_6="13000.00000" pt_clust_7="13000.00000" pt_clust_8="13000.00000" pt_clust_9="76.22682" pt_clust_10="84.06764"></scales>
<clustering>
<clus scale="   76.227">  2  9  1 -1</clus>
<clus scale="   84.068">  1 10  2 -1</clus>
<clus scale="   89.138">  5  6 -1 -1</clus>
<clus scale="   90.253">  7  8 -1 -1</clus>
<clus scale="  107.924">  2  5  1 -1</clus>
<clus scale="   76.227">  2  5  1 -1</clus>
</clustering>
</event>
<event>
10    2  0.2445576E-006  0.1327018E+03  0.7546771E-02  0.1233488E+00
          3   -1    0    0  502    0  0.00000000000E+00  0.00000000000E+00  0.35788912829E+03  0.35788912829E+03  0.00000000000E+00 0. -1.
         -3   -1    0    0    0  501 -0.00000000000E+00 -0.00000000000E+00 -0.10454548331E+03  0.10454548331E+03  0.00000000000E+00 0.  1.
         23    2    1    2    0    0  0.57487314998E+02  0.33618047154E+00  0.44630318070E+02  0.13791783404E+03  0.11715186406E+03 0.  0.
         23    2    1    2    0    0 -0.58184791447E+02 -0.47618502493E+01  0.14958653050E+03  0.18315394539E+03  0.88097062568E+02 0.  0.
        -11    1    4    4    0    0 -0.24687909363E+02  0.11578443610E+02 -0.17223863145E+01  0.27322515253E+02  0.00000000000E+00 0.  1.
         11    1    4    4    0    0 -0.33496882085E+02 -0.16340293859E+02  0.15130891681E+03  0.15583143014E+03  0.00000000000E+00 0. -1.
        -11    1    3    3    0    0  0.76953138866E+02 -0.13364568347E+02 -0.96003910845E+01  0.78692850866E+02  0.00000000000E+00 0.  1.
         11    1    3    3    0    0 -0.19465823868E+02  0.13700748818E+02  0.54230709154E+02  0.59224983178E+02  0.00000000000E+00 0. -1.
         21    1    1    2  502  503 -0.10343153425E+02 -0.18449366461E+02  0.95045579303E+02  0.97370540158E+02  0.00000000000E+00 0. -1.
         21    1    1    2  503  501  0.11040629875E+02  0.22875036239E+02 -0.35918782889E+02  0.43992291998E+02  0.00000000000E+00 0.  1.
<scales pt_clust_5="13000.00000" pt_clust_6="13000.00000" pt_clust_7="13000.00000" pt_clust_8="13000.00000" pt_clust_9="21.15089" pt_clust_10="25.07440"></scales>
<clustering>
<clus scale="   21.151">  1  9  2 -1</clus>
<clus scale="   25.074">  2 10  1 -1</clus>
<clus scale="   88.097">  5  6 -1 -1</clus>
<clus scale="  107.918">  1  5  2 -1</clus>
<clus scale="  117.152">  7  8 -1 -1</clus>
<clus scale="   21.151">  1  5  2 -1</clus>
</clustering>
</event>
<event>
10    2  0.2445576E-006  0.1601629E+03  0.7546771E-02  0.1193464E+00
         -2   -1    0    0    0  501 -0.00000000000E+00  0.00000000000E+00  0.37358609301E+03  0.37358609301E+03  0.00000000000E+00 0.  1.
          2   -1    0    0  502    0  0.00000000000E+00 -0.00000000000E+00 -0.37850634764E+03  0.37850634764E+03  0.00000000000E+00 0. -1.
         23    2    1    2    0    0 -0.14668567498E+03  0.93906719853E+02  0.89359207420E+02  0.22715823111E+03  0.11524163629E+03 0.  0.
         23    2    1    2    0    0  0.98631595903E+02 -0.12007040223E+02 -0.20876580724E+03  0.24840044405E+03  0.90814412974E+02 0.  0.
        -11    1    4    4    0    0  0.21519177392E+02 -0.41057935196E+02 -0.11253989408E+03  0.12171300997E+03  0.00000000000E+00 0.  1.
         11    1    4    4    0    0  0.77112418511E+02  0.29050894973E+02 -0.96225913167E+02  0.12668743407E+03  0.00000000000E+00 0. -1.
        -13    1    3    3    0    0 -0.64839367509E+02  0.97682935578E+02  0.85547842831E+02  0.14513625631E+03  0.00000000000E+00 0.  1.
         13    1    3    3    0    0 -0.81846307467E+02 -0.37762157254E+01  0.38113645894E+01  0.82021974807E+02  0.00000000000E+00 0. -1.
         21    1    1    2  502  503  0.99190182540E+01  0.19996798756E+02 -0.63844475109E+02  0.67634132548E+02  0.00000000000E+00 0. -1.
         21    1    1    2  503  501  0.38135060819E+02 -0.10189647839E+03  0.17833082031E+03  0.20889963294E+03  0.00000000000E+00 0. -1.
<scales pt_clust_5="13000.00000" pt_clust_6="13000.00000" pt_clust_7="13000.00000" pt_clust_8="13000.00000" pt_clust_9="22.32171" pt_clust_10="108.05640"></scales>
<clustering>
<clus scale="   22.322">  2  9  1 -1</clus>
<clus scale="   90.814">  5  6 -1 -1</clus>
<clus scale="  108.056">  1 10  2 -1</clus>
<clus scale="  115.242">  7  8 -1 -1</clus>
<clus scale="  143.592">  2  5  1 -1</clus>
<clus scale="   22.322">  2  5  1 -1</clus>
</clustering>
</event>
<event>
10    2  0.2445576E-006  0.2824149E+03  0.7546771E-02  0.1094462E+00
         -1   -1    0    0    0  501 -0.00000000000E+00  0.00000000000E+00  0.13815454572E+03  0.13815454572E+03  0.00000000000E+00 0.  1.
          1   -1    0    0  502    0  0.00000000000E+00 -0.00000000000E+00 -0.92071315430E+03  0.92071315430E+03  0.00000000000E+00 0. -1.
         23    2    1    2    0    0  0.22551316074E+03 -0.11697728202E+03 -0.27339408395E+03  0.38406173433E+03  0.90659916508E+02 0.  0.
         23    2    1    2    0    0 -0.25155659393E+03  0.11253397094E+03 -0.47909136768E+03  0.56039914650E+03  0.92596167508E+02 0.  0.
        -11    1    4    4    0    0 -0.19719611800E+03  0.11328233610E+03 -0.32235725101E+03  0.39450398466E+03  0.00000000000E+00 0.  1.
         11    1    4    4    0    0 -0.54360475931E+02 -0.74836516097E+00 -0.15673411667E+03  0.16589516184E+03  0.00000000000E+00 0. -1.
        -11    1    3    3    0    0  0.57751787507E+02  0.83412492624E+01 -0.79989658937E+02  0.99011064717E+02  0.00000000000E+00 0.  1.
         11    1    3    3    0    0  0.16776137323E+03 -0.12531853128E+03 -0.19340442501E+03  0.28505066961E+03  0.00000000000E+00 0. -1.
         21    1    1    2  502  503  0.77338876190E+01  0.24375501529E+02 -0.65215421563E+02  0.70050191307E+02  0.00000000000E+00 0. -1.
         21    1    1    2  503  501  0.18309545577E+02 -0.19932190447E+02  0.35142264614E+02  0.44356627886E+02  0.00000000000E+00 0. -1.
<scales pt_clust_5="13000.00000" pt_clust_6="13000.00000" pt_clust_7="13000.00000" pt_clust_8="13000.00000" pt_clust_9="25.57300" pt_clust_10="26.99690"></scales>
<clustering>
<clus scale="   25.573">  2  9  1 -1</clus>
<clus scale="   26.997">  1 10  2 -1</clus>
<clus scale="   90.660">  7  8 -1 -1</clus>
<clus scale="   92.596">  5  6 -1 -1</clus>
<clus scale="  281.786">  1  7  2 -1</clus>
<clus scale="   25.573">  2  5  1 -1</clus>
</clustering>
</event>
<event>
10    2  0.2445576E-006  0.1704950E+03  0.7546771E-02  0.1199349E+00
         -1   -1    0    0    0  501 -0.00000000000E+00  0.00000000000E+00  0.18195894673E+03  0.18195894673E+03  0.00000000000E+00 0.  1.
          1   -1    0    0  502    0  0.00000000000E+00 -0.00000000000E+00 -0.42139048258E+03  0.42139048258E+03  0.00000000000E+00 0. -1.
         23    2    1    2    0    0  0.38917469072E+02  0.29703379362E+02  0.62812506938E+01  0.10738116518E+03  0.95364565646E+02 0.  0.
         23    2    1    2    0    0  0.92940084380E+02  0.10060971931E+03 -0.21613465330E+03  0.27007169892E+03  0.86396523628E+02 0.  0.
        -13    1    4    4    0    0  0.43822272745E+02  0.88104754037E+02 -0.18776605619E+03  0.21198804478E+03  0.00000000000E+00 0. -1.
         13    1    4    4    0    0  0.49117811635E+02  0.12504965276E+02 -0.28368597116E+02  0.58083654144E+02  0.00000000000E+00 0.  1.
        -13    1    3    3    0    0  0.70651460595E+02  0.15581109098E+02  0.65560478916E+01  0.72645589054E+02  0.00000000000E+00 0. -1.
         13    1    3    3    0    0 -0.31733991523E+02  0.14122270264E+02 -0.27479719780E+00  0.34735576128E+02  0.00000000000E+00 0.  1.
         21    1    1    2  502  503 -0.92846971892E+02 -0.14635019391E+03 -0.48043860846E+02  0.17985314012E+03  0.00000000000E+00 0.  1.
         21    1    1    2  503  501 -0.39010581561E+02  0.16037095233E+02  0.18465727609E+02  0.46043425083E+02  0.00000000000E+00 0. -1.
<scales pt_clust_5="13000.00000" pt_clust_6="13000.00000" pt_clust_7="13000.00000" pt_clust_8="13000.00000" pt_clust_9="146.98363" pt_clust_10="42.17836"></scales>
<clustering>
<clus scale="   42.178">  1 10  2 -1</clus>
<clus scale="   86.397">  5  6 -1 -1</clus>
<clus scale="   95.365">  7  8 -1 -1</clus>
<clus scale="  104.674">  1  7  2 -1</clus>
<clus scale="  146.984">  1  9  2 -1</clus>
<clus scale="  170.495">  2  5  1 -1</clus>
</clustering>
</event>
<event>
10    2  0.2445576E-006  0.1486314E+03  0.7546771E-02  0.1202774E+00
         -3   -1    0    0    0  501 -0.00000000000E+00  0.00000000000E+00  0.54775119371E+03  0.54775119371E+03  0.00000000000E+00 0.  1.
          3   -1    0    0  502    0  0.00000000000E+00 -0.00000000000E+00 -0.16856869753E+03  0.16856869753E+03  0.00000000000E+00 0. -1.
         23    2    1    2    0    0 -0.11878665740E+03  0.94560609379E+01  0.32048380091E+03  0.35452476995E+03  0.93692362553E+02 0.  0.
         23    2    1    2    0    0  0.99641352356E+02 -0.56594500337E+02  0.10363012315E+03  0.17909358535E+03  0.90575787718E+02 0.  0.
        -11    1    3    3    0    0 -0.35632128374E+02 -0.40816828595E+02  0.10544948266E+03  0.11855486267E+03  0.00000000000E+00 0. -1.
         11    1    3    3    0    0 -0.83154529021E+02  0.50272889533E+02  0.21503431825E+03  0.23596990728E+03  0.00000000000E+00 0.  1.
        -13    1    4    4    0    0  0.66364203438E+02 -0.81010364189E+02  0.76803518085E+02  0.12986788284E+03  0.00000000000E+00 0. -1.
         13    1    4    4    0    0  0.33277148917E+02  0.24415863851E+02  0.26826605065E+02  0.49225702504E+02  0.00000000000E+00 0.  1.
         21    1    1    2  502  503 -0.17832708909E+02  0.11112129587E+02 -0.10293089052E+03  0.10505357279E+03  0.00000000000E+00 0. -1.
         21    1    1    2  503  501  0.36978013948E+02  0.36026309813E+02  0.57999462653E+02  0.77647963156E+02  0.00000000000E+00 0. -1.
<scales pt_clust_5="13000.00000" pt_clust_6="13000.00000" pt_clust_7="13000.00000" pt_clust_8="13000.00000" pt_clust_9="21.01154" pt_clust_10="50.95738"></scales>
<clustering>
<clus scale="   21.012">  2  9  1 -1</clus>
<clus scale="   50.957">  2 10  1 -1</clus>
<clus scale="   90.576">  7  8 -1 -1</clus>
<clus scale="   93.692">  5  6 -1 -1</clus>
<clus scale="  146.687">  2  7  1 -1</clus>
<clus scale="   21.012">  2  5  1 -1</clus>
</clustering>
</event>
<event>
10    2  0.2445576E-006  0.1556463E+03  0.7546771E-02  0.1194656E+00
         -1   -1    0    0    0  501 -0.00000000000E+00  0.00000000000E+00  0.16748801666E+03  0.16748801666E+03  0.00000000000E+00 0.  1.
          1   -1    0    0  502    0  0.00000000000E+00 -0.00000000000E+00 -0.72405936048E+03  0.72405936048E+03  0.00000000000E+00 0. -1.
         23    2    1    2    0    0 -0.11355805548E+03 -0.53566824262E+01  0.62963721373E+02  0.15966565426E+03  0.92760794150E+02 0.  0.
         23    2    1    2    0    0  0.19660059631E+03  0.11034543281E+03 -0.30715282553E+03  0.39087343009E+03  0.87242599150E+02 0.  0.
        -11    1    4    4    0    0  0.17251358608E+03  0.99168703022E+02 -0.30508140332E+03  0.36423897608E+03  0.00000000000E+00 0. -1.
         11    1    4    4    0    0  0.24087010231E+02  0.11176729785E+02 -0.20714222103E+01  0.26634454012E+02  0.00000000000E+00 0.  1.
        -11    1    3    3    0    0 -0.73161530662E+02 -0.47067861748E+02  0.49378975423E+02  0.10003137704E+03  0.00000000000E+00 0.  1.
         11    1    3    3    0    0 -0.40396524818E+02  0.41711179321E+02  0.13584745950E+02  0.59634277226E+02  0.00000000000E+00 0. -1.
         21    1    1    2  502  503 -0.51204671565E+02 -0.47774061306E+02 -0.18438178361E+03  0.19723316519E+03  0.00000000000E+00 0.  1.
         21    1    1    2  503  501 -0.31837869266E+02 -0.57214689075E+02 -0.12800045606E+03  0.14377512760E+03  0.00000000000E+00 0.  1.
<scales pt_clust_5="13000.00000" pt_clust_6="13000.00000" pt_clust_7="13000.00000" pt_clust_8="13000.00000" pt_clust_9="136.76254" pt_clust_10="27.09656"></scales>
<clustering>
<clus scale="   27.097">  9 10 -1 -1</clus>
<clus scale="   87.243">  5  6 -1 -1</clus>
<clus scale="   92.761">  7  8 -1 -1</clus>
<clus scale="  136.763">  2  9  1 -1</clus>
<clus scale="  152.422">  2  5  1 -1</clus>
<clus scale="  136.763">  2  5  1 -1</clus>
</clustering>
</event>
<event>
10    2  0.2445576E-006  0.1357469E+03  0.7546771E-02  0.1229845E+00
         -1   -1    0    0    0  501 -0.00000000000E+00  0.00000000000E+00  0.20257218484E+03  0.20257218484E+03  0.00000000000E+00 0.  1.
          1   -1    0    0  502    0  0.00000000000E+00 -0.00000000000E+00 -0.50834594714E+03  0.50834594714E+03  0.00000000000E+00 0. -1.
         23    2    1    2    0    0 -0.16908790426E+02  0.58878238465E+02 -0.48293737247E+02  0.11999824800E+03  0.91185197852E+02 0.  0.
         23    2    1    2    0    0  0.24174488110E+02  0.80460945724E+02 -0.20571657447E+03  0.23951434563E+03  0.89383684699E+02 0.  0.
        -11    1    3    3    0    0  0.21415934814E+01  0.42492017398E+02  0.20158208398E+02  0.47079839964E+02  0.00000000000E+00 0.  1.
         11    1    3    3    0    0 -0.19050383907E+02  0.16386221067E+02 -0.68451945645E+02  0.72918408035E+02  0.00000000000E+00 0. -1.
        -11    1    4    4    0    0  0.58188095421E+02  0.49071189349E+02 -0.13549154891E+03  0.15540848078E+03  0.00000000000E+00 0. -1.
         11    1    4    4    0    0 -0.34013607311E+02  0.31389756375E+02 -0.70225025560E+02  0.84105864852E+02  0.00000000000E+00 0.  1.
         21    1    1    2  502  503  0.10924950376E+02 -0.12770240716E+03 -0.18021911729E+03  0.22114743854E+03  0.00000000000E+00 0. -1.
         21    1    1    2  503  501 -0.18190648061E+02 -0.11636777027E+02  0.12845566670E+03  0.13025809980E+03  0.00000000000E+00 0.  1.
<scales pt_clust_5="13000.00000" pt_clust_6="13000.00000" pt_clust_7="13000.00000" pt_clust_8="13000.00000" pt_clust_9="102.16539" pt_clust_10="21.59431"></scales>
<clustering>
<clus scale="   21.594">  1 10  2 -1</clus>
<clus scale="   89.384">  7  8 -1 -1</clus>
<clus scale="   91.185">  5  6 -1 -1</clus>
<clus scale="  108.671">  1  5  2 -1</clus>
<clus scale="  102.165">  1  9  2 -1</clus>
<clus scale="  135.747">  2  5  1 -1</clus>
</clustering>
</event>
<event>
10    2  0.2445576E-006  0.1500608E+03  0.7546771E-02  0.1202085E+00
          1   -1    0    0  502    0  0.00000000000E+00  0.00000000000E+00  0.43386829140E+03  0.43386829140E+03  0.00000000000E+00 0. -1.
         -1   -1    0    0    0  501 -0.00000000000E+00 -0.00000000000E+00 -0.20601810049E+03  0.20601810049E+03  0.00000000000E+00 0.  1.
         23    2    1    2    0    0  0.16360508105E+03  0.50035281955E+01  0.14576700163E+03  0.23848252892E+03  0.93990637808E+02 0.  0.
         23    2    1    2    0    0 -0.75743243749E+02 -0.71945058072E+02  0.15773039805E+03  0.20745818522E+03  0.85128666090E+02 0.  0.
        -11    1    4    4    0    0 -0.83942717988E+02 -0.39614322462E+02  0.78758849135E+02  0.12173179849E+03  0.00000000000E+00 0.  1.
         11    1    4    4    0    0  0.81994742390E+01 -0.32330735610E+02  0.78971548915E+02  0.85726386725E+02  0.00000000000E+00 0. -1.
        -13    1    3    3    0    0  0.15680976322E+03 -0.24059159155E+02  0.12709703501E+03  0.20327764582E+03  0.00000000000E+00 0. -1.
         13    1    3    3    0    0  0.67953178244E+01  0.29062687351E+02  0.18669966621E+02  0.35204883099E+02  0.00000000000E+00 0.  1.
         21    1    1    2  502  503 -0.65699196331E+02  0.34920427203E+02  0.30854867574E+02  0.80547150711E+02  0.00000000000E+00 0.  1.
         21    1    1    2  503  501 -0.22162640968E+02  0.32021102674E+02 -0.10650207634E+03  0.11339852704E+03  0.00000000000E+00 0.  1.
<scales pt_clust_5="13000.00000" pt_clust_6="13000.00000" pt_clust_7="13000.00000" pt_clust_8="13000.00000" pt_clust_9="83.47952" pt_clust_10="38.94270"></scales>
<clustering>
<clus scale="   38.943">  2 10  1 -1</clus>
<clus scale="   83.480">  2  9  1 -1</clus>
<clus scale="   85.129">  5  6 -1 -1</clus>
<clus scale="   93.991">  7  8 -1 -1</clus>
<clus scale="  144.675">  1  5  2 -1</clus>
<clus scale="  144.675">  1  5  2 -1</clus>
</clustering>
</event>
<event>
10    2  0.2445576E-006  0.1247047E+03  0.7546771E-02  0.1242092E+00
         -1   -1    0    0    0  501 -0.00000000000E+00  0.00000000000E+00  0.89385266835E+02  0.89385266835E+02  0.00000000000E+00 0.  1.
          1   -1    0    0  502    0  0.00000000000E+00 -0.00000000000E+00 -0.25466638561E+03  0.25466638561E+03  0.00000000000E+00 0. -1.
         23    2    1    2    0    0 -0.10509646507E+02 -0.66479029274E+02 -0.26220390910E+02  0.11456356707E+03  0.88923495188E+02 0.  0.
         23    2    1    2    0    0 -0.16470377349E+02  0.51749284295E+02 -0.10774804295E+03  0.16158705264E+03  0.10747777941E+03 0.  0.
        -13    1    4    4    0    0 -0.48641583945E+02  0.68604641513E+02 -0.75547363375E+02  0.11304868260E+03  0.00000000000E+00 0. -1.
         13    1    4    4    0    0  0.32171206596E+02 -0.16855357218E+02 -0.32200679570E+02  0.48538370034E+02  0.00000000000E+00 0.  1.
        -13    1    3    3    0    0  0.24041103871E+02 -0.72414543149E+02 -0.20843639762E+02  0.79096763861E+02  0.00000000000E+00 0.  1.
         13    1    3    3    0    0 -0.34550750378E+02  0.59355138750E+01 -0.53767511485E+01  0.35466803205E+02  0.00000000000E+00 0. -1.
         21    1    1    2  502  503  0.54520960567E+01  0.23563881880E+02 -0.36758832686E+02  0.44002200639E+02  0.00000000000E+00 0. -1.
         21    1    1    2  503  501  0.21527927800E+02 -0.88341369018E+01  0.54461477694E+01  0.23898832098E+02  0.00000000000E+00 0. -1.
<scales pt_clust_5="13000.00000" pt_clust_6="13000.00000" pt_clust_7="13000.00000" pt_clust_8="13000.00000" pt_clust_9="24.03023" pt_clust_10="23.27002"></scales>
<clustering>
<clus scale="   23.270">  1 10  2 -1</clus>
<clus scale="   24.030">  2  9  1 -1</clus>
<clus scale="   88.923">  7  8 -1 -1</clus>
<clus scale="  107.478">  5  6 -1 -1</clus>
<clus scale="  109.120">  1  7  2 -1</clus>
<clus scale="   24.030">  2  5  1 -1</clus>
</clustering>
</event>
<event>
10    2  0.2445576E-006  0.1683077E+03  0.7546771E-02  0.1185471E+00
          2   -1    0    0  502    0  0.00000000000E+00  0.00000000000E+00  0.56692275639E+03  0.56692275639E+03  0.00000000000E+00 0. -1.
         -2   -1    0    0    0  501 -0.00000000000E+00 -0.00000000000E+00 -0.81345516325E+02  0.81345516325E+02  0.00000000000E+00 0.  1.
         23    2    1    2    0    0 -0.11463240763E+03  0.51907987220E+02  0.56358907672E+02  0.18260550412E+03  0.11972224374E+03 0.  0.
         23    2    1    2    0    0  0.92024742891E+02 -0.31729839151E+02  0.32446679102E+03  0.35009317276E+03  0.88380965945E+02 0.  0.
        -13    1    4    4    0    0  0.59322527713E+02 -0.43910477471E+02  0.29598608733E+03  0.30504926851E+03  0.00000000000E+00 0. -1.
         13    1    4    4    0    0  0.32702215178E+02  0.12180638320E+02  0.28480703695E+02  0.45043904253E+02  0.00000000000E+00 0.  1.
        -13    1    3    3    0    0 -0.63204690762E+02  0.89776138360E+02  0.33946398862E+02  0.11492147732E+03  0.00000000000E+00 0. -1.
         13    1    3    3    0    0 -0.51427716869E+02 -0.37868151141E+02  0.22412508810E+02  0.67684026803E+02  0.00000000000E+00 0.  1.
         21    1    1    2  502  503  0.20765480196E+02  0.45430193314E+01  0.67952067253E+02  0.71199210926E+02  0.00000000000E+00 0.  1.
         21    1    1    2  503  501  0.18421845431E+01 -0.24721167400E+02  0.36799474121E+02  0.44370384910E+02  0.00000000000E+00 0.  1.
<scales pt_clust_5="13000.00000" pt_clust_6="13000.00000" pt_clust_7="13000.00000" pt_clust_8="13000.00000" pt_clust_9="21.25663" pt_clust_10="24.60594"></scales>
<clustering>
<clus scale="   21.257">  1  9  2 -1</clus>
<clus scale="   24.606">  1 10  2 -1</clus>
<clus scale="   88.381">  5  6 -1 -1</clus>
<clus scale="  119.722">  7  8 -1 -1</clus>
<clus scale="  147.666">  1  5  2 -1</clus>
<clus scale="   21.257">  1  5  2 -1</clus>
</clustering>
</event>
<event>
10    2  0.2445576E-006  0.1190015E+03  0.7546771E-02  0.1245324E+00
         -1   -1    0    0    0  501 -0.00000000000E+00  0.00000000000E+00  0.33539956022E+03  0.33539956022E+03  0.00000000000E+00 0.  1.
          1   -1    0    0  502    0  0.00000000000E+00 -0.00000000000E+00 -0.71557972416E+03  0.71557972416E+03  0.00000000000E+00 0. -1.
         23    2    1    2    0    0 -0.44668957157E+02  0.10394447750E+03  0.28771402312E+03  0.32190938441E+03  0.89702410990E+02 0.  0.
         23    2    1    2    0    0  0.76885960033E+02 -0.34044049786E+02 -0.54591506961E+03  0.55987663083E+03  0.91477485491E+02 0.  0.
        -11    1    3    3    0    0  0.15067416980E+02  0.17792783171E+02  0.13295922305E+03  0.13498801866E+03  0.00000000000E+00 0.  1.
         11    1    3    3    0    0 -0.59736374137E+02  0.86151694328E+02  0.15475480007E+03  0.18692136575E+03  0.00000000000E+00 0. -1.
        -13    1    4    4    0    0  0.24063638655E+02  0.31199154187E+02 -0.20730420682E+03  0.21101535511E+03  0.00000000000E+00 0.  1.
         13    1    4    4    0    0  0.52822321378E+02 -0.65243203973E+02 -0.33861086279E+03  0.34886127572E+03  0.00000000000E+00 0. -1.
         21    1    1    2  502  503 -0.37165589834E+02 -0.29677330759E+02 -0.11947046644E+03  0.12858933618E+03  0.00000000000E+00 0.  1.
         21    1    1    2  503  501  0.49485869584E+01 -0.40223096954E+02 -0.25086510130E+01  0.40603932954E+02  0.00000000000E+00 0.  1.
<scales pt_clust_5="13000.00000" pt_clust_6="13000.00000" pt_clust_7="13000.00000" pt_clust_8="13000.00000" pt_clust_9="47.86934" pt_clust_10="40.52636"></scales>
<clustering>
<clus scale="   40.526">  1 10  2 -1</clus>
<clus scale="   47.869">  2  9  1 -1</clus>
<clus scale="   89.702">  5  6 -1 -1</clus>
<clus scale="   91.477">  7  8 -1 -1</clus>
<clus scale="  117.642">  1  5  2 -1</clus>
<clus scale="   47.869">  2  5  1 -1</clus>
</clustering>
</event>
<event>
10    2  0.2445576E-006  0.9794809E+02  0.7546771E-02  0.1285232E+00
          1   -1    0    0  502    0  0.00000000000E+00  0.00000000000E+00  0.69168236209E+03  0.69168236209E+03  0.00000000000E+00 0. -1.
         -1   -1    0    0    0  501 -0.00000000000E+00 -0.00000000000E+00 -0.50648799803E+02  0.50648799803E+02  0.00000000000E+00 0.  1.
         23    2    1    2    0    0 -0.68726827091E+02 -0.81953304218E+01  0.16080584836E+03  0.19711133073E+03  0.90574917231E+02 0.  0.
         23    2    1    2    0    0  0.24025898480E+01 -0.64118619599E+01  0.15161804713E+03  0.17731321497E+03  0.91679111993E+02 0.  0.
        -11    1    4    4    0    0  0.13775317840E+01 -0.34586178643E+02  0.14841510757E+02  0.37661277043E+02  0.00000000000E+00 0.  1.
         11    1    4    4    0    0  0.10250580640E+01  0.28174316683E+02  0.13677653637E+03  0.13965193793E+03  0.00000000000E+00 0. -1.
        -13    1    3    3    0    0 -0.89551122379E+02 -0.10606269000E+02  0.14540840288E+03  0.17110084772E+03  0.00000000000E+00 0.  1.
         13    1    3    3    0    0  0.20824295288E+02  0.24109385783E+01  0.15397445479E+02  0.26010483008E+02  0.00000000000E+00 0. -1.
         21    1    1    2  502  503  0.50966771833E+02  0.47666074572E+02  0.32368707841E+03  0.33112383065E+03  0.00000000000E+00 0. -1.
         21    1    1    2  503  501  0.15357465410E+02 -0.33058882191E+02  0.49225883799E+01  0.36782785537E+02  0.00000000000E+00 0.  1.
<scales pt_clust_5="13000.00000" pt_clust_6="13000.00000" pt_clust_7="13000.00000" pt_clust_8="13000.00000" pt_clust_9="68.66610" pt_clust_10="36.45191"></scales>
<clustering>
<clus scale="   36.452">  2 10  1 -1</clus>
<clus scale="   68.666">  1  9  2 -1</clus>
<clus scale="   90.575">  7  8 -1 -1</clus>
<clus scale="   91.679">  5  6 -1 -1</clus>
<clus scale="   96.915">  2  7  1 -1</clus>
<clus scale="   68.666">  1  5  2 -1</clus>
</clustering>
</event>
<event>
10    2  0.2445576E-006  0.1070776E+03  0.7546771E-02  0.1270964E+00
         -2   -1    0    0    0  501 -0.00000000000E+00  0.00000000000E+00  0.85919503275E+02  0.85919503275E+02  0.00000000000E+00 0.  1.
          2   -1    0    0  502    0  0.00000000000E+00 -0.00000000000E+00 -0.43537376960E+03  0.43537376960E+03  0.00000000000E+00 0. -1.
         23    2    1    2    0    0 -0.13831754932E+02 -0.55373339976E+02 -0.10204028328E+03  0.14485914357E+03  0.85524428312E+02 0.  0.
         23    2    1    2    0    0 -0.26248601109E+02  0.44441036423E+02 -0.22749566126E+03  0.25240985527E+03  0.96397429245E+02 0.  0.
        -11    1    4    4    0    0 -0.60861574291E+02  0.21000141743E+02 -0.16602655045E+03  0.17807288573E+03  0.00000000000E+00 0. -1.
         11    1    4    4    0    0  0.34612973182E+02  0.23440894680E+02 -0.61469110815E+02  0.74336969539E+02  0.00000000000E+00 0.  1.
        -13    1    3    3    0    0 -0.43624649178E+02 -0.29744329526E+02 -0.88943019918E+02  0.10343450076E+03  0.00000000000E+00 0. -1.
         13    1    3    3    0    0  0.29792894247E+02 -0.25629010450E+02 -0.13097263363E+02  0.41424642809E+02  0.00000000000E+00 0.  1.
         21    1    1    2  502  503  0.25179471109E+02 -0.73347166388E+01 -0.66682448269E+02  0.71654397916E+02  0.00000000000E+00 0. -1.
         21    1    1    2  503  501  0.14900884932E+02  0.18267020192E+02  0.46764126491E+02  0.52369876121E+02  0.00000000000E+00 0.  1.
<scales pt_clust_5="13000.00000" pt_clust_6="13000.00000" pt_clust_7="13000.00000" pt_clust_8="13000.00000" pt_clust_9="26.89598" pt_clust_10="23.57372"></scales>
<clustering>
<clus scale="   23.574">  1 10  2 -1</clus>
<clus scale="   26.896">  2  9  1 -1</clus>
<clus scale="   85.524">  7  8 -1 -1</clus>
<clus scale="   96.397">  5  6 -1 -1</clus>
<clus scale="   97.404">  1  7  2 -1</clus>
<clus scale="   26.896">  2  5  1 -1</clus>
</clustering>
</event>
<event>
10    2  0.2445576E-006  0.9653401E+02  0.7546771E-02  0.1288072E+00
          1   -1    0    0  502    0  0.00000000000E+00  0.00000000000E+00  0.52843478183E+03  0.52843478183E+03  0.00000000000E+00 0. -1.
         -1   -1    0    0    0  501 -0.00000000000E+00 -0.00000000000E+00 -0.22261112145E+03  0.22261112145E+03  0.00000000000E+00 0.  1.
         23    2    1    2    0    0  0.38463159242E+01  0.59112074228E+02  0.21277836791E+02  0.11015249425E+03  0.90397976668E+02 0.  0.
         23    2    1    2    0    0  0.25237279206E+02 -0.41103786149E+02  0.21023535241E+03  0.23410817182E+03  0.91001600040E+02 0.  0.
        -13    1    4    4    0    0 -0.62799488265E+01 -0.41956633277E+02  0.19411593077E+03  0.19869773882E+03  0.00000000000E+00 0. -1.
         13    1    4    4    0    0  0.31517228033E+02  0.85284712746E+00  0.16119421646E+02  0.35410433000E+02  0.00000000000E+00 0.  1.
        -13    1    3    3    0    0  0.24859477489E+02  0.25427340971E+02 -0.29143309882E+02  0.45976905081E+02  0.00000000000E+00 0.  1.
         13    1    3    3    0    0 -0.21013161565E+02  0.33684733257E+02  0.50421146674E+02  0.64175589171E+02  0.00000000000E+00 0. -1.
         21    1    1    2  502  503 -0.22065587165E+02  0.23169588636E+02  0.23683094113E+03  0.23898245679E+03  0.00000000000E+00 0.  1.
         21    1    1    2  503  501 -0.70180079655E+01 -0.41177876714E+02 -0.16252046995E+03  0.16780278043E+03  0.00000000000E+00 0.  1.
<scales pt_clust_5="13000.00000" pt_clust_6="13000.00000" pt_clust_7="13000.00000" pt_clust_8="13000.00000" pt_clust_9="31.99562" pt_clust_10="41.59836"></scales>
<clustering>
<clus scale="   31.996">  1  9  2 -1</clus>
<clus scale="   41.598">  2 10  1 -1</clus>
<clus scale="   90.398">  7  8 -1 -1</clus>
<clus scale="   91.002">  5  6 -1 -1</clus>
<clus scale="   95.965">  2  7  1 -1</clus>
<clus scale="   31.996">  1  5  2 -1</clus>
</clustering>
</event>
<event>
10    2  0.2445576E-006  0.1373989E+03  0.7546771E-02  0.1217870E+00
         -2   -1    0    0    0  501 -0.00000000000E+00  0.00000000000E+00  0.31202726123E+03  0.31202726123E+03  0.00000000000E+00 0.  1.
          2   -1    0    0  502    0  0.00000000000E+00 -0.00000000000E+00 -0.19142721682E+03  0.19142721682E+03  0.00000000000E+00 0. -1.
         23    2    1    2    0    0 -0.86862744075E+02 -0.12816512718E+03 -0.33411029770E+02  0.18024434736E+03  0.86024948191E+02 0.  0.
         23    2    1    2    0    0  0.65433365906E+02  0.34550431787E+02 -0.19615546861E+02  0.11848374232E+03  0.90434339739E+02 0.  0.
        -11    1    3    3    0    0  0.17529136976E+02 -0.14107182396E+02 -0.44852909847E+01  0.22943432034E+02  0.00000000000E+00 0.  1.
         11    1    3    3    0    0 -0.10439188105E+03 -0.11405794478E+03 -0.28925738786E+02  0.15730091532E+03  0.00000000000E+00 0. -1.
        -11    1    4    4    0    0  0.67038477109E+02  0.59976262360E+02 -0.74730499734E+01  0.90261597236E+02  0.00000000000E+00 0.  1.
         11    1    4    4    0    0 -0.16051112023E+01 -0.25425830573E+02 -0.12142496887E+02  0.28222145080E+02  0.00000000000E+00 0. -1.
         21    1    1    2  502  503  0.90673138497E+01  0.68919316581E+02  0.74798728740E+02  0.10211238025E+03  0.00000000000E+00 0.  1.
         21    1    1    2  503  501  0.12362064319E+02  0.24695378810E+02  0.98827892294E+02  0.10261400813E+03  0.00000000000E+00 0.  1.
<scales pt_clust_5="13000.00000" pt_clust_6="13000.00000" pt_clust_7="13000.00000" pt_clust_8="13000.00000" pt_clust_9="80.52660" pt_clust_10="27.61670"></scales>
<clustering>
<clus scale="   27.617">  1 10  2 -1</clus>
<clus scale="   80.527">  1  9  2 -1</clus>
<clus scale="   86.025">  5  6 -1 -1</clus>
<clus scale="   90.434">  7  8 -1 -1</clus>
<clus scale="  134.538">  1  5  2 -1</clus>
<clus scale="  137.399">  2  5  1 -1</clus>
</clustering>
</event>
<event>
10    2  0.2445576E-006  0.9924108E+02  0.7546771E-02  0.1284491E+00
         -2   -1    0    0    0  501 -0.00000000000E+00  0.00000000000E+00  0.70067310919E+02  0.70067310919E+02  0.00000000000E+00 0.  1.
          2   -1    0    0  502    0  0.00000000000E+00 -0.00000000000E+00 -0.30443735499E+03  0.30443735499E+03  0.00000000000E+00 0. -1.
         23    2    1    2    0    0 -0.16879603605E+02 -0.24569963187E+02 -0.41346883170E+02  0.10791930756E+03  0.95123120680E+02 0.  0.
         23    2    1    2    0    0  0.41297518237E+02  0.71077110045E+01 -0.14869661196E+03  0.17887006236E+03  0.90154379989E+02 0.  0.
        -13    1    3    3    0    0 -0.48193135251E+02 -0.40485643110E+02 -0.17054396346E+02  0.65211333509E+02  0.00000000000E+00 0. -1.
         13    1    3    3    0    0  0.31313531646E+02  0.15915679923E+02 -0.24292486824E+02  0.42707974053E+02  0.00000000000E+00 0.  1.
        -13    1    4    4    0    0  0.21507657920E+02  0.48754910994E+02 -0.81474826037E+02  0.97353828754E+02  0.00000000000E+00 0.  1.
         13    1    4    4    0    0  0.19789860317E+02 -0.41647199989E+02 -0.67221785921E+02  0.81516233602E+02  0.00000000000E+00 0. -1.
         21    1    1    2  502  503 -0.18338166355E+02 -0.12663811493E+02 -0.51535483888E+02  0.56147720937E+02  0.00000000000E+00 0. -1.
         21    1    1    2  503  501 -0.60797482769E+01  0.30126063676E+02  0.72089349460E+01  0.31567575053E+02  0.00000000000E+00 0.  1.
<scales pt_clust_5="13000.00000" pt_clust_6="13000.00000" pt_clust_7="13000.00000" pt_clust_8="13000.00000" pt_clust_9="22.28588" pt_clust_10="30.32276"></scales>
<clustering>
<clus scale="   22.286">  2  9  1 -1</clus>
<clus scale="   30.323">  1 10  2 -1</clus>
<clus scale="   90.154">  7  8 -1 -1</clus>
<clus scale="   94.489">  2  7  1 -1</clus>
<clus scale="   95.123">  5  6 -1 -1</clus>
<clus scale="   22.286">  2  5  1 -1</clus>
</clustering>
</event>
<event>
10    2  0.2445576E-006  0.1524177E+03  0.7546771E-02  0.1219774E+00
         -1   -1    0    0    0  501 -0.00000000000E+00  0.00000000000E+00  0.36299709892E+03  0.36299709892E+03  0.00000000000E+00 0.  1.
          1   -1    0    0  502    0  0.00000000000E+00 -0.00000000000E+00 -0.22168565455E+03  0.22168565455E+03  0.00000000000E+00 0. -1.
         23    2    1    2    0    0 -0.11672047814E+03 -0.36909639640E+02  0.48219199305E+02  0.15997988442E+03  0.91008135478E+02 0.  0.
         23    2    1    2    0    0  0.18520834097E+02 -0.46843625578E+02 -0.87611072701E+02  0.13038377514E+03  0.82382535816E+02 0.  0.
        -11    1    4    4    0    0  0.50164957250E+02 -0.21179961683E+02 -0.39119511291E+02  0.67048116128E+02  0.00000000000E+00 0. -1.
         11    1    4    4    0    0 -0.31644123153E+02 -0.25663663895E+02 -0.48491561410E+02  0.63335659013E+02  0.00000000000E+00 0.  1.
        -13    1    3    3    0    0 -0.57434294392E+02 -0.20629833741E+02  0.71711369389E+02  0.94163733528E+02  0.00000000000E+00 0.  1.
         13    1    3    3    0    0 -0.59286183748E+02 -0.16279805899E+02 -0.23492170083E+02  0.65816150895E+02  0.00000000000E+00 0. -1.
         21    1    1    2  502  503  0.11067734110E+03  0.52720795532E+02  0.12962377867E+02  0.12327602911E+03  0.00000000000E+00 0.  1.
         21    1    1    2  503  501 -0.12477697053E+02  0.31032469686E+02  0.16774093990E+03  0.17104306480E+03  0.00000000000E+00 0. -1.
<scales pt_clust_5="13000.00000" pt_clust_6="13000.00000" pt_clust_7="13000.00000" pt_clust_8="13000.00000" pt_clust_9="122.26472" pt_clust_10="33.44708"></scales>
<clustering>
<clus scale="   33.447">  1 10  2 -1</clus>
<clus scale="   82.383">  5  6 -1 -1</clus>
<clus scale="   91.008">  7  8 -1 -1</clus>
<clus scale="   94.687">  2  5  1 -1</clus>
<clus scale="  122.265">  2  9  1 -1</clus>
<clus scale="   94.687">  2  5  1 -1</clus>
</clustering>
</event>
<event>
10    2  0.2445576E-006  0.1005371E+03  0.7546771E-02  0.1286314E+00
         -1   -1    0    0    0  501 -0.00000000000E+00  0.00000000000E+00  0.77317336782E+02  0.77317336782E+02  0.00000000000E+00 0.  1.
          1   -1    0    0  502    0  0.00000000000E+00 -0.00000000000E+00 -0.23746832444E+03  0.23746832444E+03  0.00000000000E+00 0. -1.
         23    2    1    2    0    0  0.20248420589E+02  0.51288905213E+02 -0.42470192910E+02  0.11396174422E+03  0.90238636548E+02 0.  0.
         23    2    1    2    0    0  0.34981538162E+02 -0.34198674116E+02 -0.59898244595E+02  0.10829150045E+03  0.75802322128E+02 0.  0.
        -11    1    3    3    0    0  0.20190762944E+02  0.79465590797E+00  0.23430607895E+02  0.30940132072E+02  0.00000000000E+00 0.  1.
         11    1    3    3    0    0  0.57657645105E-01  0.50494249305E+02 -0.65900800805E+02  0.83021612150E+02  0.00000000000E+00 0. -1.
        -11    1    4    4    0    0  0.43914256796E+02  0.80557178651E+01 -0.42780228079E+02  0.61834492436E+02  0.00000000000E+00 0. -1.
         11    1    4    4    0    0 -0.89327186341E+01 -0.42254391981E+02 -0.17118016516E+02  0.46457008011E+02  0.00000000000E+00 0.  1.
         21    1    1    2  502  503 -0.37101946888E+02 -0.28285055048E+02 -0.53163156414E+02  0.70731322637E+02  0.00000000000E+00 0.  1.
         21    1    1    2  503  501 -0.18128011863E+02  0.11194823951E+02 -0.46193937377E+01  0.21801093916E+02  0.00000000000E+00 0. -1.
<scales pt_clust_5="13000.00000" pt_clust_6="13000.00000" pt_clust_7="13000.00000" pt_clust_8="13000.00000" pt_clust_9="47.69697" pt_clust_10="21.30608"></scales>
<clustering>
<clus scale="   21.306">  1 10  2 -1</clus>
<clus scale="   47.697">  2  9  1 -1</clus>
<clus scale="   75.802">  7  8 -1 -1</clus>
<clus scale="   87.811">  2  7  1 -1</clus>
<clus scale="   90.239">  5  6 -1 -1</clus>
<clus scale="   47.697">  2  5  1 -1</clus>
</clustering>
</event>
<event>
10    2  0.2445576E-006  0.3882612E+03  0.7546771E-02  0.1047925E+00
         -1   -1    0    0    0  501 -0.00000000000E+00  0.00000000000E+00  0.31905757496E+03  0.31905757496E+03  0.00000000000E+00 0.  1.
          1   -1    0    0  502    0  0.00000000000E+00 -0.00000000000E+00 -0.12155762113E+04  0.12155762113E+04  0.00000000000E+00 0. -1.
         23    2    1    2    0    0  0.40659699979E+03  0.40495697704E+02  0.43007902818E+02  0.42082210444E+03  0.90997484088E+02 0.  0.
         23    2    1    2    0    0 -0.36538129397E+03 -0.72381011252E+02 -0.91295619310E+03  0.99022154632E+03  0.91143839680E+02 0.  0.
        -11    1    4    4    0    0 -0.28730748111E+03 -0.94016219854E+02 -0.73130179146E+03  0.79131975111E+03  0.00000000000E+00 0. -1.
         11    1    4    4    0    0 -0.78073812865E+02  0.21635208603E+02 -0.18165440163E+03  0.19890179522E+03  0.00000000000E+00 0.  1.
        -11    1    3    3    0    0  0.17948826478E+03  0.59258383156E+02  0.38480694130E+02  0.19289467849E+03  0.00000000000E+00 0.  1.
         11    1    3    3    0    0  0.22710873501E+03 -0.18762685452E+02  0.45272086880E+01  0.22792742595E+03  0.00000000000E+00 0. -1.
         21    1    1    2  502  503 -0.64068378528E+02  0.33315901049E+02 -0.52288440273E+02  0.89155972184E+02  0.00000000000E+00 0.  1.
         21    1    1    2  503  501  0.22852672711E+02 -0.14305875006E+01  0.25718094237E+02  0.34434163295E+02  0.00000000000E+00 0. -1.
<scales pt_clust_5="13000.00000" pt_clust_6="13000.00000" pt_clust_7="13000.00000" pt_clust_8="13000.00000" pt_clust_9="70.87996" pt_clust_10="22.89741"></scales>
<clustering>
<clus scale="   22.897">  1 10  2 -1</clus>
<clus scale="   70.880">  1  9  2 -1</clus>
<clus scale="   90.997">  7  8 -1 -1</clus>
<clus scale="   91.144">  5  6 -1 -1</clus>
<clus scale="  388.227">  1  7  2 -1</clus>
<clus scale="  388.261">  2  5  1 -1</clus>
</clustering>
</event>
<event>
10    2  0.2445576E-006  0.1193021E+03  0.7546771E-02  0.1258808E+00
          2   -1    0    0  502    0  0.00000000000E+00  0.00000000000E+00  0.57341186642E+03  0.57341186642E+03  0.00000000000E+00 0. -1.
         -2   -1    0    0    0  501 -0.00000000000E+00 -0.00000000000E+00 -0.84511084368E+02  0.84511084368E+02  0.00000000000E+00 0.  1.
         23    2    1    2    0    0  0.57242511597E+02  0.13749947677E+02  0.21465124080E+03  0.25240609690E+03  0.11902905688E+03 0.  0.
         23    2    1    2    0    0  0.24416160387E+02  0.94634689134E+01  0.22477809842E+03  0.24313316212E+03  0.88897890094E+02 0.  0.
        -11    1    3    3    0    0  0.92366106130E+02  0.19842120640E+02  0.17649057505E+03  0.20018524020E+03  0.00000000000E+00 0.  1.
         11    1    3    3    0    0 -0.35123594532E+02 -0.60921729629E+01  0.38160665751E+02  0.52220856703E+02  0.00000000000E+00 0. -1.
        -13    1    4    4    0    0  0.43705306111E+01 -0.27090783968E+02  0.19498756181E+02  0.33663238205E+02  0.00000000000E+00 0. -1.
         13    1    4    4    0    0  0.20045629776E+02  0.36554252881E+02  0.20527934224E+03  0.20946992392E+03  0.00000000000E+00 0.  1.
         21    1    1    2  502  503 -0.24371137162E+02  0.10674224143E+02  0.83495148140E+02  0.87631793035E+02  0.00000000000E+00 0.  1.
         21    1    1    2  503  501 -0.57287534822E+02 -0.33887640734E+02 -0.34023705305E+02  0.74751898727E+02  0.00000000000E+00 0.  1.
<scales pt_clust_5="13000.00000" pt_clust_6="13000.00000" pt_clust_7="13000.00000" pt_clust_8="13000.00000" pt_clust_9="26.60623" pt_clust_10="67.21479"></scales>
<clustering>
<clus scale="   26.606">  1  9  2 -1</clus>
<clus scale="   67.215">  2 10  1 -1</clus>
<clus scale="   88.898">  7  8 -1 -1</clus>
<clus scale="   89.263">  1  7  2 -1</clus>
<clus scale="  119.029">  5  6 -1 -1</clus>
<clus scale="   26.606">  1  5  2 -1</clus>
</clustering>
</event>
<event>
10    2  0.2445576E-006  0.1175886E+03  0.7546771E-02  0.1247649E+00
         -1   -1    0    0    0  501 -0.00000000000E+00  0.00000000000E+00  0.39874532735E+03  0.39874532735E+03  0.00000000000E+00 0.  1.
          1   -1    0    0  502    0  0.00000000000E+00 -0.00000000000E+00 -0.85020536915E+02  0.85020536915E+02  0.00000000000E+00 0. -1.
         23    2    1    2    0    0  0.57983088253E+02 -0.57038100538E+02  0.16494998100E+03  0.20601449553E+03  0.92833683008E+02 0.  0.
         23    2    1    2    0    0 -0.21423082922E+02  0.65127914393E+02  0.15413047864E+03  0.19180547875E+03  0.91282766807E+02 0.  0.
        -11    1    3    3    0    0  0.33834868252E+02  0.15634675818E+02  0.95947901991E+02  0.10293318850E+03  0.00000000000E+00 0.  1.
         11    1    3    3    0    0  0.24148220001E+02 -0.72672776356E+02  0.69002079010E+02  0.10308130704E+03  0.00000000000E+00 0. -1.
        -13    1    4    4    0    0  0.12933373897E+02  0.63083265610E+02  0.14092694795E+03  0.15494249004E+03  0.00000000000E+00 0.  1.
         13    1    4    4    0    0 -0.34356456819E+02  0.20446487829E+01  0.13203530690E+02  0.36862988708E+02  0.00000000000E+00 0. -1.
         21    1    1    2  502  503 -0.27421085362E+02 -0.30433795030E+02 -0.30512562768E+02  0.51079822719E+02  0.00000000000E+00 0. -1.
         21    1    1    2  503  501 -0.91389199694E+01  0.22343981175E+02  0.25156893555E+02  0.34866067261E+02  0.00000000000E+00 0.  1.
<scales pt_clust_5="13000.00000" pt_clust_6="13000.00000" pt_clust_7="13000.00000" pt_clust_8="13000.00000" pt_clust_9="40.67718" pt_clust_10="24.14070"></scales>
<clustering>
<clus scale="   24.141">  1 10  2 -1</clus>
<clus scale="   40.677">  2  9  1 -1</clus>
<clus scale="   91.283">  7  8 -1 -1</clus>
<clus scale="   92.834">  5  6 -1 -1</clus>
<clus scale="  116.368">  2  7  1 -1</clus>
<clus scale="   40.677">  2  5  1 -1</clus>
</clustering>
</event>
<event>
10    2  0.2445576E-006  0.1908321E+03  0.7546771E-02  0.1157725E+00
         -1   -1    0    0    0  501 -0.00000000000E+00  0.00000000000E+00  0.33917955976E+03  0.33917955976E+03  0.00000000000E+00 0.  1.
          1   -1    0    0  502    0  0.00000000000E+00 -0.00000000000E+00 -0.77414766704E+03  0.77414766704E+03  0.00000000000E+00 0. -1.
         23    2    1    2    0    0  0.39636100365E+02  0.17857684059E+03 -0.31573385598E+03  0.37574370776E+03  0.89636809743E+02 0.  0.
         23    2    1    2    0    0 -0.37721410742E+02 -0.16265323020E+03 -0.21609696755E+03  0.28738761901E+03  0.89525225783E+02 0.  0.
        -13    1    3    3    0    0  0.31955554126E+02  0.97875792161E+01 -0.37566786711E+02  0.50281384331E+02  0.00000000000E+00 0.  1.
         13    1    3    3    0    0  0.76805462397E+01  0.16878926137E+03 -0.27816706927E+03  0.32546232343E+03  0.00000000000E+00 0. -1.
        -13    1    4    4    0    0 -0.16487442569E+02 -0.33361870320E+02 -0.11794835681E+03  0.12367968721E+03  0.00000000000E+00 0. -1.
         13    1    4    4    0    0 -0.21233968173E+02 -0.12929135988E+03 -0.98148610746E+02  0.16370793181E+03  0.00000000000E+00 0.  1.
         21    1    1    2  502  503  0.34465823222E+02  0.12535943000E+03 -0.12780832512E+03  0.18231249993E+03  0.00000000000E+00 0. -1.
         21    1    1    2  503  501 -0.36380512845E+02 -0.14128304039E+03  0.22467104137E+03  0.26788340010E+03  0.00000000000E+00 0.  1.
<scales pt_clust_5="13000.00000" pt_clust_6="13000.00000" pt_clust_7="13000.00000" pt_clust_8="13000.00000" pt_clust_9="130.01108" pt_clust_10="141.35510"></scales>
<clustering>
<clus scale="   89.525">  7  8 -1 -1</clus>
<clus scale="   89.637">  5  6 -1 -1</clus>
<clus scale="  130.011">  2  9  1 -1</clus>
<clus scale="  141.355">  1 10  2 -1</clus>
<clus scale="  190.780">  2  7  1 -1</clus>
<clus scale="  130.011">  2  5  1 -1</clus>
</clustering>
</event>
<event>
10    2  0.2445576E-006  0.1112173E+03  0.7546771E-02  0.1258877E+00
          2   -1    0    0  502    0  0.00000000000E+00  0.00000000000E+00  0.57739784795E+03  0.57739784795E+03  0.00000000000E+00 0. -1.
         -2   -1    0    0    0  501 -0.00000000000E+00 -0.00000000000E+00 -0.50117746332E+02  0.50117746332E+02  0.00000000000E+00 0.  1.
         23    2    1    2    0    0 -0.69845056045E+01  0.74660400138E+02  0.17062358330E+03  0.20627381190E+03  0.88394115371E+02 0.  0.
         23    2    1    2    0    0  0.79989302551E+01 -0.60166800799E+02  0.31342855337E+03  0.33165941779E+03  0.89869263559E+02 0.  0.
        -11    1    4    4    0    0 -0.40719470368E+02 -0.28938292518E+02  0.12764348433E+03  0.13707063556E+03  0.00000000000E+00 0. -1.
         11    1    4    4    0    0  0.48718400623E+02 -0.31228508281E+02  0.18578506904E+03  0.19458878222E+03  0.00000000000E+00 0.  1.
        -13    1    3    3    0    0 -0.21320709688E+02  0.62364160735E+01  0.11446701881E+03  0.11660258978E+03  0.00000000000E+00 0. -1.
         13    1    3    3    0    0  0.14336204084E+02  0.68423984065E+02  0.56156564488E+02  0.89671222128E+02  0.00000000000E+00 0.  1.
         21    1    1    2  502  503  0.21714395213E+02 -0.19932502460E+02  0.55754442736E+02  0.63066453036E+02  0.00000000000E+00 0.  1.
         21    1    1    2  503  501 -0.22728819864E+02  0.54389031207E+01 -0.12526477794E+02  0.26515911553E+02  0.00000000000E+00 0.  1.
<scales pt_clust_5="13000.00000" pt_clust_6="13000.00000" pt_clust_7="13000.00000" pt_clust_8="13000.00000" pt_clust_9="27.06958" pt_clust_10="23.37051"></scales>
<clustering>
<clus scale="   23.371">  2 10  1 -1</clus>
<clus scale="   27.070">  2  9  1 -1</clus>
<clus scale="   88.394">  7  8 -1 -1</clus>
<clus scale="   89.869">  5  6 -1 -1</clus>
<clus scale="  110.029">  2  7  1 -1</clus>
<clus scale="  111.217">  1  5  2 -1</clus>
</clustering>
</event>
<event>
10    2  0.2445576E-006  0.9397056E+02  0.7546771E-02  0.1293874E+00
         -1   -1    0    0    0  501 -0.00000000000E+00  0.00000000000E+00  0.15887811569E+03  0.15887811569E+03  0.00000000000E+00 0.  1.
          1   -1    0    0  502    0  0.00000000000E+00 -0.00000000000E+00 -0.15781691364E+03  0.15781691364E+03  0.00000000000E+00 0. -1.
         23    2    1    2    0    0 -0.85771995795E+01  0.47439412922E+01  0.21819143160E+02  0.94711090650E+02  0.91640833433E+02 0.  0.
         23    2    1    2    0    0 -0.36454711590E+01  0.41752216272E+02 -0.46781265494E+02  0.11163019711E+03  0.92283677222E+02 0.  0.
        -11    1    4    4    0    0  0.21420586497E+02  0.61459476466E+02 -0.15378922442E+02  0.66877649696E+02  0.00000000000E+00 0. -1.
         11    1    4    4    0    0 -0.25066057656E+02 -0.19707260194E+02 -0.31402343052E+02  0.44752547413E+02  0.00000000000E+00 0.  1.
        -11    1    3    3    0    0  0.32950534892E+02 -0.22085428818E+02  0.21815546376E+02  0.45270542071E+02  0.00000000000E+00 0.  1.
         11    1    3    3    0    0 -0.41527734471E+02  0.26829370110E+02  0.35967834849E-02  0.49440548579E+02  0.00000000000E+00 0. -1.
         21    1    1    2  502  503  0.87126070088E+01 -0.24404510400E+02 -0.36036312982E+02  0.44385870523E+02  0.00000000000E+00 0. -1.
         21    1    1    2  503  501  0.35100637297E+01 -0.22091647164E+02  0.62059637362E+02  0.65967871053E+02  0.00000000000E+00 0.  1.
<scales pt_clust_5="13000.00000" pt_clust_6="13000.00000" pt_clust_7="13000.00000" pt_clust_8="13000.00000" pt_clust_9="26.88127" pt_clust_10="22.36876"></scales>
<clustering>
<clus scale="   22.369">  1 10  2 -1</clus>
<clus scale="   26.881">  2  9  1 -1</clus>
<clus scale="   91.641">  7  8 -1 -1</clus>
<clus scale="   92.284">  5  6 -1 -1</clus>
<clus scale="   93.339">  1  7  2 -1</clus>
<clus scale="   26.881">  2  5  1 -1</clus>
</clustering>
</event>
<event>
10    2  0.2445576E-006  0.1004310E+03  0.7546771E-02  0.1282426E+00
          3   -1    0    0  502    0  0.00000000000E+00  0.00000000000E+00  0.14040757829E+03  0.14040757829E+03  0.00000000000E+00 0. -1.
         -3   -1    0    0    0  501 -0.00000000000E+00 -0.00000000000E+00 -0.22015457541E+03  0.22015457541E+03  0.00000000000E+00 0.  1.
         23    2    1    2    0    0 -0.38827862784E+02 -0.13124465110E+02 -0.11588789586E+03  0.15502711478E+03  0.94464529842E+02 0.  0.
         23    2    1    2    0    0  0.33710312537E+02 -0.36997406863E+02  0.68429339346E+01  0.10186770085E+03  0.88459083454E+02 0.  0.
        -11    1    4    4    0    0  0.52026331853E+02 -0.48120427179E+02  0.23568074633E+02  0.74684461971E+02  0.00000000000E+00 0. -1.
         11    1    4    4    0    0 -0.18316019316E+02  0.11123020316E+02 -0.16725140698E+02  0.27183238878E+02  0.00000000000E+00 0.  1.
        -13    1    3    3    0    0  0.29602149642E+02  0.10648371536E+01 -0.54402955274E+02  0.61944351511E+02  0.00000000000E+00 0. -1.
         13    1    3    3    0    0 -0.68430012426E+02 -0.14189302264E+02 -0.61484940586E+02  0.93082763271E+02  0.00000000000E+00 0.  1.
         21    1    1    2  502  503 -0.51762353372E+01  0.31224749706E+02  0.59021171963E+02  0.66972211748E+02  0.00000000000E+00 0. -1.
         21    1    1    2  503  501  0.10293785584E+02  0.18897122267E+02 -0.29723207166E+02  0.36695126323E+02  0.00000000000E+00 0.  1.
<scales pt_clust_5="13000.00000" pt_clust_6="13000.00000" pt_clust_7="13000.00000" pt_clust_8="13000.00000" pt_clust_9="32.01277" pt_clust_10="21.51890"></scales>
<clustering>
<clus scale="   21.519">  2 10  1 -1</clus>
<clus scale="   32.013">  1  9  2 -1</clus>
<clus scale="   88.459">  5  6 -1 -1</clus>
<clus scale="   94.465">  7  8 -1 -1</clus>
<clus scale="   94.804">  1  5  2 -1</clus>
<clus scale="   32.013">  1  5  2 -1</clus>
</clustering>
</event>
<event>
10    2  0.2445576E-006  0.1518403E+03  0.7546771E-02  0.1201559E+00
         -1   -1    0    0    0  501 -0.00000000000E+00  0.00000000000E+00  0.85819327964E+02  0.85819327964E+02  0.00000000000E+00 0.  1.
          1   -1    0    0  502    0  0.00000000000E+00 -0.00000000000E+00 -0.58319028288E+03  0.58319028288E+03  0.00000000000E+00 0. -1.
         23    2    1    2    0    0 -0.40459965290E+02 -0.11427869760E+03 -0.16234481007E+03  0.22454215859E+03  0.96781786046E+02 0.  0.
         23    2    1    2    0    0  0.21106434290E+02  0.12989634966E+03 -0.25698839074E+03  0.29937157437E+03  0.79131304449E+02 0.  0.
        -13    1    4    4    0    0 -0.99582535156E+01  0.86284423341E+02 -0.21315939664E+03  0.23017623010E+03  0.00000000000E+00 0.  1.
         13    1    4    4    0    0  0.31064687806E+02  0.43611926323E+02 -0.43828994095E+02  0.69195344276E+02  0.00000000000E+00 0. -1.
        -13    1    3    3    0    0  0.23042648599E+02 -0.47128643258E+01 -0.78885009869E+01  0.24807321348E+02  0.00000000000E+00 0.  1.
         13    1    3    3    0    0 -0.63502613889E+02 -0.10956583327E+03 -0.15445630909E+03  0.19973483724E+03  0.00000000000E+00 0. -1.
         21    1    1    2  502  503  0.39965760410E+01 -0.45205579285E+02 -0.96751760894E+02  0.10686636634E+03  0.00000000000E+00 0. -1.
         21    1    1    2  503  501  0.15356954958E+02  0.29587927218E+02  0.18714006789E+02  0.38229511542E+02  0.00000000000E+00 0. -1.
<scales pt_clust_5="13000.00000" pt_clust_6="13000.00000" pt_clust_7="13000.00000" pt_clust_8="13000.00000" pt_clust_9="42.93108" pt_clust_10="33.33589"></scales>
<clustering>
<clus scale="   33.336">  1 10  2 -1</clus>
<clus scale="   42.931">  2  9  1 -1</clus>
<clus scale="   79.131">  5  6 -1 -1</clus>
<clus scale="   96.782">  7  8 -1 -1</clus>
<clus scale="  141.246">  2  5  1 -1</clus>
<clus scale="   42.931">  2  5  1 -1</clus>
</clustering>
</event>
<event>
10    2  0.2445576E-006  0.1037815E+03  0.7546771E-02  0.1274924E+00
          2   -1    0    0  502    0  0.00000000000E+00  0.00000000000E+00  0.10720601454E+03  0.10720601454E+03  0.00000000000E+00 0. -1.
         -2   -1    0    0    0  501 -0.00000000000E+00 -0.00000000000E+00 -0.41426924612E+03  0.41426924612E+03  0.00000000000E+00 0.  1.
         23    2    1    2    0    0  0.27689573890E+02 -0.38382117646E+02 -0.21035899516E+03  0.23073566023E+03  0.82147054716E+02 0.  0.
         23    2    1    2    0    0 -0.76024426612E+02 -0.26300606010E+02  0.14556731575E+02  0.11989599789E+03  0.87702431877E+02 0.  0.
        -11    1    3    3    0    0  0.23559414452E+02  0.23210252098E+02 -0.74184760204E+02  0.81222782877E+02  0.00000000000E+00 0.  1.
         11    1    3    3    0    0  0.41301594383E+01 -0.61592369743E+02 -0.13617423496E+03  0.14951287735E+03  0.00000000000E+00 0. -1.
        -13    1    4    4    0    0 -0.24073416941E+02  0.63249789682E+01 -0.33664158372E+02  0.41866577614E+02  0.00000000000E+00 0.  1.
         13    1    4    4    0    0 -0.51951009671E+02 -0.32625584979E+02  0.48220889947E+02  0.78029420274E+02  0.00000000000E+00 0. -1.
         21    1    1    2  502  503  0.17760507660E+02  0.24262351667E+02  0.15858155129E+02  0.33993799800E+02  0.00000000000E+00 0. -1.
         21    1    1    2  503  501  0.30574345062E+02  0.40420371989E+02 -0.12711912312E+03  0.13684980275E+03  0.00000000000E+00 0. -1.
<scales pt_clust_5="13000.00000" pt_clust_6="13000.00000" pt_clust_7="13000.00000" pt_clust_8="13000.00000" pt_clust_9="30.06821" pt_clust_10="52.45909"></scales>
<clustering>
<clus scale="   30.068">  1  9  2 -1</clus>
<clus scale="   52.459">  2 10  1 -1</clus>
<clus scale="   82.147">  5  6 -1 -1</clus>
<clus scale="   87.702">  7  8 -1 -1</clus>
<clus scale="   99.131">  2  5  1 -1</clus>
<clus scale="   30.068">  1  5  2 -1</clus>
</clustering>
</event>
<event>
10    2  0.2445576E-006  0.9198962E+02  0.7546771E-02  0.1298307E+00
          1   -1    0    0  502    0  0.00000000000E+00  0.00000000000E+00  0.26261170750E+03  0.26261170750E+03  0.00000000000E+00 0. -1.
         -1   -1    0    0    0  501 -0.00000000000E+00 -0.00000000000E+00 -0.15248156782E+03  0.15248156782E+03  0.00000000000E+00 0.  1.
         23    2    1    2    0    0  0.58933764574E+02  0.26406530834E+01 -0.44438189685E+02  0.11761471877E+03  0.91533096277E+02 0.  0.
         23    2    1    2    0    0  0.20798492913E+02  0.49379326819E+01  0.13126346956E+03  0.16125195269E+03  0.91187352858E+02 0.  0.
        -11    1    4    4    0    0 -0.33878462459E+02 -0.80382574822E+01  0.32552351973E+02  0.47665704872E+02  0.00000000000E+00 0.  1.
         11    1    4    4    0    0  0.54676955372E+02  0.12976190164E+02  0.98711117583E+02  0.11358624782E+03  0.00000000000E+00 0. -1.
        -13    1    3    3    0    0  0.43661310205E+02 -0.23375391000E+02 -0.64548464135E+02  0.81358608244E+02  0.00000000000E+00 0.  1.
         13    1    3    3    0    0  0.15272454369E+02  0.26016044083E+02  0.20110274451E+02  0.36256110529E+02  0.00000000000E+00 0. -1.
         21    1    1    2  502  503 -0.84605043443E+02 -0.42792687926E+02  0.31195548536E+02  0.99811771672E+02  0.00000000000E+00 0. -1.
         21    1    1    2  503  501  0.48727859562E+01  0.35214102161E+02 -0.78906887371E+01  0.36414832180E+02  0.00000000000E+00 0. -1.
<scales pt_clust_5="13000.00000" pt_clust_6="13000.00000" pt_clust_7="13000.00000" pt_clust_8="13000.00000" pt_clust_9="89.81308" pt_clust_10="35.54964"></scales>
<clustering>
<clus scale="   35.550">  2 10  1 -1</clus>
<clus scale="   89.813">  2  9  1 -1</clus>
<clus scale="   91.187">  5  6 -1 -1</clus>
<clus scale="   91.533">  7  8 -1 -1</clus>
<clus scale="   91.646">  1  5  2 -1</clus>
<clus scale="   91.646">  1  5  2 -1</clus>
</clustering>
</event>
<event>
10    2  0.2445576E-006  0.1057941E+03  0.7546771E-02  0.1269868E+00
         -1   -1    0    0    0  501 -0.00000000000E+00  0.00000000000E+00  0.26491511573E+03  0.26491511573E+03  0.00000000000E+00 0.  1.
          1   -1    0    0  502    0  0.00000000000E+00 -0.00000000000E+00 -0.12167371258E+03  0.12167371258E+03  0.00000000000E+00 0. -1.
         23    2    1    2    0    0 -0.68897280527E+02  0.51975685592E+01  0.14389286076E+03  0.18280650808E+03  0.89102267287E+02 0.  0.
         23    2    1    2    0    0  0.39004534377E+02 -0.18927294383E+02  0.43755264273E+02  0.10574380963E+03  0.85951346399E+02 0.  0.
        -13    1    3    3    0    0  0.11631057899E+01 -0.32461936730E+02  0.32683695787E+02  0.46079866771E+02  0.00000000000E+00 0. -1.
         13    1    3    3    0    0 -0.70060386317E+02  0.37659505289E+02  0.11120916497E+03  0.13672664131E+03  0.00000000000E+00 0.  1.
        -13    1    4    4    0    0  0.21078954911E+01  0.23022269003E+02  0.44193339274E+02  0.49875037139E+02  0.00000000000E+00 0.  1.
         13    1    4    4    0    0  0.36896638886E+02 -0.41949563386E+02 -0.43807500101E+00  0.55868772486E+02  0.00000000000E+00 0. -1.
         21    1    1    2  502  503  0.21826938669E+02 -0.78039477859E+01 -0.63848724136E+02  0.67926257268E+02  0.00000000000E+00 0. -1.
         21    1    1    2  503  501  0.80658074813E+01  0.21533673610E+02  0.19442002257E+02  0.30112253340E+02  0.00000000000E+00 0.  1.
<scales pt_clust_5="13000.00000" pt_clust_6="13000.00000" pt_clust_7="13000.00000" pt_clust_8="13000.00000" pt_clust_9="23.18385" pt_clust_10="22.99470"></scales>
<clustering>
<clus scale="   22.995">  1 10  2 -1</clus>
<clus scale="   23.184">  2  9  1 -1</clus>
<clus scale="   85.951">  7  8 -1 -1</clus>
<clus scale="   89.102">  5  6 -1 -1</clus>
<clus scale="  103.154">  2  7  1 -1</clus>
<clus scale="   23.184">  2  5  1 -1</clus>
</clustering>
</event>
<event>
10    2  0.2445576E-006  0.1609028E+03  0.7546771E-02  0.1188104E+00
          2   -1    0    0  502    0  0.00000000000E+00  0.00000000000E+00  0.39798080207E+03  0.39798080207E+03  0.00000000000E+00 0. -1.
         -2   -1    0    0    0  501 -0.00000000000E+00 -0.00000000000E+00 -0.25287295583E+03  0.25287295583E+03  0.00000000000E+00 0.  1.
         23    2    1    2    0    0 -0.75991114845E+02 -0.10469727470E+03 -0.31391063693E+02  0.16168843540E+03  0.91769179998E+02 0.  0.
         23    2    1    2    0    0 -0.24597319260E+02  0.15458979005E+03 -0.59878932238E+02  0.18981473708E+03  0.89112942852E+02 0.  0.
        -11    1    3    3    0    0  0.21234109947E+02 -0.16256743782E+02 -0.98692084163E+01  0.28505620821E+02  0.00000000000E+00 0. -1.
         11    1    3    3    0    0 -0.97225224792E+02 -0.88440530919E+02 -0.21521855277E+02  0.13318281458E+03  0.00000000000E+00 0.  1.
        -13    1    4    4    0    0  0.24960667358E+02  0.10441253147E+03 -0.50601036705E+02  0.11868225040E+03  0.00000000000E+00 0. -1.
         13    1    4    4    0    0 -0.49557986618E+02  0.50177258574E+02 -0.92778955331E+01  0.71132486679E+02  0.00000000000E+00 0.  1.
         21    1    1    2  502  503  0.12111169893E+03 -0.58936311516E+02  0.24133956646E+03  0.27638074964E+03  0.00000000000E+00 0. -1.
         21    1    1    2  503  501 -0.20523264822E+02  0.90437961705E+01 -0.49617242904E+01  0.22969835786E+02  0.00000000000E+00 0.  1.
<scales pt_clust_5="13000.00000" pt_clust_6="13000.00000" pt_clust_7="13000.00000" pt_clust_8="13000.00000" pt_clust_9="133.04694" pt_clust_10="22.42754"></scales>
<clustering>
<clus scale="   22.428">  2 10  1 -1</clus>
<clus scale="   89.113">  7  8 -1 -1</clus>
<clus scale="   91.769">  5  6 -1 -1</clus>
<clus scale="  133.047">  1  9  2 -1</clus>
<clus scale="  159.403">  1  7  2 -1</clus>
<clus scale="  133.047">  1  5  2 -1</clus>
</clustering>
</event>
<event>
10    2  0.2445576E-006  0.9976412E+02  0.7546771E-02  0.1282368E+00
         -3   -1    0    0    0  501 -0.00000000000E+00  0.00000000000E+00  0.81321212376E+02  0.81321212376E+02  0.00000000000E+00 0.  1.
          3   -1    0    0  502    0  0.00000000000E+00 -0.00000000000E+00 -0.51302919788E+03  0.51302919788E+03  0.00000000000E+00 0. -1.
         23    2    1    2    0    0 -0.59925275906E+02  0.91686066464E+00  0.65665525368E+01  0.10718318564E+03  0.88618487611E+02 0.  0.
         23    2    1    2    0    0 -0.19118729738E+02  0.14037357026E+02 -0.28460584900E+03  0.29999029957E+03  0.91821115960E+02 0.  0.
        -11    1    3    3    0    0 -0.30108778322E+02  0.29653875058E+02 -0.30091098291E+02  0.51878367692E+02  0.00000000000E+00 0.  1.
         11    1    3    3    0    0 -0.29816497585E+02 -0.28737014394E+02  0.36657650828E+02  0.55304817952E+02  0.00000000000E+00 0. -1.
        -13    1    4    4    0    0 -0.51026027357E+02  0.16258229494E+02 -0.10842379512E+03  0.12092851129E+03  0.00000000000E+00 0.  1.
         13    1    4    4    0    0  0.31907297618E+02 -0.22208724682E+01 -0.17618205388E+03  0.17906178829E+03  0.00000000000E+00 0. -1.
         21    1    1    2  502  503  0.64720544914E+02 -0.29775758048E+02 -0.15024943249E+03  0.16628360311E+03  0.00000000000E+00 0.  1.
         21    1    1    2  503  501  0.14323460730E+02  0.14821540358E+02 -0.34192565622E+01  0.20893321931E+02  0.00000000000E+00 0.  1.
<scales pt_clust_5="13000.00000" pt_clust_6="13000.00000" pt_clust_7="13000.00000" pt_clust_8="13000.00000" pt_clust_9="72.02653" pt_clust_10="20.61164"></scales>
<clustering>
<clus scale="   20.612">  1 10  2 -1</clus>
<clus scale="   72.027">  2  9  1 -1</clus>
<clus scale="   88.618">  5  6 -1 -1</clus>
<clus scale="   91.821">  7  8 -1 -1</clus>
<clus scale="   96.825">  1  5  2 -1</clus>
<clus scale="   72.027">  2  5  1 -1</clus>
</clustering>
</event>
<event>
10    2  0.2445576E-006  0.1272840E+03  0.7546771E-02  0.1232372E+00
          1   -1    0    0  502    0  0.00000000000E+00  0.00000000000E+00  0.12158938054E+03  0.12158938054E+03  0.00000000000E+00 0. -1.
         -1   -1    0    0    0  501 -0.00000000000E+00 -0.00000000000E+00 -0.48169086177E+03  0.48169086177E+03  0.00000000000E+00 0.  1.
         23    2    1    2    0    0 -0.78050874452E+02 -0.52773336388E+02 -0.16357922999E+03  0.21070069129E+03  0.93593016776E+02 0.  0.
         23    2    1    2    0    0 -0.34397246161E+02  0.11426365266E+03 -0.15602780223E+03  0.21633172693E+03  0.90638778374E+02 0.  0.
        -11    1    4    4    0    0  0.32800878217E+01  0.11196309246E+03 -0.11991677196E+03  0.16409303839E+03  0.00000000000E+00 0. -1.
         11    1    4    4    0    0 -0.37677333983E+02  0.23005601938E+01 -0.36111030274E+02  0.52238688543E+02  0.00000000000E+00 0.  1.
        -11    1    3    3    0    0 -0.36767548639E+02 -0.69339150185E+02 -0.13964128102E+03  0.16018569770E+03  0.00000000000E+00 0.  1.
         11    1    3    3    0    0 -0.41283325813E+02  0.16565813796E+02 -0.23937948971E+02  0.50514993595E+02  0.00000000000E+00 0. -1.
         21    1    1    2  502  503  0.93911047545E+02 -0.30937746264E+02  0.24688449955E+02  0.10191147411E+03  0.00000000000E+00 0. -1.
         21    1    1    2  503  501  0.18537073069E+02 -0.30552570006E+02 -0.65182898961E+02  0.74336349983E+02  0.00000000000E+00 0. -1.
<scales pt_clust_5="13000.00000" pt_clust_6="13000.00000" pt_clust_7="13000.00000" pt_clust_8="13000.00000" pt_clust_9="101.44552" pt_clust_10="35.73629"></scales>
<clustering>
<clus scale="   35.736">  2 10  1 -1</clus>
<clus scale="   90.639">  5  6 -1 -1</clus>
<clus scale="   93.593">  7  8 -1 -1</clus>
<clus scale="  101.446">  1  9  2 -1</clus>
<clus scale="  125.128">  1  5  2 -1</clus>
<clus scale="  101.446">  1  5  2 -1</clus>
</clustering>
</event>
<event>
10    2  0.2445576E-006  0.2602095E+03  0.7546771E-02  0.1147897E+00
          3   -1    0    0  502    0  0.00000000000E+00  0.00000000000E+00  0.37719881213E+03  0.37719881213E+03  0.00000000000E+00 0. -1.
         -3   -1    0    0    0  501 -0.00000000000E+00 -0.00000000000E+00 -0.60560771262E+03  0.60560771262E+03  0.00000000000E+00 0.  1.
         23    2    1    2    0    0 -0.83219604900E+02 -0.22228743019E+03 -0.11521588775E+03  0.27904640278E+03  0.90856974714E+02 0.  0.
         23    2    1    2    0    0  0.32835455544E+02  0.10183070393E+02 -0.97760120529E+01  0.96113197848E+02  0.89220593618E+02 0.  0.
        -13    1    3    3    0    0  0.12430648712E+02 -0.80423378554E+02 -0.22447290975E+02  0.84417543897E+02  0.00000000000E+00 0.  1.
         13    1    3    3    0    0 -0.95650253613E+02 -0.14186405164E+03 -0.92768596773E+02  0.19462885889E+03  0.00000000000E+00 0. -1.
        -13    1    4    4    0    0  0.61513029079E+02  0.17374883382E+02  0.28068332622E+01  0.63981385043E+02  0.00000000000E+00 0.  1.
         13    1    4    4    0    0 -0.28677573535E+02 -0.71918129891E+01 -0.12582845315E+02  0.32131812805E+02  0.00000000000E+00 0. -1.
         21    1    1    2  502  503 -0.26033606444E+01 -0.30290555942E+02  0.20758312828E+03  0.20979764158E+03  0.00000000000E+00 0. -1.
         21    1    1    2  503  501  0.52987510001E+02  0.24239491574E+03 -0.31100012897E+03  0.39784928254E+03  0.00000000000E+00 0.  1.
<scales pt_clust_5="13000.00000" pt_clust_6="13000.00000" pt_clust_7="13000.00000" pt_clust_8="13000.00000" pt_clust_9="30.40222" pt_clust_10="243.83188"></scales>
<clustering>
<clus scale="   30.402">  1  9  2 -1</clus>
<clus scale="   89.221">  7  8 -1 -1</clus>
<clus scale="   90.857">  5  6 -1 -1</clus>
<clus scale="   94.874">  1  7  2 -1</clus>
<clus scale="  243.832">  2 10  1 -1</clus>
<clus scale="   30.402">  1  5  2 -1</clus>
</clustering>
</event>
<event>
10    2  0.2445576E-006  0.9962059E+02  0.7546771E-02  0.1285318E+00
          2   -1    0    0  502    0  0.00000000000E+00  0.00000000000E+00  0.52210812277E+03  0.52210812277E+03  0.00000000000E+00 0. -1.
         -2   -1    0    0    0  501 -0.00000000000E+00 -0.00000000000E+00 -0.74792935353E+02  0.74792935353E+02  0.00000000000E+00 0.  1.
         23    2    1    2    0    0 -0.20732929370E+02 -0.44422396623E+00  0.29698953563E+02  0.98070639278E+02  0.91136001396E+02 0.  0.
         23    2    1    2    0    0 -0.58636391709E+02  0.66632236659E+00  0.25321709007E+03  0.27808218338E+03  0.98854112663E+02 0.  0.
        -11    1    3    3    0    0 -0.42587901756E+02 -0.33236874112E+02  0.18498321894E+02  0.57101725803E+02  0.00000000000E+00 0. -1.
         11    1    3    3    0    0  0.21854972387E+02  0.32792650146E+02  0.11200631669E+02  0.40968913476E+02  0.00000000000E+00 0.  1.
        -13    1    4    4    0    0  0.22447817751E+02 -0.21002536145E+02  0.76561352088E+02  0.82502434388E+02  0.00000000000E+00 0.  1.
         13    1    4    4    0    0 -0.81084209461E+02  0.21668858511E+02  0.17665573798E+03  0.19557974899E+03  0.00000000000E+00 0. -1.
         21    1    1    2  502  503  0.47245111652E+02 -0.32804362022E+01  0.17912333091E+03  0.18527824889E+03  0.00000000000E+00 0.  1.
         21    1    1    2  503  501  0.32124209426E+02  0.30583378018E+01 -0.14724187123E+02  0.35469986578E+02  0.00000000000E+00 0.  1.
<scales pt_clust_5="13000.00000" pt_clust_6="13000.00000" pt_clust_7="13000.00000" pt_clust_8="13000.00000" pt_clust_9="49.33137" pt_clust_10="32.26946"></scales>
<clustering>
<clus scale="   32.269">  2 10  1 -1</clus>
<clus scale="   49.331">  1  9  2 -1</clus>
<clus scale="   91.136">  5  6 -1 -1</clus>
<clus scale="   91.967">  2  5  1 -1</clus>
<clus scale="   98.854">  7  8 -1 -1</clus>
<clus scale="   49.331">  1  5  2 -1</clus>
</clustering>
</event>
<event>
10    2  0.2445576E-006  0.1169111E+03  0.7546771E-02  0.1249190E+00
          1   -1    0    0  502    0  0.00000000000E+00  0.00000000000E+00  0.97685866738E+02  0.97685866738E+02  0.00000000000E+00 0. -1.
         -1   -1    0    0    0  501 -0.00000000000E+00 -0.00000000000E+00 -0.33425320035E+03  0.33425320035E+03  0.00000000000E+00 0.  1.
         23    2    1    2    0    0 -0.69495222967E+02  0.34505668173E+02 -0.15584672368E+03  0.19618755672E+03  0.90449593582E+02 0.  0.
         23    2    1    2    0    0  0.20007335777E+02 -0.63694294750E+02  0.14794306830E+02  0.11552366503E+03  0.93110627740E+02 0.  0.
        -11    1    3    3    0    0  0.29987412298E+01  0.43656316560E+02 -0.77888066060E+02  0.89338778025E+02  0.00000000000E+00 0.  1.
         11    1    3    3    0    0 -0.72493964197E+02 -0.91506483867E+01 -0.77958657622E+02  0.10684877870E+03  0.00000000000E+00 0. -1.
        -13    1    4    4    0    0 -0.15347473933E+02  0.15278151406E+02  0.19122779919E+02  0.28890267883E+02  0.00000000000E+00 0. -1.
         13    1    4    4    0    0  0.35354809710E+02 -0.78972446156E+02 -0.43284730899E+01  0.86633397144E+02  0.00000000000E+00 0.  1.
         21    1    1    2  502  503  0.27906541066E+02  0.55181828139E+01 -0.12172555640E+02  0.30941824230E+02  0.00000000000E+00 0.  1.
         21    1    1    2  503  501  0.21581346124E+02  0.23670443763E+02 -0.83342361123E+02  0.89286021112E+02  0.00000000000E+00 0.  1.
<scales pt_clust_5="13000.00000" pt_clust_6="13000.00000" pt_clust_7="13000.00000" pt_clust_8="13000.00000" pt_clust_9="28.44689" pt_clust_10="32.80689"></scales>
<clustering>
<clus scale="   28.447">  1  9  2 -1</clus>
<clus scale="   32.807">  2 10  1 -1</clus>
<clus scale="   90.450">  5  6 -1 -1</clus>
<clus scale="   93.111">  7  8 -1 -1</clus>
<clus scale="  114.803">  2  5  1 -1</clus>
<clus scale="   28.447">  1  5  2 -1</clus>
</clustering>
</event>
<event>
10    2  0.2445576E-006  0.1958275E+03  0.7546771E-02  0.1154895E+00
          2   -1    0    0  502    0  0.00000000000E+00  0.00000000000E+00  0.38529089465E+03  0.38529089465E+03  0.00000000000E+00 0. -1.
         -2   -1    0    0    0  501 -0.00000000000E+00 -0.00000000000E+00 -0.32599518728E+03  0.32599518728E+03  0.00000000000E+00 0.  1.
         23    2    1    2    0    0  0.17320188887E+03  0.97619080888E+02 -0.22099203082E+03  0.31012013851E+03  0.88366528504E+02 0.  0.
         23    2    1    2    0    0 -0.12885821106E+03 -0.92548088519E+02  0.26211091499E+03  0.31451689484E+03  0.71057428431E+02 0.  0.
        -11    1    3    3    0    0  0.13968975709E+03  0.57736218470E+02 -0.10822285930E+03  0.18590020558E+03  0.00000000000E+00 0.  1.
         11    1    3    3    0    0  0.33512131776E+02  0.39882862418E+02 -0.11276917152E+03  0.12421993293E+03  0.00000000000E+00 0. -1.
        -13    1    4    4    0    0 -0.29824656058E+02 -0.61393404876E+02  0.12638051338E+03  0.14363389027E+03  0.00000000000E+00 0.  1.
         13    1    4    4    0    0 -0.99033555005E+02 -0.31154683643E+02  0.13573040161E+03  0.17088300457E+03  0.00000000000E+00 0. -1.
         21    1    1    2  502  503 -0.22438105816E+02  0.57761240281E+01  0.44842676119E+02  0.50474724396E+02  0.00000000000E+00 0. -1.
         21    1    1    2  503  501 -0.21905571990E+02 -0.10847116397E+02 -0.26665852913E+02  0.36174324180E+02  0.00000000000E+00 0.  1.
<scales pt_clust_5="13000.00000" pt_clust_6="13000.00000" pt_clust_7="13000.00000" pt_clust_8="13000.00000" pt_clust_9="23.16964" pt_clust_10="24.69207"></scales>
<clustering>
<clus scale="   23.170">  1  9  2 -1</clus>
<clus scale="   24.692">  2 10  1 -1</clus>
<clus scale="   71.057">  7  8 -1 -1</clus>
<clus scale="   88.367">  5  6 -1 -1</clus>
<clus scale="  188.650">  1  7  2 -1</clus>
<clus scale="   23.170">  1  5  2 -1</clus>
</clustering>
</event>
<event>
10    2  0.2445576E-006  0.9510000E+02  0.7546771E-02  0.1292250E+00
          2   -1    0    0  502    0  0.00000000000E+00  0.00000000000E+00  0.49791921066E+03  0.49791921066E+03  0.00000000000E+00 0. -1.
         -2   -1    0    0    0  501 -0.00000000000E+00 -0.00000000000E+00 -0.49432917128E+02  0.49432917128E+02  0.00000000000E+00 0.  1.
         23    2    1    2    0    0 -0.62963595311E+01  0.20125836877E+02  0.51810883148E+02  0.10621497515E+03  0.90291527181E+02 0.  0.
         23    2    1    2    0    0  0.16398472040E+02 -0.58711737374E+01  0.13260958387E+03  0.16269543926E+03  0.92634354616E+02 0.  0.
        -11    1    3    3    0    0  0.39542113576E+02 -0.56168101290E+01  0.18844832507E+02  0.44161691706E+02  0.00000000000E+00 0.  1.
         11    1    3    3    0    0 -0.45838473107E+02  0.25742647006E+02  0.32966050641E+02  0.62053283447E+02  0.00000000000E+00 0. -1.
        -13    1    4    4    0    0 -0.26079637595E+02 -0.30530710379E+02  0.86325397273E+02  0.95206858932E+02  0.00000000000E+00 0. -1.
         13    1    4    4    0    0  0.42478109636E+02  0.24659536641E+02  0.46284186597E+02  0.67488580326E+02  0.00000000000E+00 0.  1.
         21    1    1    2  502  503 -0.18493369581E+02 -0.36175546623E+02  0.24459105234E+03  0.24794244852E+03  0.00000000000E+00 0. -1.
         21    1    1    2  503  501  0.83912570719E+01  0.21920883483E+02  0.19474774175E+02  0.30499264861E+02  0.00000000000E+00 0. -1.
<scales pt_clust_5="13000.00000" pt_clust_6="13000.00000" pt_clust_7="13000.00000" pt_clust_8="13000.00000" pt_clust_9="39.73821" pt_clust_10="23.47208"></scales>
<clustering>
<clus scale="   23.472">  2 10  1 -1</clus>
<clus scale="   39.738">  1  9  2 -1</clus>
<clus scale="   90.292">  5  6 -1 -1</clus>
<clus scale="   92.634">  7  8 -1 -1</clus>
<clus scale="   92.819">  2  5  1 -1</clus>
<clus scale="   39.738">  1  5  2 -1</clus>
</clustering>
</event>
<event>
10    2  0.2445576E-006  0.9660739E+02  0.7546771E-02  0.1289091E+00
         -1   -1    0    0    0  501 -0.00000000000E+00  0.00000000000E+00  0.12520630010E+03  0.12520630010E+03  0.00000000000E+00 0.  1.
          1   -1    0    0  502    0  0.00000000000E+00 -0.00000000000E+00 -0.26415043312E+03  0.26415043312E+03  0.00000000000E+00 0. -1.
         23    2    1    2    0    0 -0.22999020207E+02  0.38345950891E+02  0.51193080048E+01  0.10047078271E+03  0.89826521602E+02 0.  0.
         23    2    1    2    0    0  0.24648352236E+02  0.31845759474E+01 -0.11299316927E+02  0.96558615172E+02  0.92618620207E+02 0.  0.
        -11    1    4    4    0    0  0.54521166152E+02  0.23446771935E+02 -0.11544870058E+02  0.60461497644E+02  0.00000000000E+00 0.  1.
         11    1    4    4    0    0 -0.29872813916E+02 -0.20262195988E+02  0.24555313062E+00  0.36097117528E+02  0.00000000000E+00 0. -1.
        -13    1    3    3    0    0 -0.20399748212E+02  0.49616505126E+01  0.44244412868E+02  0.48972806464E+02  0.00000000000E+00 0.  1.
         13    1    3    3    0    0 -0.25992719951E+01  0.33384300378E+02 -0.39125104863E+02  0.51497976243E+02  0.00000000000E+00 0. -1.
         21    1    1    2  502  503 -0.19200088486E+02 -0.12481480315E+02 -0.15172989480E+03  0.15344833569E+03  0.00000000000E+00 0. -1.
         21    1    1    2  503  501  0.17550756457E+02 -0.29049046523E+02  0.18965770706E+02  0.38878999661E+02  0.00000000000E+00 0.  1.
<scales pt_clust_5="13000.00000" pt_clust_6="13000.00000" pt_clust_7="13000.00000" pt_clust_8="13000.00000" pt_clust_9="22.90045" pt_clust_10="34.06791"></scales>
<clustering>
<clus scale="   22.900">  2  9  1 -1</clus>
<clus scale="   34.068">  1 10  2 -1</clus>
<clus scale="   89.827">  7  8 -1 -1</clus>
<clus scale="   92.619">  5  6 -1 -1</clus>
<clus scale="   93.934">  1  7  2 -1</clus>
<clus scale="   22.900">  2  5  1 -1</clus>
</clustering>
</event>
<event>
10    2  0.2445576E-006  0.9734444E+02  0.7546771E-02  0.1286136E+00
         -1   -1    0    0    0  501 -0.00000000000E+00  0.00000000000E+00  0.21466590208E+03  0.21466590208E+03  0.00000000000E+00 0.  1.
          1   -1    0    0  502    0  0.00000000000E+00 -0.00000000000E+00 -0.21121299346E+03  0.21121299346E+03  0.00000000000E+00 0. -1.
         23    2    1    2    0    0  0.18957942259E+02  0.21052088374E+02  0.14140358904E+03  0.17131634418E+03  0.92475514548E+02 0.  0.
         23    2    1    2    0    0 -0.50868270894E+02 -0.13064013817E+02 -0.11196772629E+03  0.15424521149E+03  0.92176808884E+02 0.  0.
        -11    1    4    4    0    0  0.18328914088E+02 -0.84807938595E+01 -0.70741142037E+02  0.73567534503E+02  0.00000000000E+00 0. -1.
         11    1    4    4    0    0 -0.69197184982E+02 -0.45832199575E+01 -0.41226584250E+02  0.80677676984E+02  0.00000000000E+00 0.  1.
        -13    1    3    3    0    0 -0.37154220781E+02  0.84716364616E+01  0.44036582520E+02  0.58235945482E+02  0.00000000000E+00 0. -1.
         13    1    3    3    0    0  0.56112163040E+02  0.12580451913E+02  0.97367006519E+02  0.11308039870E+03  0.00000000000E+00 0.  1.
         21    1    1    2  502  503  0.22701199710E+02  0.99940548947E+01 -0.57647193000E+02  0.62756867849E+02  0.00000000000E+00 0. -1.
         21    1    1    2  503  501  0.92091289255E+01 -0.17982129452E+02  0.31664238875E+02  0.37560472025E+02  0.00000000000E+00 0.  1.
<scales pt_clust_5="13000.00000" pt_clust_6="13000.00000" pt_clust_7="13000.00000" pt_clust_8="13000.00000" pt_clust_9="24.82218" pt_clust_10="20.20309"></scales>
<clustering>
<clus scale="   20.203">  1 10  2 -1</clus>
<clus scale="   24.822">  2  9  1 -1</clus>
<clus scale="   92.177">  5  6 -1 -1</clus>
<clus scale="   92.476">  7  8 -1 -1</clus>
<clus scale="   97.061">  2  5  1 -1</clus>
<clus scale="   24.822">  2  5  1 -1</clus>
</clustering>
</event>
<event>
10    2  0.2445576E-006  0.9108677E+02  0.7546771E-02  0.1300602E+00
          1   -1    0    0  502    0  0.00000000000E+00  0.00000000000E+00  0.33872748830E+03  0.33872748830E+03  0.00000000000E+00 0. -1.
         -1   -1    0    0    0  501 -0.00000000000E+00 -0.00000000000E+00 -0.72152657076E+03  0.72152657076E+03  0.00000000000E+00 0.  1.
         23    2    1    2    0    0  0.64988480660E+02  0.55156918956E+02 -0.50630787490E+03  0.52128746260E+03  0.90150796746E+02 0.  0.
         23    2    1    2    0    0 -0.17459991446E+02  0.29310523230E+02  0.88138253617E+02  0.13103052775E+03  0.90756208490E+02 0.  0.
        -11    1    4    4    0    0 -0.46464709633E+02  0.99688772658E+01  0.83206767855E+02  0.95821260544E+02  0.00000000000E+00 0. -1.
         11    1    4    4    0    0  0.29004718187E+02  0.19341645964E+02  0.49314857618E+01  0.35209267211E+02  0.00000000000E+00 0.  1.
        -13    1    3    3    0    0 -0.28894214850E+01  0.51941000238E+02 -0.15587056387E+03  0.16432239331E+03  0.00000000000E+00 0.  1.
         13    1    3    3    0    0  0.67877902145E+02  0.32159187178E+01 -0.35043731102E+03  0.35696506929E+03  0.00000000000E+00 0. -1.
         21    1    1    2  502  503  0.15144296570E+02 -0.26957272856E+02  0.21075601800E+03  0.21301207337E+03  0.00000000000E+00 0.  1.
         21    1    1    2  503  501 -0.62672785784E+02 -0.57510169330E+02 -0.17538547917E+03  0.19492399534E+03  0.00000000000E+00 0. -1.
<scales pt_clust_5="13000.00000" pt_clust_6="13000.00000" pt_clust_7="13000.00000" pt_clust_8="13000.00000" pt_clust_9="30.91997" pt_clust_10="85.63628"></scales>
<clustering>
<clus scale="   30.920">  1  9  2 -1</clus>
<clus scale="   85.636">  2 10  1 -1</clus>
<clus scale="   90.151">  7  8 -1 -1</clus>
<clus scale="   90.484">  2  7  1 -1</clus>
<clus scale="   90.756">  5  6 -1 -1</clus>
<clus scale="   30.920">  1  5  2 -1</clus>
</clustering>
</event>
<event>
10    2  0.2445576E-006  0.2723045E+03  0.7546771E-02  0.1100188E+00
         -3   -1    0    0    0  501 -0.00000000000E+00  0.00000000000E+00  0.42202457571E+03  0.42202457571E+03  0.00000000000E+00 0.  1.
          3   -1    0    0  502    0  0.00000000000E+00 -0.00000000000E+00 -0.69913951698E+03  0.69913951698E+03  0.00000000000E+00 0. -1.
         23    2    1    2    0    0  0.81430131299E+02  0.25056010896E+03  0.27550737631E+03  0.39196051938E+03  0.91200328216E+02 0.  0.
         23    2    1    2    0    0 -0.40012440521E+02 -0.20922977431E+03 -0.56540777590E+03  0.61173674828E+03  0.95696406908E+02 0.  0.
        -13    1    3    3    0    0  0.43992021218E+02  0.14565545905E+03  0.93533573179E+02  0.17860386332E+03  0.00000000000E+00 0.  1.
         13    1    3    3    0    0  0.37438110080E+02  0.10490464991E+03  0.18197380313E+03  0.21335665606E+03  0.00000000000E+00 0. -1.
        -13    1    4    4    0    0 -0.62748216082E+00 -0.32951056198E+02 -0.23386392899E+02  0.40411498503E+02  0.00000000000E+00 0.  1.
         13    1    4    4    0    0 -0.39384958360E+02 -0.17627871812E+03 -0.54202138300E+03  0.57132524978E+03  0.00000000000E+00 0. -1.
         21    1    1    2  502  503 -0.20855145285E+02 -0.42232553274E+02 -0.39375546915E+02  0.61391850728E+02  0.00000000000E+00 0. -1.
         21    1    1    2  503  501 -0.20562545493E+02  0.90221862847E+00  0.52161005236E+02  0.56074974301E+02  0.00000000000E+00 0.  1.
<scales pt_clust_5="13000.00000" pt_clust_6="13000.00000" pt_clust_7="13000.00000" pt_clust_8="13000.00000" pt_clust_9="47.35279" pt_clust_10="20.58233"></scales>
<clustering>
<clus scale="   20.582">  1 10  2 -1</clus>
<clus scale="   47.353">  2  9  1 -1</clus>
<clus scale="   91.200">  5  6 -1 -1</clus>
<clus scale="   95.696">  7  8 -1 -1</clus>
<clus scale="  270.757">  1  5  2 -1</clus>
<clus scale="   47.353">  2  5  1 -1</clus>
</clustering>
</event>
<event>
10    2  0.2445576E-006  0.9850895E+02  0.7546771E-02  0.1284031E+00
         -3   -1    0    0    0  501 -0.00000000000E+00  0.00000000000E+00  0.99162813023E+02  0.99162813023E+02  0.00000000000E+00 0.  1.
          3   -1    0    0  502    0  0.00000000000E+00 -0.00000000000E+00 -0.45830369030E+03  0.45830369030E+03  0.00000000000E+00 0. -1.
         23    2    1    2    0    0  0.30448026007E+02 -0.14423834639E+02  0.17666295700E+02  0.10141135802E+03  0.94005511746E+02 0.  0.
         23    2    1    2    0    0  0.25456032295E+01 -0.75263320949E+02 -0.13272151475E+03  0.17865245642E+03  0.92901303169E+02 0.  0.
        -11    1    4    4    0    0  0.41392867619E+02 -0.68249011574E+02 -0.94584708797E+02  0.12376414751E+03  0.00000000000E+00 0.  1.
         11    1    4    4    0    0 -0.38847264389E+02 -0.70143093751E+01 -0.38136805957E+02  0.54888308911E+02  0.00000000000E+00 0. -1.
        -13    1    3    3    0    0 -0.18449862468E+02  0.28929880408E+02  0.91341330552E+01  0.35507292099E+02  0.00000000000E+00 0. -1.
         13    1    3    3    0    0  0.48897888475E+02 -0.43353715047E+02  0.85321626446E+01  0.65904065922E+02  0.00000000000E+00 0.  1.
         21    1    1    2  502  503 -0.34106745211E+02  0.65666204921E+02 -0.24223522603E+03  0.25328486980E+03  0.00000000000E+00 0. -1.
         21    1    1    2  503  501  0.11131159751E+01  0.24020950667E+02 -0.18504321903E+01  0.24117819085E+02  0.00000000000E+00 0.  1.
<scales pt_clust_5="13000.00000" pt_clust_6="13000.00000" pt_clust_7="13000.00000" pt_clust_8="13000.00000" pt_clust_9="75.30490" pt_clust_10="24.04673"></scales>
<clustering>
<clus scale="   24.047">  1 10  2 -1</clus>
<clus scale="   75.305">  2  9  1 -1</clus>
<clus scale="   92.901">  5  6 -1 -1</clus>
<clus scale="   94.006">  7  8 -1 -1</clus>
<clus scale="   97.456">  2  5  1 -1</clus>
<clus scale="   75.305">  2  5  1 -1</clus>
</clustering>
</event>
<event>
10    2  0.2445576E-006  0.9731215E+02  0.7546771E-02  0.1287698E+00
         -1   -1    0    0    0  501 -0.00000000000E+00  0.00000000000E+00  0.46734889410E+03  0.46734889410E+03  0.00000000000E+00 0.  1.
          1   -1    0    0  502    0  0.00000000000E+00 -0.00000000000E+00 -0.28793103831E+03  0.28793103831E+03  0.00000000000E+00 0. -1.
         23    2    1    2    0    0  0.27379253424E+02  0.47831365319E+02  0.30204276741E+03  0.31940283046E+03  0.88039035299E+02 0.  0.
         23    2    1    2    0    0 -0.13507015272E+02 -0.28837731318E+01  0.53755705479E+02  0.10677162713E+03  0.91212657450E+02 0.  0.
        -11    1    3    3    0    0  0.87998026322E+01 -0.19542817226E+02  0.21778301391E+02  0.30555730117E+02  0.00000000000E+00 0. -1.
         11    1    3    3    0    0  0.18579450791E+02  0.67374182544E+02  0.28026446602E+03  0.28884710034E+03  0.00000000000E+00 0.  1.
        -13    1    4    4    0    0 -0.42963879474E+02  0.75624101107E-01 -0.26743444828E+01  0.43047099517E+02  0.00000000000E+00 0.  1.
         13    1    4    4    0    0  0.29456864202E+02 -0.29593972329E+01  0.56430049962E+02  0.63724527611E+02  0.00000000000E+00 0. -1.
         21    1    1    2  502  503  0.11702072761E+02 -0.37929132163E+02 -0.24881900500E+03  0.25196518574E+03  0.00000000000E+00 0. -1.
         21    1    1    2  503  501 -0.25574310913E+02 -0.70184600235E+01  0.72438387893E+02  0.77140289086E+02  0.00000000000E+00 0.  1.
<scales pt_clust_5="13000.00000" pt_clust_6="13000.00000" pt_clust_7="13000.00000" pt_clust_8="13000.00000" pt_clust_9="39.69010" pt_clust_10="26.51988"></scales>
<clustering>
<clus scale="   26.520">  1 10  2 -1</clus>
<clus scale="   39.690">  2  9  1 -1</clus>
<clus scale="   88.039">  5  6 -1 -1</clus>
<clus scale="   91.213">  7  8 -1 -1</clus>
<clus scale="   94.344">  1  5  2 -1</clus>
<clus scale="   39.690">  2  5  1 -1</clus>
</clustering>
</event>
<event>
10    2  0.2445576E-006  0.1029806E+03  0.7546771E-02  0.1277074E+00
          2   -1    0    0  502    0  0.00000000000E+00  0.00000000000E+00  0.53583975647E+03  0.53583975647E+03  0.00000000000E+00 0. -1.
         -2   -1    0    0    0  501 -0.00000000000E+00 -0.00000000000E+00 -0.66289754410E+02  0.66289754410E+02  0.00000000000E+00 0.  1.
         23    2    1    2    0    0  0.39266236406E+02 -0.10466555063E+02  0.61785270493E+02  0.11271226336E+03  0.85060264321E+02 0.  0.
         23    2    1    2    0    0 -0.31178182803E+02  0.57695336503E+02  0.16628057792E+03  0.20077273665E+03  0.91431013622E+02 0.  0.
        -11    1    3    3    0    0  0.30523416569E+02 -0.47273908798E+02  0.33648288446E+02  0.65564538643E+02  0.00000000000E+00 0.  1.
         11    1    3    3    0    0  0.87428198374E+01  0.36807353735E+02  0.28136982047E+02  0.47147724721E+02  0.00000000000E+00 0. -1.
        -11    1    4    4    0    0 -0.14609835990E+02  0.31554631421E+02  0.16622547940E+03  0.16982359104E+03  0.00000000000E+00 0. -1.
         11    1    4    4    0    0 -0.16568346813E+02  0.26140705082E+02  0.55098520395E-01  0.30949145613E+02  0.00000000000E+00 0.  1.
         21    1    1    2  502  503 -0.26766761963E+02 -0.58690101135E+02  0.25490939104E+03  0.26294445261E+03  0.00000000000E+00 0.  1.
         21    1    1    2  503  501  0.18678708360E+02  0.11461319696E+02 -0.13425237394E+02  0.25700058254E+02  0.00000000000E+00 0. -1.
<scales pt_clust_5="13000.00000" pt_clust_6="13000.00000" pt_clust_7="13000.00000" pt_clust_8="13000.00000" pt_clust_9="62.95153" pt_clust_10="21.91474"></scales>
<clustering>
<clus scale="   21.915">  2 10  1 -1</clus>
<clus scale="   62.952">  1  9  2 -1</clus>
<clus scale="   85.060">  5  6 -1 -1</clus>
<clus scale="   91.431">  7  8 -1 -1</clus>
<clus scale="   97.368">  2  5  1 -1</clus>
<clus scale="   62.952">  1  5  2 -1</clus>
</clustering>
</event>
<event>
10    2  0.2445576E-006  0.1016975E+03  0.7546771E-02  0.1277191E+00
          1   -1    0    0  502    0  0.00000000000E+00  0.00000000000E+00  0.20674714918E+03  0.20674714918E+03  0.00000000000E+00 0. -1.
         -1   -1    0    0    0  501 -0.00000000000E+00 -0.00000000000E+00 -0.20880185789E+03  0.20880185789E+03  0.00000000000E+00 0.  1.
         23    2    1    2    0    0  0.18860211648E+02  0.25056802125E+01 -0.38698591863E+02  0.10141450541E+03  0.91789622932E+02 0.  0.
         23    2    1    2    0    0 -0.76750851190E+02 -0.10637167606E+02  0.93421653897E+02  0.15162451740E+03  0.90876544645E+02 0.  0.
        -13    1    4    4    0    0  0.17436264496E+02  0.13074425984E+02  0.22778272502E+02  0.31524809794E+02  0.00000000000E+00 0.  1.
         13    1    4    4    0    0 -0.94187115686E+02 -0.23711593590E+02  0.70643381395E+02  0.12009970760E+03  0.00000000000E+00 0. -1.
        -13    1    3    3    0    0 -0.33726915539E+02  0.16230020709E+02 -0.57759448060E+01  0.37871888550E+02  0.00000000000E+00 0. -1.
         13    1    3    3    0    0  0.52587127186E+02 -0.13724340496E+02 -0.32922647057E+02  0.63542616857E+02  0.00000000000E+00 0.  1.
         21    1    1    2  502  503  0.32840564024E+02  0.19623888511E+02  0.43840260873E+02  0.58185634990E+02  0.00000000000E+00 0.  1.
         21    1    1    2  503  501  0.25050075518E+02 -0.11492401117E+02 -0.10061803162E+03  0.10432434928E+03  0.00000000000E+00 0.  1.
<scales pt_clust_5="13000.00000" pt_clust_6="13000.00000" pt_clust_7="13000.00000" pt_clust_8="13000.00000" pt_clust_9="39.33976" pt_clust_10="27.56051"></scales>
<clustering>
<clus scale="   27.561">  2 10  1 -1</clus>
<clus scale="   39.340">  1  9  2 -1</clus>
<clus scale="   90.877">  5  6 -1 -1</clus>
<clus scale="   91.790">  7  8 -1 -1</clus>
<clus scale="  100.874">  1  5  2 -1</clus>
<clus scale="   39.340">  1  5  2 -1</clus>
</clustering>
</event>
<event>
10    2  0.2445576E-006  0.1093448E+03  0.7546771E-02  0.1263657E+00
         -2   -1    0    0    0  501 -0.00000000000E+00  0.00000000000E+00  0.76165405705E+02  0.76165405705E+02  0.00000000000E+00 0.  1.
          2   -1    0    0  502    0  0.00000000000E+00 -0.00000000000E+00 -0.54230830746E+03  0.54230830746E+03  0.00000000000E+00 0. -1.
         23    2    1    2    0    0  0.34923554092E+01 -0.47762346604E+02 -0.82492750759E+02  0.13166216650E+03  0.90754800762E+02 0.  0.
         23    2    1    2    0    0 -0.29195889583E+02  0.73255726333E+02 -0.37005395477E+03  0.38801026217E+03  0.85983909543E+02 0.  0.
        -11    1    4    4    0    0 -0.49118643463E+02  0.18301588138E+02 -0.23625238783E+03  0.24199747937E+03  0.00000000000E+00 0.  1.
         11    1    4    4    0    0  0.19922753880E+02  0.54954138196E+02 -0.13380156694E+03  0.14601278280E+03  0.00000000000E+00 0. -1.
        -13    1    3    3    0    0 -0.48072844623E+01 -0.74437886797E+02 -0.57593456253E+02  0.94239668812E+02  0.00000000000E+00 0.  1.
         13    1    3    3    0    0  0.82996398715E+01  0.26675540193E+02 -0.24899294506E+02  0.37422497692E+02  0.00000000000E+00 0. -1.
         21    1    1    2  502  503 -0.86911881733E+01 -0.22580780113E+02 -0.45669205302E+02  0.51682731113E+02  0.00000000000E+00 0.  1.
         21    1    1    2  503  501  0.34394722347E+02 -0.29125996167E+01  0.32073009071E+02  0.47118553381E+02  0.00000000000E+00 0.  1.
<scales pt_clust_5="13000.00000" pt_clust_6="13000.00000" pt_clust_7="13000.00000" pt_clust_8="13000.00000" pt_clust_9="24.19563" pt_clust_10="34.41670"></scales>
<clustering>
<clus scale="   24.196">  2  9  1 -1</clus>
<clus scale="   34.417">  1 10  2 -1</clus>
<clus scale="   85.984">  5  6 -1 -1</clus>
<clus scale="   90.755">  7  8 -1 -1</clus>
<clus scale="  105.419">  2  5  1 -1</clus>
<clus scale="   24.196">  2  5  1 -1</clus>
</clustering>
</event>
<event>
10    2  0.2445576E-006  0.1131157E+03  0.7546771E-02  0.1256264E+00
          1   -1    0    0  502    0  0.00000000000E+00  0.00000000000E+00  0.48275974270E+03  0.48275974270E+03  0.00000000000E+00 0. -1.
         -1   -1    0    0    0  501 -0.00000000000E+00 -0.00000000000E+00 -0.72624354234E+02  0.72624354234E+02  0.00000000000E+00 0.  1.
         23    2    1    2    0    0  0.35219736890E+02  0.75846119424E+02  0.69854368551E+02  0.14270457828E+03  0.92151506546E+02 0.  0.
         23    2    1    2    0    0  0.40063722635E+02 -0.58090501540E+02  0.14228541988E+03  0.18178876044E+03  0.88444358050E+02 0.  0.
        -13    1    4    4    0    0  0.19289491194E+02 -0.55115057296E+02  0.26514175513E+02  0.64130768859E+02  0.00000000000E+00 0.  1.
         13    1    4    4    0    0  0.20774231441E+02 -0.29754442431E+01  0.11577124436E+03  0.11765799158E+03  0.00000000000E+00 0. -1.
        -13    1    3    3    0    0  0.28152666237E+02 -0.15759357083E+02  0.22562870796E+02  0.39370205619E+02  0.00000000000E+00 0. -1.
         13    1    3    3    0    0  0.70670706531E+01  0.91605476507E+02  0.47291497754E+02  0.10333437266E+03  0.00000000000E+00 0.  1.
         21    1    1    2  502  503 -0.27544037212E+02 -0.35542546207E+01  0.17290451179E+03  0.17512074951E+03  0.00000000000E+00 0. -1.
         21    1    1    2  503  501 -0.47739422313E+02 -0.14201363264E+02  0.25091088245E+02  0.55770008702E+02  0.00000000000E+00 0.  1.
<scales pt_clust_5="13000.00000" pt_clust_6="13000.00000" pt_clust_7="13000.00000" pt_clust_8="13000.00000" pt_clust_9="27.77241" pt_clust_10="53.40000"></scales>
<clustering>
<clus scale="   27.772">  1  9  2 -1</clus>
<clus scale="   53.400">  2 10  1 -1</clus>
<clus scale="   88.444">  5  6 -1 -1</clus>
<clus scale="   92.152">  7  8 -1 -1</clus>
<clus scale="  110.117">  1  5  2 -1</clus>
<clus scale="   27.772">  1  5  2 -1</clus>
</clustering>
</event>
<event>
10    2  0.2445576E-006  0.1010872E+03  0.7546771E-02  0.1278194E+00
          2   -1    0    0  502    0  0.00000000000E+00  0.00000000000E+00  0.68678854451E+03  0.68678854451E+03  0.00000000000E+00 0. -1.
         -2   -1    0    0    0  501 -0.00000000000E+00 -0.00000000000E+00 -0.36683925828E+02  0.36683925828E+02  0.00000000000E+00 0.  1.
         23    2    1    2    0    0 -0.47231832149E+02 -0.23869323923E+02  0.15774495874E+03  0.18990027999E+03  0.91531708946E+02 0.  0.
         23    2    1    2    0    0  0.35335778750E+02 -0.37421203784E+02  0.18833193633E+03  0.21578019673E+03  0.91886948508E+02 0.  0.
        -11    1    4    4    0    0 -0.18385277869E+02  0.18345201484E+02  0.66857028967E+02  0.71724662301E+02  0.00000000000E+00 0. -1.
         11    1    4    4    0    0  0.53721056618E+02 -0.55766405268E+02  0.12147490736E+03  0.14405553442E+03  0.00000000000E+00 0.  1.
        -13    1    3    3    0    0 -0.46259873463E+01 -0.39156671051E+02  0.18634672107E+02  0.43610728625E+02  0.00000000000E+00 0.  1.
         13    1    3    3    0    0 -0.42605844803E+02  0.15287347128E+02  0.13911028663E+03  0.14628955137E+03  0.00000000000E+00 0. -1.
         21    1    1    2  502  503  0.11320034703E+02  0.32705919512E+02  0.27456458202E+03  0.27673729430E+03  0.00000000000E+00 0. -1.
         21    1    1    2  503  501  0.57601869658E+00  0.28584608195E+02  0.29463141604E+02  0.41054699321E+02  0.00000000000E+00 0. -1.
<scales pt_clust_5="13000.00000" pt_clust_6="13000.00000" pt_clust_7="13000.00000" pt_clust_8="13000.00000" pt_clust_9="35.56756" pt_clust_10="28.59041"></scales>
<clustering>
<clus scale="   28.590">  2 10  1 -1</clus>
<clus scale="   35.568">  1  9  2 -1</clus>
<clus scale="   91.532">  7  8 -1 -1</clus>
<clus scale="   91.887">  5  6 -1 -1</clus>
<clus scale="  100.764">  2  7  1 -1</clus>
<clus scale="   35.568">  1  5  2 -1</clus>
</clustering>
</event>
<event>
10    2  0.2445576E-006  0.1120461E+03  0.7546771E-02  0.1259032E+00
         -2   -1    0    0    0  501 -0.00000000000E+00  0.00000000000E+00  0.42114868665E+02  0.42114868665E+02  0.00000000000E+00 0.  1.
          2   -1    0    0  502    0  0.00000000000E+00 -0.00000000000E+00 -0.63029249533E+03  0.63029249533E+03  0.00000000000E+00 0. -1.
         23    2    1    2    0    0 -0.41016388648E+02 -0.33077846994E+02 -0.94973077814E+02  0.14150506127E+03  0.90704513422E+02 0.  0.
         23    2    1    2    0    0  0.51726841530E+02  0.63473994198E+02 -0.34539049494E+03  0.36779349859E+03  0.96295636149E+02 0.  0.
        -13    1    3    3    0    0  0.16520634176E+02  0.19960369766E+02 -0.31205385344E+02  0.40560125606E+02  0.00000000000E+00 0. -1.
         13    1    3    3    0    0 -0.57537022823E+02 -0.53038216760E+02 -0.63767692470E+02  0.10094493566E+03  0.00000000000E+00 0.  1.
        -13    1    4    4    0    0 -0.21079566017E+02  0.43813211006E+02 -0.10215547349E+03  0.11313569872E+03  0.00000000000E+00 0.  1.
         13    1    4    4    0    0  0.72806407547E+02  0.19660783192E+02 -0.24323502145E+03  0.25465779987E+03  0.00000000000E+00 0. -1.
         21    1    1    2  502  503 -0.29282028814E+02 -0.22303613734E+02 -0.13303321807E+03  0.13803161053E+03  0.00000000000E+00 0.  1.
         21    1    1    2  503  501  0.18571575932E+02 -0.80925334691E+01 -0.14780835846E+02  0.25077193600E+02  0.00000000000E+00 0.  1.
<scales pt_clust_5="13000.00000" pt_clust_6="13000.00000" pt_clust_7="13000.00000" pt_clust_8="13000.00000" pt_clust_9="36.16128" pt_clust_10="20.25815"></scales>
<clustering>
<clus scale="   20.258">  1 10  2 -1</clus>
<clus scale="   36.161">  2  9  1 -1</clus>
<clus scale="   90.705">  5  6 -1 -1</clus>
<clus scale="   96.296">  7  8 -1 -1</clus>
<clus scale="  107.279">  1  5  2 -1</clus>
<clus scale="   36.161">  2  5  1 -1</clus>
</clustering>
</event>
<event>
10    2  0.2445576E-006  0.9476689E+02  0.7546771E-02  0.1292412E+00
          1   -1    0    0  502    0  0.00000000000E+00  0.00000000000E+00  0.71341662351E+02  0.71341662351E+02  0.00000000000E+00 0. -1.
         -1   -1    0    0    0  501 -0.00000000000E+00 -0.00000000000E+00 -0.39128410381E+03  0.39128410381E+03  0.00000000000E+00 0.  1.
         23    2    1    2    0    0 -0.52598079858E+01 -0.32621156569E+02 -0.57485182592E+02  0.11342707435E+03  0.92029069011E+02 0.  0.
         23    2    1    2    0    0  0.10194749060E+02  0.14303324012E+02 -0.40378191985E+02  0.10086257805E+03  0.90743282273E+02 0.  0.
        -11    1    3    3    0    0  0.42923204814E+02 -0.13775527973E+02 -0.18878513038E+02  0.48872946882E+02  0.00000000000E+00 0.  1.
         11    1    3    3    0    0 -0.48183012800E+02 -0.18845628596E+02 -0.38606669554E+02  0.64554127472E+02  0.00000000000E+00 0. -1.
        -11    1    4    4    0    0 -0.31634846746E+02 -0.19942348691E+02 -0.94137265801E+01  0.38562663913E+02  0.00000000000E+00 0. -1.
         11    1    4    4    0    0  0.41829595806E+02  0.34245672704E+02 -0.30964465405E+02  0.62299914142E+02  0.00000000000E+00 0.  1.
         21    1    1    2  502  503  0.79848560084E+01 -0.19599202425E+02  0.14814875539E+01  0.21215123533E+02  0.00000000000E+00 0.  1.
         21    1    1    2  503  501 -0.12919797083E+02  0.37917034982E+02 -0.22356055444E+03  0.22712099022E+03  0.00000000000E+00 0. -1.
<scales pt_clust_5="13000.00000" pt_clust_6="13000.00000" pt_clust_7="13000.00000" pt_clust_8="13000.00000" pt_clust_9="21.16333" pt_clust_10="39.43084"></scales>
<clustering>
<clus scale="   21.163">  1  9  2 -1</clus>
<clus scale="   39.431">  2 10  1 -1</clus>
<clus scale="   90.743">  7  8 -1 -1</clus>
<clus scale="   92.029">  5  6 -1 -1</clus>
<clus scale="   93.519">  1  7  2 -1</clus>
<clus scale="   21.163">  1  5  2 -1</clus>
</clustering>
</event>
<event>
10    2  0.2445576E-006  0.1001325E+03  0.7546771E-02  0.1282447E+00
          1   -1    0    0  502    0  0.00000000000E+00  0.00000000000E+00  0.10327684756E+04  0.10327684756E+04  0.00000000000E+00 0. -1.
         -1   -1    0    0    0  501 -0.00000000000E+00 -0.00000000000E+00 -0.28524066403E+02  0.28524066403E+02  0.00000000000E+00 0.  1.
         23    2    1    2    0    0 -0.65487448556E+01 -0.27711872938E+02  0.11449568714E+03  0.14519678997E+03  0.84628668213E+02 0.  0.
         23    2    1    2    0    0  0.76184607491E+02  0.37652620515E+01  0.45128739883E+03  0.46639513682E+03  0.89698582451E+02 0.  0.
        -11    1    3    3    0    0  0.25442201242E+02  0.19376808262E+02  0.47765920586E+02  0.57483471293E+02  0.00000000000E+00 0. -1.
         11    1    3    3    0    0 -0.31990946097E+02 -0.47088681200E+02  0.66729766554E+02  0.87713318679E+02  0.00000000000E+00 0.  1.
        -13    1    4    4    0    0  0.68722002539E+02  0.40715047856E+02  0.29457962075E+03  0.30521726969E+03  0.00000000000E+00 0. -1.
         13    1    4    4    0    0  0.74626049516E+01 -0.36949785805E+02  0.15670777807E+03  0.16117786713E+03  0.00000000000E+00 0.  1.
         21    1    1    2  502  503 -0.42149581257E+02  0.36797502976E+02  0.37730388106E+03  0.38143002254E+03  0.00000000000E+00 0.  1.
         21    1    1    2  503  501 -0.27486281378E+02 -0.12850892089E+02  0.61157442137E+02  0.68270592646E+02  0.00000000000E+00 0.  1.
<scales pt_clust_5="13000.00000" pt_clust_6="13000.00000" pt_clust_7="13000.00000" pt_clust_8="13000.00000" pt_clust_9="57.01088" pt_clust_10="30.34207"></scales>
<clustering>
<clus scale="   30.342">  2 10  1 -1</clus>
<clus scale="   57.011">  1  9  2 -1</clus>
<clus scale="   84.629">  5  6 -1 -1</clus>
<clus scale="   89.699">  7  8 -1 -1</clus>
<clus scale="   95.617">  2  5  1 -1</clus>
<clus scale="   57.011">  1  5  2 -1</clus>
</clustering>
</event>
<event>
10    2  0.2445576E-006  0.1274567E+03  0.7546771E-02  0.1232136E+00
          2   -1    0    0  502    0  0.00000000000E+00  0.00000000000E+00  0.71273188284E+03  0.71273188284E+03  0.00000000000E+00 0. -1.
         -2   -1    0    0    0  501 -0.00000000000E+00 -0.00000000000E+00 -0.44823213140E+02  0.44823213140E+02  0.00000000000E+00 0.  1.
         23    2    1    2    0    0 -0.89100932660E+02 -0.56120123812E+02  0.18105260107E+03  0.22880716075E+03  0.92109868963E+02 0.  0.
         23    2    1    2    0    0  0.29959492454E+02  0.59886185239E+02  0.30022301430E+03  0.32197047679E+03  0.95116787373E+02 0.  0.
        -11    1    3    3    0    0 -0.26735426544E+02 -0.26888382470E+02  0.14730582901E+03  0.15210777562E+03  0.00000000000E+00 0. -1.
         11    1    3    3    0    0 -0.62365506116E+02 -0.29231741342E+02  0.33746772058E+02  0.76699385130E+02  0.00000000000E+00 0.  1.
        -13    1    4    4    0    0  0.43156620469E+02  0.80533793374E+02  0.24764044306E+03  0.26395828232E+03  0.00000000000E+00 0. -1.
         13    1    4    4    0    0 -0.13197128015E+02 -0.20647608135E+02  0.52582571240E+02  0.58012194475E+02  0.00000000000E+00 0.  1.
         21    1    1    2  502  503  0.39225267322E+02  0.14311055015E+01  0.18131977984E+03  0.18551962759E+03  0.00000000000E+00 0. -1.
         21    1    1    2  503  501  0.19916172884E+02 -0.51971669286E+01  0.53132744909E+01  0.21257830845E+02  0.00000000000E+00 0. -1.
<scales pt_clust_5="13000.00000" pt_clust_6="13000.00000" pt_clust_7="13000.00000" pt_clust_8="13000.00000" pt_clust_9="40.37613" pt_clust_10="20.58311"></scales>
<clustering>
<clus scale="   20.583">  2 10  1 -1</clus>
<clus scale="   40.376">  1  9  2 -1</clus>
<clus scale="   92.110">  5  6 -1 -1</clus>
<clus scale="   95.117">  7  8 -1 -1</clus>
<clus scale="  125.229">  2  5  1 -1</clus>
<clus scale="   40.376">  1  5  2 -1</clus>
</clustering>
</event>
<event>
10    2  0.2445576E-006  0.1271602E+03  0.7546771E-02  0.1233326E+00
          1   -1    0    0  502    0  0.00000000000E+00  0.00000000000E+00  0.29158269143E+03  0.29158269143E+03  0.00000000000E+00 0. -1.
         -1   -1    0    0    0  501 -0.00000000000E+00 -0.00000000000E+00 -0.17337519293E+03  0.17337519293E+03  0.00000000000E+00 0.  1.
         23    2    1    2    0    0  0.77617492173E+02  0.74721140581E+02 -0.70726652471E+02  0.16183829401E+03  0.97885903466E+02 0.  0.
         23    2    1    2    0    0 -0.12899709590E+02 -0.47122528480E+02  0.22000094178E+02  0.10689449531E+03  0.92495912263E+02 0.  0.
        -11    1    3    3    0    0  0.44695016816E+02  0.68043357969E+02 -0.91395933521E+02  0.12239591397E+03  0.00000000000E+00 0.  1.
         11    1    3    3    0    0  0.32922475356E+02  0.66777826117E+01  0.20669281050E+02  0.39442380041E+02  0.00000000000E+00 0. -1.
        -11    1    4    4    0    0 -0.35224194598E+02 -0.43916938247E+02  0.46918164768E+02  0.73285438767E+02  0.00000000000E+00 0. -1.
         11    1    4    4    0    0  0.22324485009E+02 -0.32055902328E+01 -0.24918070589E+02  0.33609056540E+02  0.00000000000E+00 0.  1.
         21    1    1    2  502  503 -0.19704832147E+02 -0.69196528478E+01  0.13649733661E+03  0.13808578821E+03  0.00000000000E+00 0. -1.
         21    1    1    2  503  501 -0.45012950435E+02 -0.20678959253E+02  0.30436720182E+02  0.58139306825E+02  0.00000000000E+00 0. -1.
<scales pt_clust_5="13000.00000" pt_clust_6="13000.00000" pt_clust_7="13000.00000" pt_clust_8="13000.00000" pt_clust_9="20.88449" pt_clust_10="55.50734"></scales>
<clustering>
<clus scale="   20.884">  1  9  2 -1</clus>
<clus scale="   55.507">  1 10  2 -1</clus>
<clus scale="   92.496">  7  8 -1 -1</clus>
<clus scale="   97.886">  5  6 -1 -1</clus>
<clus scale="  123.059">  1  7  2 -1</clus>
<clus scale="   20.884">  1  5  2 -1</clus>
</clustering>
</event>
<event>
10    2  0.2445576E-006  0.1053693E+03  0.7546771E-02  0.1270486E+00
         -2   -1    0    0    0  501 -0.00000000000E+00  0.00000000000E+00  0.10117766905E+04  0.10117766905E+04  0.00000000000E+00 0.  1.
          2   -1    0    0  502    0  0.00000000000E+00 -0.00000000000E+00 -0.55138768915E+02  0.55138768915E+02  0.00000000000E+00 0. -1.
         23    2    1    2    0    0 -0.24357044270E+02 -0.56930680249E+02  0.54517237982E+03  0.55620417558E+03  0.91190971322E+02 0.  0.
         23    2    1    2    0    0 -0.79355955422E+02  0.25970128224E+02  0.58930536918E+02  0.13528179206E+03  0.88637124611E+02 0.  0.
        -13    1    4    4    0    0 -0.10204156278E+02 -0.29115078132E+02  0.37843646323E+01  0.31082696081E+02  0.00000000000E+00 0.  1.
         13    1    4    4    0    0 -0.69151799143E+02  0.55085206356E+02  0.55146172286E+02  0.10419909597E+03  0.00000000000E+00 0. -1.
        -13    1    3    3    0    0  0.30816208484E+02  0.75507235997E-01  0.14329656273E+03  0.14657267582E+03  0.00000000000E+00 0.  1.
         13    1    3    3    0    0 -0.55173252754E+02 -0.57006187485E+02  0.40187581710E+03  0.40963149976E+03  0.00000000000E+00 0. -1.
         21    1    1    2  502  503  0.41436055420E+02  0.14442530431E+02  0.51883394109E+02  0.67951600116E+02  0.00000000000E+00 0.  1.
         21    1    1    2  503  501  0.62276944272E+02  0.16518021594E+02  0.30065161075E+03  0.30747789168E+03  0.00000000000E+00 0.  1.
<scales pt_clust_5="13000.00000" pt_clust_6="13000.00000" pt_clust_7="13000.00000" pt_clust_8="13000.00000" pt_clust_9="43.88090" pt_clust_10="67.60107"></scales>
<clustering>
<clus scale="   43.881">  2  9  1 -1</clus>
<clus scale="   67.601">  1 10  2 -1</clus>
<clus scale="   88.637">  5  6 -1 -1</clus>
<clus scale="   91.191">  7  8 -1 -1</clus>
<clus scale="  103.167">  2  5  1 -1</clus>
<clus scale="   43.881">  2  5  1 -1</clus>
</clustering>
</event>
<event>
10    2  0.2445576E-006  0.1085984E+03  0.7546771E-02  0.1266252E+00
         -3   -1    0    0    0  501 -0.00000000000E+00  0.00000000000E+00  0.12499037496E+03  0.12499037496E+03  0.00000000000E+00 0.  1.
          3   -1    0    0  502    0  0.00000000000E+00 -0.00000000000E+00 -0.26146706272E+03  0.26146706272E+03  0.00000000000E+00 0. -1.
         23    2    1    2    0    0 -0.46940373541E+02 -0.32560123811E+02 -0.25426029818E+02  0.10570352282E+03  0.85224359279E+02 0.  0.
         23    2    1    2    0    0  0.58548012451E+02 -0.37918601783E+02 -0.14855906597E+03  0.18848703695E+03  0.92692377763E+02 0.  0.
        -11    1    4    4    0    0  0.33982423500E+02 -0.14858196986E+02 -0.15024141218E+03  0.15475158500E+03  0.00000000000E+00 0. -1.
         11    1    4    4    0    0  0.24565588950E+02 -0.23060404797E+02  0.16823462156E+01  0.33735451956E+02  0.00000000000E+00 0.  1.
        -11    1    3    3    0    0 -0.22153680109E+02 -0.54027673504E+02  0.79296126195E+01  0.58929227068E+02  0.00000000000E+00 0. -1.
         11    1    3    3    0    0 -0.24786693432E+02  0.21467549692E+02 -0.33355642438E+02  0.46774295756E+02  0.00000000000E+00 0.  1.
         21    1    1    2  502  503 -0.27049055833E+01  0.51323773324E+02  0.25943031607E+01  0.51460437536E+02  0.00000000000E+00 0. -1.
         21    1    1    2  503  501 -0.89027333264E+01  0.19154952270E+02  0.34914104864E+02  0.40806440369E+02  0.00000000000E+00 0. -1.
<scales pt_clust_5="13000.00000" pt_clust_6="13000.00000" pt_clust_7="13000.00000" pt_clust_8="13000.00000" pt_clust_9="57.52587" pt_clust_10="21.12276"></scales>
<clustering>
<clus scale="   21.123">  1 10  2 -1</clus>
<clus scale="   57.526">  1  9  2 -1</clus>
<clus scale="   85.224">  7  8 -1 -1</clus>
<clus scale="   92.692">  5  6 -1 -1</clus>
<clus scale="  102.298">  1  7  2 -1</clus>
<clus scale="  108.598">  2  5  1 -1</clus>
</clustering>
</event>
<event>
10    2  0.2445576E-006  0.1377506E+03  0.7546771E-02  0.1221378E+00
         -1   -1    0    0    0  501 -0.00000000000E+00  0.00000000000E+00  0.23327466027E+03  0.23327466027E+03  0.00000000000E+00 0.  1.
          1   -1    0    0  502    0  0.00000000000E+00 -0.00000000000E+00 -0.14097327670E+03  0.14097327670E+03  0.00000000000E+00 0. -1.
         23    2    1    2    0    0  0.77707520385E+02 -0.79899982952E+02  0.69862920884E+02  0.14973815339E+03  0.71541742132E+02 0.  0.
         23    2    1    2    0    0 -0.35089483736E+02  0.10076191211E+03  0.10317168166E+02  0.14213328024E+03  0.93333759127E+02 0.  0.
        -13    1    4    4    0    0 -0.39005632505E+02  0.38623264941E+02  0.44895315726E+02  0.70913929068E+02  0.00000000000E+00 0.  1.
         13    1    4    4    0    0  0.39161487690E+01  0.62138647166E+02 -0.34578147559E+02  0.71219351173E+02  0.00000000000E+00 0. -1.
        -13    1    3    3    0    0  0.61961206640E+02 -0.31143861414E+02  0.69954050289E+02  0.98502286186E+02  0.00000000000E+00 0. -1.
         13    1    3    3    0    0  0.15746313745E+02 -0.48756121538E+02 -0.91129405044E-01  0.51235867208E+02  0.00000000000E+00 0.  1.
         21    1    1    2  502  503 -0.79855215152E+01 -0.28360997960E+02 -0.19130020857E+02  0.35129367445E+02  0.00000000000E+00 0. -1.
         21    1    1    2  503  501 -0.34632515134E+02  0.74990688051E+01  0.31251315371E+02  0.47247135890E+02  0.00000000000E+00 0.  1.
<scales pt_clust_5="13000.00000" pt_clust_6="13000.00000" pt_clust_7="13000.00000" pt_clust_8="13000.00000" pt_clust_9="29.46379" pt_clust_10="35.62172"></scales>
<clustering>
<clus scale="   29.464">  2  9  1 -1</clus>
<clus scale="   35.622">  1 10  2 -1</clus>
<clus scale="   71.542">  7  8 -1 -1</clus>
<clus scale="   93.334">  5  6 -1 -1</clus>
<clus scale="  124.025">  1  7  2 -1</clus>
<clus scale="   29.464">  2  5  1 -1</clus>
</clustering>
</event>
<event>
10    2  0.2445576E-006  0.1845890E+03  0.7546771E-02  0.1164588E+00
         -1   -1    0    0    0  501 -0.00000000000E+00  0.00000000000E+00  0.14876754799E+03  0.14876754799E+03  0.00000000000E+00 0.  1.
          1   -1    0    0  502    0  0.00000000000E+00 -0.00000000000E+00 -0.54161313239E+03  0.54161313239E+03  0.00000000000E+00 0. -1.
         23    2    1    2    0    0 -0.98991021850E+02 -0.13351191226E+03 -0.71076807325E+02  0.20301736704E+03  0.92409337506E+02 0.  0.
         23    2    1    2    0    0  0.10856814382E+03  0.82606564039E+02 -0.14956803059E+03  0.22647574997E+03  0.10153710297E+03 0.  0.
        -13    1    3    3    0    0 -0.35556852297E+02 -0.20608695043E+02 -0.60425583786E+02  0.73077077340E+02  0.00000000000E+00 0.  1.
         13    1    3    3    0    0 -0.63434169553E+02 -0.11290321722E+03 -0.10651223540E+02  0.12994028970E+03  0.00000000000E+00 0. -1.
        -13    1    4    4    0    0  0.14207847198E+02  0.67150200989E+02 -0.34359186822E+02  0.76756538053E+02  0.00000000000E+00 0.  1.
         13    1    4    4    0    0  0.94360296617E+02  0.15456363050E+02 -0.11520884376E+03  0.14971921192E+03  0.00000000000E+00 0. -1.
         21    1    1    2  502  503  0.58018376714E+01  0.66474118250E+02 -0.20827039386E+03  0.21869848348E+03  0.00000000000E+00 0.  1.
         21    1    1    2  503  501 -0.15378959637E+02 -0.15568770031E+02  0.36069647377E+02  0.42189079887E+02  0.00000000000E+00 0. -1.
<scales pt_clust_5="13000.00000" pt_clust_6="13000.00000" pt_clust_7="13000.00000" pt_clust_8="13000.00000" pt_clust_9="65.92899" pt_clust_10="21.88376"></scales>
<clustering>
<clus scale="   21.884">  1 10  2 -1</clus>
<clus scale="   65.929">  2  9  1 -1</clus>
<clus scale="   92.409">  5  6 -1 -1</clus>
<clus scale="  101.537">  7  8 -1 -1</clus>
<clus scale="  179.730">  1  5  2 -1</clus>
<clus scale="   65.929">  2  5  1 -1</clus>
</clustering>
</event>
<event>
10    2  0.2445576E-006  0.1003946E+03  0.7546771E-02  0.1279769E+00
          1   -1    0    0  502    0  0.00000000000E+00  0.00000000000E+00  0.39834567763E+03  0.39834567763E+03  0.00000000000E+00 0. -1.
         -1   -1    0    0    0  501 -0.00000000000E+00 -0.00000000000E+00 -0.11334233524E+03  0.11334233524E+03  0.00000000000E+00 0.  1.
         23    2    1    2    0    0  0.99951786583E+01  0.46610533088E+02  0.73863229062E+01  0.10359652153E+03  0.91680074807E+02 0.  0.
         23    2    1    2    0    0 -0.89508626447E+01 -0.29748868925E+02  0.31385965527E+02  0.10119600528E+03  0.91051850653E+02 0.  0.
        -11    1    4    4    0    0  0.25124496828E+02 -0.20094268311E+02 -0.20666171902E+02  0.38237555111E+02  0.00000000000E+00 0.  1.
         11    1    4    4    0    0 -0.34075359473E+02 -0.96546006141E+01  0.52052137429E+02  0.62958450164E+02  0.00000000000E+00 0. -1.
        -11    1    3    3    0    0  0.27648217396E+02  0.22871766377E+02 -0.36166535194E+02  0.50946637675E+02  0.00000000000E+00 0.  1.
         11    1    3    3    0    0 -0.17653038737E+02  0.23738766710E+02  0.43552858100E+02  0.52649883858E+02  0.00000000000E+00 0. -1.
         21    1    1    2  502  503 -0.42415565161E+02 -0.23694694259E+02  0.25864190243E+03  0.26316563680E+03  0.00000000000E+00 0.  1.
         21    1    1    2  503  501  0.41371249148E+02  0.68330300967E+01 -0.12410848469E+02  0.43729849257E+02  0.00000000000E+00 0.  1.
<scales pt_clust_5="13000.00000" pt_clust_6="13000.00000" pt_clust_7="13000.00000" pt_clust_8="13000.00000" pt_clust_9="47.54024" pt_clust_10="41.93174"></scales>
<clustering>
<clus scale="   41.932">  2 10  1 -1</clus>
<clus scale="   47.540">  1  9  2 -1</clus>
<clus scale="   91.052">  5  6 -1 -1</clus>
<clus scale="   91.680">  7  8 -1 -1</clus>
<clus scale="   99.821">  1  5  2 -1</clus>
<clus scale="   47.540">  1  5  2 -1</clus>
</clustering>
</event>
<event>
10    2  0.2445576E-006  0.1100870E+03  0.7546771E-02  0.1261360E+00
          2   -1    0    0  502    0  0.00000000000E+00  0.00000000000E+00  0.37081470746E+03  0.37081470746E+03  0.00000000000E+00 0. -1.
         -2   -1    0    0    0  501 -0.00000000000E+00 -0.00000000000E+00 -0.19469744255E+03  0.19469744255E+03  0.00000000000E+00 0.  1.
         23    2    1    2    0    0 -0.33571317851E+02  0.89177948591E+01 -0.92941694564E+01  0.95499199396E+02  0.88471210300E+02 0.  0.
         23    2    1    2    0    0  0.89126940052E+02  0.28074921528E+02  0.27352636968E+03  0.30301790299E+03  0.90947028330E+02 0.  0.
        -13    1    3    3    0    0 -0.53579399811E+01 -0.36637596470E+02 -0.18069385110E+02  0.41201015451E+02  0.00000000000E+00 0.  1.
         13    1    3    3    0    0 -0.28213377870E+02  0.45555391329E+02  0.87752156539E+01  0.54298183945E+02  0.00000000000E+00 0. -1.
        -13    1    4    4    0    0  0.18649170105E+02  0.32554832086E+02  0.26081801080E+02  0.45693205023E+02  0.00000000000E+00 0.  1.
         13    1    4    4    0    0  0.70477769947E+02 -0.44799105577E+01  0.24744456860E+03  0.25732469797E+03  0.00000000000E+00 0. -1.
         21    1    1    2  502  503 -0.30055032353E+02  0.90308055488E+01  0.26374732940E+02  0.40993742892E+02  0.00000000000E+00 0.  1.
         21    1    1    2  503  501 -0.25500589848E+02 -0.46023521936E+02 -0.11448966826E+03  0.12600130472E+03  0.00000000000E+00 0. -1.
<scales pt_clust_5="13000.00000" pt_clust_6="13000.00000" pt_clust_7="13000.00000" pt_clust_8="13000.00000" pt_clust_9="31.38249" pt_clust_10="52.73244"></scales>
<clustering>
<clus scale="   31.382">  1  9  2 -1</clus>
<clus scale="   52.732">  2 10  1 -1</clus>
<clus scale="   88.471">  5  6 -1 -1</clus>
<clus scale="   90.947">  7  8 -1 -1</clus>
<clus scale="  108.051">  2  5  1 -1</clus>
<clus scale="   31.382">  1  5  2 -1</clus>
</clustering>
</event>
<event>
10    2  0.2445576E-006  0.9392112E+02  0.7546771E-02  0.1294546E+00
          2   -1    0    0  502    0  0.00000000000E+00  0.00000000000E+00  0.13311671392E+03  0.13311671392E+03  0.00000000000E+00 0. -1.
         -2   -1    0    0    0  501 -0.00000000000E+00 -0.00000000000E+00 -0.16748768732E+03  0.16748768732E+03  0.00000000000E+00 0.  1.
         23    2    1    2    0    0 -0.41661101526E+02 -0.17514636819E+02 -0.23369457947E+02  0.10531857864E+03  0.92214215596E+02 0.  0.
         23    2    1    2    0    0 -0.13460049782E+02  0.78352248571E+01 -0.77404293951E+01  0.92242118184E+02  0.90587694701E+02 0.  0.
        -11    1    4    4    0    0  0.30888019157E+02  0.11596368150E+02  0.21140931138E+02  0.39185258084E+02  0.00000000000E+00 0. -1.
         11    1    4    4    0    0 -0.44348068938E+02 -0.37611432925E+01 -0.28881360533E+02  0.53056860100E+02  0.00000000000E+00 0.  1.
        -11    1    3    3    0    0 -0.66936746121E+02 -0.29301219891E+02 -0.25395225538E+02  0.77356363336E+02  0.00000000000E+00 0.  1.
         11    1    3    3    0    0  0.25275644595E+02  0.11786583072E+02  0.20257675914E+01  0.27962215301E+02  0.00000000000E+00 0. -1.
         21    1    1    2  502  503  0.25287161918E+02  0.47121748246E+00  0.41421941132E+02  0.48532873508E+02  0.00000000000E+00 0.  1.
         21    1    1    2  503  501  0.29833989390E+02  0.92081944794E+01 -0.44683027182E+02  0.54510830911E+02  0.00000000000E+00 0. -1.
<scales pt_clust_5="13000.00000" pt_clust_6="13000.00000" pt_clust_7="13000.00000" pt_clust_8="13000.00000" pt_clust_9="25.29155" pt_clust_10="32.57990"></scales>
<clustering>
<clus scale="   25.292">  1  9  2 -1</clus>
<clus scale="   32.580">  2 10  1 -1</clus>
<clus scale="   90.588">  5  6 -1 -1</clus>
<clus scale="   92.214">  7  8 -1 -1</clus>
<clus scale="   92.325">  1  5  2 -1</clus>
<clus scale="   25.292">  1  5  2 -1</clus>
</clustering>
</event>
<event>
10    2  0.2445576E-006  0.1439115E+03  0.7546771E-02  0.1215184E+00
         -1   -1    0    0    0  501 -0.00000000000E+00  0.00000000000E+00  0.13460355876E+03  0.13460355876E+03  0.00000000000E+00 0.  1.
          1   -1    0    0  502    0  0.00000000000E+00 -0.00000000000E+00 -0.27723381857E+03  0.27723381857E+03  0.00000000000E+00 0. -1.
         23    2    1    2    0    0 -0.56244651491E+02  0.72235848814E+02 -0.35921771094E+02  0.15204939704E+03  0.11596191973E+03 0.  0.
         23    2    1    2    0    0  0.81934560635E+02 -0.17357659673E+02 -0.10446910652E+03  0.16131171306E+03  0.89961736189E+02 0.  0.
        -13    1    4    4    0    0  0.65701994763E+02  0.29044879432E+02 -0.75669396387E+02  0.10433702452E+03  0.00000000000E+00 0.  1.
         13    1    4    4    0    0  0.16232565872E+02 -0.46402539105E+02 -0.28799710131E+02  0.56974688536E+02  0.00000000000E+00 0. -1.
        -13    1    3    3    0    0  0.20167026688E+02  0.40213329752E+02  0.22862588049E+02  0.50463043780E+02  0.00000000000E+00 0.  1.
         13    1    3    3    0    0 -0.76411678179E+02  0.32022519062E+02 -0.58784359143E+02  0.10158635326E+03  0.00000000000E+00 0. -1.
         21    1    1    2  502  503  0.64847302311E+01 -0.24974750241E+02 -0.35139819753E+02  0.43595834755E+02  0.00000000000E+00 0. -1.
         21    1    1    2  503  501 -0.32174639375E+02 -0.29903438899E+02  0.32900437556E+02  0.54880432472E+02  0.00000000000E+00 0. -1.
<scales pt_clust_5="13000.00000" pt_clust_6="13000.00000" pt_clust_7="13000.00000" pt_clust_8="13000.00000" pt_clust_9="25.80290" pt_clust_10="44.50366"></scales>
<clustering>
<clus scale="   25.803">  2  9  1 -1</clus>
<clus scale="   44.504">  1 10  2 -1</clus>
<clus scale="   89.962">  5  6 -1 -1</clus>
<clus scale="  115.962">  7  8 -1 -1</clus>
<clus scale="  123.921">  2  5  1 -1</clus>
<clus scale="   25.803">  2  5  1 -1</clus>
</clustering>
</event>
<event>
10    2  0.2445576E-006  0.1132626E+03  0.7546771E-02  0.1258636E+00
         -2   -1    0    0    0  501 -0.00000000000E+00  0.00000000000E+00  0.67973005147E+02  0.67973005147E+02  0.00000000000E+00 0.  1.
          2   -1    0    0  502    0  0.00000000000E+00 -0.00000000000E+00 -0.55837230232E+03  0.55837230232E+03  0.00000000000E+00 0. -1.
         23    2    1    2    0    0  0.17649771935E+02  0.15959090630E+02 -0.87446137787E+01  0.88467395271E+02  0.84757328490E+02 0.  0.
         23    2    1    2    0    0 -0.26446981360E+02 -0.70291111300E+02 -0.41127180025E+03  0.42876675832E+03  0.95163838764E+02 0.  0.
        -11    1    4    4    0    0  0.96915312529E+01  0.19091466331E+02 -0.12163647863E+03  0.12350644841E+03  0.00000000000E+00 0.  1.
         11    1    4    4    0    0 -0.36138512613E+02 -0.89382577631E+02 -0.28963532162E+03  0.30526030991E+03  0.00000000000E+00 0. -1.
        -13    1    3    3    0    0  0.28278141905E+02 -0.28142066582E+02 -0.15106777645E+02  0.42659629065E+02  0.00000000000E+00 0. -1.
         13    1    3    3    0    0 -0.10628369970E+02  0.44101157212E+02  0.63621638666E+01  0.45807766206E+02  0.00000000000E+00 0.  1.
         21    1    1    2  502  503 -0.23221876150E+02  0.16555199609E+02 -0.45478275036E+02  0.53680570659E+02  0.00000000000E+00 0.  1.
         21    1    1    2  503  501  0.32019085575E+02  0.37776821060E+02 -0.24904608104E+02  0.55430583212E+02  0.00000000000E+00 0.  1.
<scales pt_clust_5="13000.00000" pt_clust_6="13000.00000" pt_clust_7="13000.00000" pt_clust_8="13000.00000" pt_clust_9="28.51894" pt_clust_10="49.38345"></scales>
<clustering>
<clus scale="   28.519">  2  9  1 -1</clus>
<clus scale="   49.383">  1 10  2 -1</clus>
<clus scale="   84.757">  7  8 -1 -1</clus>
<clus scale="   95.164">  5  6 -1 -1</clus>
<clus scale="  104.671">  1  7  2 -1</clus>
<clus scale="   28.519">  2  5  1 -1</clus>
</clustering>
</event>
<event>
10    2  0.2445576E-006  0.9119459E+02  0.7546771E-02  0.1301154E+00
          1   -1    0    0  502    0  0.00000000000E+00  0.00000000000E+00  0.95335025295E+03  0.95335025295E+03  0.00000000000E+00 0. -1.
         -1   -1    0    0    0  501 -0.00000000000E+00 -0.00000000000E+00 -0.37685845792E+02  0.37685845792E+02  0.00000000000E+00 0.  1.
         23    2    1    2    0    0  0.39264617534E+02 -0.17257580182E+02  0.11586095382E+03  0.15223509452E+03  0.88950711745E+02 0.  0.
         23    2    1    2    0    0  0.35523599269E+02 -0.24454552007E+02  0.21468276910E+03  0.23709002301E+03  0.90901245565E+02 0.  0.
        -11    1    4    4    0    0  0.17758627285E+02  0.17068424194E+02  0.85583831756E+01  0.26075771706E+02  0.00000000000E+00 0.  1.
         11    1    4    4    0    0  0.17764971984E+02 -0.41522976201E+02  0.20612438592E+03  0.21101425130E+03  0.00000000000E+00 0. -1.
        -13    1    3    3    0    0  0.27457248598E+02  0.32230157974E+02  0.78232736599E+02  0.88955295848E+02  0.00000000000E+00 0.  1.
         13    1    3    3    0    0  0.11807368936E+02 -0.49487738156E+02  0.37628217223E+02  0.63279798675E+02  0.00000000000E+00 0. -1.
         21    1    1    2  502  503 -0.52779454252E+02  0.59979979926E+02  0.55283288705E+03  0.55857628824E+03  0.00000000000E+00 0.  1.
         21    1    1    2  503  501 -0.22008762551E+02 -0.18267847738E+02  0.32287797191E+02  0.43134692968E+02  0.00000000000E+00 0. -1.
<scales pt_clust_5="13000.00000" pt_clust_6="13000.00000" pt_clust_7="13000.00000" pt_clust_8="13000.00000" pt_clust_9="80.00927" pt_clust_10="28.60245"></scales>
<clustering>
<clus scale="   28.602">  2 10  1 -1</clus>
<clus scale="   80.009">  1  9  2 -1</clus>
<clus scale="   88.951">  7  8 -1 -1</clus>
<clus scale="   89.250">  2  7  1 -1</clus>
<clus scale="   90.901">  5  6 -1 -1</clus>
<clus scale="   80.009">  1  5  2 -1</clus>
</clustering>
</event>
<event>
10    2  0.2445576E-006  0.1153254E+03  0.7546771E-02  0.1251196E+00
          1   -1    0    0  502    0  0.00000000000E+00  0.00000000000E+00  0.50843761411E+03  0.50843761411E+03  0.00000000000E+00 0. -1.
         -1   -1    0    0    0  501 -0.00000000000E+00 -0.00000000000E+00 -0.48701551859E+02  0.48701551859E+02  0.00000000000E+00 0.  1.
         23    2    1    2    0    0 -0.71791148607E+02 -0.14285300003E+01  0.14383497887E+03  0.18472550757E+03  0.90989022886E+02 0.  0.
         23    2    1    2    0    0  0.67426657321E+02  0.23096496567E+02  0.15357800019E+03  0.19246131291E+03  0.91516952264E+02 0.  0.
        -11    1    4    4    0    0  0.58857516518E+02  0.50768046656E+02  0.14073717224E+03  0.16077485332E+03  0.00000000000E+00 0.  1.
         11    1    4    4    0    0  0.85691408037E+01 -0.27671550089E+02  0.12840827957E+02  0.31686459585E+02  0.00000000000E+00 0. -1.
        -13    1    3    3    0    0 -0.75583262993E+02  0.31713594242E+02  0.93517618192E+02  0.12435484155E+03  0.00000000000E+00 0.  1.
         13    1    3    3    0    0  0.37921143854E+01 -0.33142124242E+02  0.50317360674E+02  0.60370666023E+02  0.00000000000E+00 0. -1.
         21    1    1    2  502  503 -0.41099337811E+01 -0.44477762368E+02  0.13991981086E+03  0.14687653445E+03  0.00000000000E+00 0. -1.
         21    1    1    2  503  501  0.84744250672E+01  0.22809795801E+02  0.22403272328E+02  0.33075811036E+02  0.00000000000E+00 0. -1.
<scales pt_clust_5="13000.00000" pt_clust_6="13000.00000" pt_clust_7="13000.00000" pt_clust_8="13000.00000" pt_clust_9="42.78589" pt_clust_10="24.33316"></scales>
<clustering>
<clus scale="   24.333">  2 10  1 -1</clus>
<clus scale="   42.786">  1  9  2 -1</clus>
<clus scale="   90.989">  7  8 -1 -1</clus>
<clus scale="   91.517">  5  6 -1 -1</clus>
<clus scale="  114.907">  2  7  1 -1</clus>
<clus scale="   42.786">  1  5  2 -1</clus>
</clustering>
</event>
<event>
10    2  0.2445576E-006  0.1288869E+03  0.7546771E-02  0.1229997E+00
         -1   -1    0    0    0  501 -0.00000000000E+00  0.00000000000E+00  0.17134205344E+03  0.17134205344E+03  0.00000000000E+00 0.  1.
          1   -1    0    0  502    0  0.00000000000E+00 -0.00000000000E+00 -0.11029792943E+04  0.11029792943E+04  0.00000000000E+00 0. -1.
         23    2    1    2    0    0 -0.11255342197E+02 -0.74439831576E+02  0.10944167169E+03  0.16119618832E+03  0.91316813194E+02 0.  0.
         23    2    1    2    0    0 -0.12277519292E+03  0.61905189563E+02 -0.36890469722E+03  0.40341252104E+03  0.88005602151E+02 0.  0.
        -11    1    4    4    0    0 -0.38202204019E+02  0.11509216588E+01 -0.29176681922E+02  0.48083383622E+02  0.00000000000E+00 0. -1.
         11    1    4    4    0    0 -0.84572988904E+02  0.60754267904E+02 -0.33972801529E+03  0.35532913741E+03  0.00000000000E+00 0.  1.
        -13    1    3    3    0    0 -0.48110581850E+02 -0.63958712187E+02  0.74063080577E+02  0.10904441689E+03  0.00000000000E+00 0.  1.
         13    1    3    3    0    0  0.36855239653E+02 -0.10481119389E+02  0.35378591117E+02  0.52151771426E+02  0.00000000000E+00 0. -1.
         21    1    1    2  502  503  0.86426940989E+02  0.22770149631E+02 -0.65016241123E+03  0.65627681418E+03  0.00000000000E+00 0. -1.
         21    1    1    2  503  501  0.47603594131E+02 -0.10235507618E+02 -0.22011804113E+02  0.53435824226E+02  0.00000000000E+00 0. -1.
<scales pt_clust_5="13000.00000" pt_clust_6="13000.00000" pt_clust_7="13000.00000" pt_clust_8="13000.00000" pt_clust_9="90.23023" pt_clust_10="48.69156"></scales>
<clustering>
<clus scale="   48.692">  1 10  2 -1</clus>
<clus scale="   88.006">  5  6 -1 -1</clus>
<clus scale="   90.230">  2  9  1 -1</clus>
<clus scale="   91.317">  7  8 -1 -1</clus>
<clus scale="  126.562">  2  5  1 -1</clus>
<clus scale="   90.230">  2  5  1 -1</clus>
</clustering>
</event>
<event>
10    2  0.2445576E-006  0.1767945E+03  0.7546771E-02  0.1170951E+00
          2   -1    0    0  502    0  0.00000000000E+00  0.00000000000E+00  0.12364047569E+04  0.12364047569E+04  0.00000000000E+00 0. -1.
         -2   -1    0    0    0  501 -0.00000000000E+00 -0.00000000000E+00 -0.51975102512E+02  0.51975102512E+02  0.00000000000E+00 0.  1.
         23    2    1    2    0    0 -0.12836838804E+03 -0.12161060422E+03  0.28022294172E+03  0.34373490883E+03  0.91439643353E+02 0.  0.
         23    2    1    2    0    0  0.65509617789E+02  0.10427634652E+03  0.74110435816E+03  0.75680138875E+03  0.91365233299E+02 0.  0.
        -11    1    4    4    0    0  0.23609233261E+02  0.10867033259E+03  0.53954939757E+03  0.55089036069E+03  0.00000000000E+00 0. -1.
         11    1    4    4    0    0  0.41900384527E+02 -0.43939860698E+01  0.20155496059E+03  0.20591102806E+03  0.00000000000E+00 0.  1.
        -13    1    3    3    0    0 -0.38417500658E+02 -0.80537634873E+00  0.10962005252E+03  0.11615984204E+03  0.00000000000E+00 0. -1.
         13    1    3    3    0    0 -0.89950887380E+02 -0.12080522788E+03  0.17060288919E+03  0.22757506679E+03  0.00000000000E+00 0.  1.
         21    1    1    2  502  503  0.47586052218E+02  0.24702442666E+01  0.15919902947E+03  0.16617721101E+03  0.00000000000E+00 0. -1.
         21    1    1    2  503  501  0.15272718032E+02  0.14864013439E+02  0.39033250260E+01  0.21666350820E+02  0.00000000000E+00 0.  1.
<scales pt_clust_5="13000.00000" pt_clust_6="13000.00000" pt_clust_7="13000.00000" pt_clust_8="13000.00000" pt_clust_9="48.96064" pt_clust_10="21.31185"></scales>
<clustering>
<clus scale="   21.312">  2 10  1 -1</clus>
<clus scale="   48.961">  1  9  2 -1</clus>
<clus scale="   91.365">  5  6 -1 -1</clus>
<clus scale="   91.440">  7  8 -1 -1</clus>
<clus scale="  176.756">  1  5  2 -1</clus>
<clus scale="   48.961">  1  5  2 -1</clus>
</clustering>
</event>
<event>
10    2  0.2445576E-006  0.9813780E+02  0.7546771E-02  0.1284923E+00
          3   -1    0    0  503    0  0.00000000000E+00  0.00000000000E+00  0.27804250424E+03  0.27804250424E+03  0.00000000000E+00 0. -1.
         -3   -1    0    0    0  501 -0.00000000000E+00 -0.00000000000E+00 -0.67758236384E+02  0.67758236384E+02  0.00000000000E+00 0.  1.
         23    2    1    2    0    0  0.97824713436E+01 -0.17178637373E+02  0.52530227013E+02  0.11226324237E+03  0.97225554814E+02 0.  0.
         23    2    1    2    0    0 -0.10883169298E+02 -0.20796040069E+02  0.15031923677E+03  0.17989404767E+03  0.95995191480E+02 0.  0.
        -11    1    3    3    0    0  0.84064784212E+01 -0.40547994792E+02  0.71168898771E+02  0.82339667921E+02  0.00000000000E+00 0.  1.
         11    1    3    3    0    0  0.13759929224E+01  0.23369357418E+02 -0.18638671758E+02  0.29923574445E+02  0.00000000000E+00 0. -1.
        -13    1    4    4    0    0 -0.16978367554E+02 -0.42338023495E+02  0.23880071481E+02  0.51488163807E+02  0.00000000000E+00 0.  1.
         13    1    4    4    0    0  0.60951982563E+01  0.21541983426E+02  0.12643916529E+03  0.12840588386E+03  0.00000000000E+00 0. -1.
         21    1    1    2  502  501 -0.13657569860E+02  0.15442685944E+02  0.15197723177E+02  0.25612039227E+02  0.00000000000E+00 0. -1.
         21    1    1    2  503  502  0.14758267814E+02  0.22531991499E+02 -0.77629191039E+01  0.28031411360E+02  0.00000000000E+00 0. -1.
<scales pt_clust_5="13000.00000" pt_clust_6="13000.00000" pt_clust_7="13000.00000" pt_clust_8="13000.00000" pt_clust_9="20.61567" pt_clust_10="29.05275"></scales>
<clustering>
<clus scale="   20.616">  2  9  1 -1</clus>
<clus scale="   29.053">  2 10  1 -1</clus>
<clus scale="   95.995">  7  8 -1 -1</clus>
<clus scale="   96.919">  1  7  2 -1</clus>
<clus scale="   97.226">  5  6 -1 -1</clus>
<clus scale="   96.919">  1  5  2 -1</clus>
</clustering>
</event>
<event>
10    2  0.2445576E-006  0.1061047E+03  0.7546771E-02  0.1269590E+00
          1   -1    0    0  502    0  0.00000000000E+00  0.00000000000E+00  0.16163930007E+03  0.16163930007E+03  0.00000000000E+00 0. -1.
         -1   -1    0    0    0  501 -0.00000000000E+00 -0.00000000000E+00 -0.37805648479E+03  0.37805648479E+03  0.00000000000E+00 0.  1.
         23    2    1    2    0    0  0.92971871566E+00 -0.58368517870E+02 -0.14865904338E+03  0.18252154385E+03  0.88356406314E+02 0.  0.
         23    2    1    2    0    0  0.65295675256E+02  0.25446862051E+02 -0.13853871319E+03  0.18055689239E+03  0.92177808297E+02 0.  0.
        -11    1    3    3    0    0  0.59305916464E+01 -0.81721194028E+02 -0.11802667927E+03  0.14367958272E+03  0.00000000000E+00 0.  1.
         11    1    3    3    0    0 -0.50008729308E+01  0.23352676158E+02 -0.30632364103E+02  0.38841961129E+02  0.00000000000E+00 0. -1.
        -13    1    4    4    0    0  0.32502196730E+02 -0.27696789242E+02 -0.95795726183E+02  0.10488243934E+03  0.00000000000E+00 0.  1.
         13    1    4    4    0    0  0.32793478526E+02  0.53143651293E+02 -0.42742987002E+02  0.75674453050E+02  0.00000000000E+00 0. -1.
         21    1    1    2  502  503 -0.82129507833E+02  0.48638933156E+02  0.10103745106E+03  0.13899485024E+03  0.00000000000E+00 0. -1.
         21    1    1    2  503  501  0.15904113862E+02 -0.15717277337E+02 -0.30256879216E+02  0.37622498382E+02  0.00000000000E+00 0.  1.
<scales pt_clust_5="13000.00000" pt_clust_6="13000.00000" pt_clust_7="13000.00000" pt_clust_8="13000.00000" pt_clust_9="94.25561" pt_clust_10="22.36009"></scales>
<clustering>
<clus scale="   22.360">  2 10  1 -1</clus>
<clus scale="   88.356">  5  6 -1 -1</clus>
<clus scale="   92.178">  7  8 -1 -1</clus>
<clus scale="   94.256">  1  9  2 -1</clus>
<clus scale="  102.802">  2  5  1 -1</clus>
<clus scale="   94.256">  1  5  2 -1</clus>
</clustering>
</event>
<event>
10    2  0.2445576E-006  0.1449961E+03  0.7546771E-02  0.1220950E+00
          1   -1    0    0  502    0  0.00000000000E+00  0.00000000000E+00  0.32916659020E+03  0.32916659020E+03  0.00000000000E+00 0. -1.
         -1   -1    0    0    0  501 -0.00000000000E+00 -0.00000000000E+00 -0.53014905305E+03  0.53014905305E+03  0.00000000000E+00 0.  1.
         23    2    1    2    0    0  0.50222096512E+02  0.29460367239E+02 -0.34602536347E+03  0.36291659005E+03  0.92653801614E+02 0.  0.
         23    2    1    2    0    0  0.57791802956E+02 -0.38907320371E+02 -0.89042635140E+02  0.14572894901E+03  0.91949244917E+02 0.  0.
        -11    1    3    3    0    0  0.75626976684E+02  0.10672577210E+02 -0.21594631733E+03  0.22905491803E+03  0.00000000000E+00 0.  1.
         11    1    3    3    0    0 -0.25404880172E+02  0.18787790029E+02 -0.13007904614E+03  0.13386167202E+03  0.00000000000E+00 0. -1.
        -13    1    4    4    0    0 -0.96040038331E+01 -0.41403168309E+02 -0.13803835070E+02  0.44687862986E+02  0.00000000000E+00 0.  1.
         13    1    4    4    0    0  0.67395806789E+02  0.24958479381E+01 -0.75238800071E+02  0.10104108603E+03  0.00000000000E+00 0. -1.
         21    1    1    2  502  503 -0.11163277127E+03  0.33872106419E+02  0.27733309929E+03  0.30087014337E+03  0.00000000000E+00 0. -1.
         21    1    1    2  503  501  0.36188717971E+01 -0.24425153287E+02 -0.43247563528E+02  0.49799960816E+02  0.00000000000E+00 0.  1.
<scales pt_clust_5="13000.00000" pt_clust_6="13000.00000" pt_clust_7="13000.00000" pt_clust_8="13000.00000" pt_clust_9="112.11253" pt_clust_10="24.69179"></scales>
<clustering>
<clus scale="   24.692">  2 10  1 -1</clus>
<clus scale="   91.949">  7  8 -1 -1</clus>
<clus scale="   92.654">  5  6 -1 -1</clus>
<clus scale="  107.303">  2  5  1 -1</clus>
<clus scale="  112.113">  1  9  2 -1</clus>
<clus scale="  112.113">  1  5  2 -1</clus>
</clustering>
</event>
<event>
10    2  0.2445576E-006  0.1115335E+03  0.7546771E-02  0.1266042E+00
         -4   -1    0    0    0  501 -0.00000000000E+00  0.00000000000E+00  0.12228347917E+03  0.12228347917E+03  0.00000000000E+00 0.  1.
          4   -1    0    0  502    0  0.00000000000E+00 -0.00000000000E+00 -0.16821975084E+03  0.16821975084E+03  0.00000000000E+00 0. -1.
         23    2    1    2    0    0  0.24545205627E+02 -0.33235109000E+02  0.19018733944E+02  0.11758544583E+03  0.10843239941E+03 0.  0.
         23    2    1    2    0    0  0.83077123608E+01  0.13371570206E+02 -0.25379659943E+02  0.95918152004E+02  0.91150138621E+02 0.  0.
        -11    1    3    3    0    0  0.16735800160E+02 -0.62475699596E+02  0.44096533875E+02  0.78280293477E+02  0.00000000000E+00 0.  1.
         11    1    3    3    0    0  0.78094054673E+01  0.29240590596E+02 -0.25077799931E+02  0.39305152354E+02  0.00000000000E+00 0. -1.
        -13    1    4    4    0    0  0.46247650128E+02  0.17244668885E+02  0.12999852452E+01  0.49375233761E+02  0.00000000000E+00 0.  1.
         13    1    4    4    0    0 -0.37939937767E+02 -0.38730986794E+01 -0.26679645188E+02  0.46542918243E+02  0.00000000000E+00 0. -1.
         21    1    1    2  502  503 -0.13249098010E+02  0.27640045944E+02 -0.45710038438E+02  0.55035609853E+02  0.00000000000E+00 0. -1.
         21    1    1    2  503  501 -0.19603819978E+02 -0.77765071496E+01  0.61346927737E+01  0.21964022323E+02  0.00000000000E+00 0. -1.
<scales pt_clust_5="13000.00000" pt_clust_6="13000.00000" pt_clust_7="13000.00000" pt_clust_8="13000.00000" pt_clust_9="30.72776" pt_clust_10="21.08990"></scales>
<clustering>
<clus scale="   21.090">  1 10  2 -1</clus>
<clus scale="   30.728">  2  9  1 -1</clus>
<clus scale="   91.150">  7  8 -1 -1</clus>
<clus scale="   94.818">  2  7  1 -1</clus>
<clus scale="  108.432">  5  6 -1 -1</clus>
<clus scale="   30.728">  2  5  1 -1</clus>
</clustering>
</event>
<event>
10    2  0.2445576E-006  0.9923741E+02  0.7546771E-02  0.1282746E+00
          3   -1    0    0  502    0  0.00000000000E+00  0.00000000000E+00  0.26491112206E+03  0.26491112206E+03  0.00000000000E+00 0. -1.
         -3   -1    0    0    0  501 -0.00000000000E+00 -0.00000000000E+00 -0.35693106842E+03  0.35693106842E+03  0.00000000000E+00 0.  1.
         23    2    1    2    0    0  0.30239982649E+02 -0.17455118515E+02 -0.25683553372E+03  0.27542399156E+03  0.93138316661E+02 0.  0.
         23    2    1    2    0    0  0.19318910680E+01  0.64004245379E+02  0.15420439640E+03  0.19038362188E+03  0.91469404631E+02 0.  0.
        -11    1    4    4    0    0 -0.28408335931E+02  0.48446872053E+01  0.82131948110E+01  0.29965999291E+02  0.00000000000E+00 0.  1.
         11    1    4    4    0    0  0.30340226999E+02  0.59159558174E+02  0.14599120159E+03  0.16041762259E+03  0.00000000000E+00 0. -1.
        -13    1    3    3    0    0  0.44434555577E+02 -0.43448506835E+02 -0.21738334367E+03  0.22609228333E+03  0.00000000000E+00 0.  1.
         13    1    3    3    0    0 -0.14194572928E+02  0.25993388319E+02 -0.39452190050E+02  0.49331708228E+02  0.00000000000E+00 0. -1.
         21    1    1    2  502  503  0.52908894518E+01 -0.31573567127E+02  0.74151848056E+02  0.80767445313E+02  0.00000000000E+00 0. -1.
         21    1    1    2  503  501 -0.37462763169E+02 -0.14975559738E+02 -0.63540657093E+02  0.75267131721E+02  0.00000000000E+00 0. -1.
<scales pt_clust_5="13000.00000" pt_clust_6="13000.00000" pt_clust_7="13000.00000" pt_clust_8="13000.00000" pt_clust_9="32.01380" pt_clust_10="40.56979"></scales>
<clustering>
<clus scale="   32.014">  1  9  2 -1</clus>
<clus scale="   40.570">  2 10  1 -1</clus>
<clus scale="   91.469">  5  6 -1 -1</clus>
<clus scale="   93.138">  7  8 -1 -1</clus>
<clus scale="   97.673">  1  5  2 -1</clus>
<clus scale="   32.014">  1  5  2 -1</clus>
</clustering>
</event>
<event>
10    2  0.2445576E-006  0.1779439E+03  0.7546771E-02  0.1170328E+00
         -2   -1    0    0    0  501 -0.00000000000E+00  0.00000000000E+00  0.31867862423E+03  0.31867862423E+03  0.00000000000E+00 0.  1.
          2   -1    0    0  502    0  0.00000000000E+00 -0.00000000000E+00 -0.33708332409E+03  0.33708332409E+03  0.00000000000E+00 0. -1.
         23    2    1    2    0    0  0.10048832435E+03  0.95493842084E+02  0.13801366203E+03  0.21631898461E+03  0.92353424347E+02 0.  0.
         23    2    1    2    0    0 -0.85572084541E+02 -0.14155816443E+03  0.20596221243E+02  0.18859910924E+03  0.88227683346E+02 0.  0.
        -11    1    4    4    0    0  0.11241262948E+02 -0.41579299226E+02  0.24154286842E+02  0.49382524132E+02  0.00000000000E+00 0.  1.
         11    1    4    4    0    0 -0.96813347488E+02 -0.99978865205E+02 -0.35580655993E+01  0.13921658511E+03  0.00000000000E+00 0. -1.
        -11    1    3    3    0    0  0.70117937159E+02  0.95960161566E+02  0.61119291345E+02  0.13364297772E+03  0.00000000000E+00 0.  1.
         11    1    3    3    0    0  0.30370387186E+02 -0.46631948194E+00  0.76894370686E+02  0.82676006888E+02  0.00000000000E+00 0. -1.
         21    1    1    2  502  503 -0.37596180984E+02  0.40539123967E+02 -0.20619293302E+03  0.21347697540E+03  0.00000000000E+00 0. -1.
         21    1    1    2  503  501  0.22679941180E+02  0.55251983795E+01  0.29178349885E+02  0.37366879065E+02  0.00000000000E+00 0. -1.
<scales pt_clust_5="13000.00000" pt_clust_6="13000.00000" pt_clust_7="13000.00000" pt_clust_8="13000.00000" pt_clust_9="55.14469" pt_clust_10="23.34325"></scales>
<clustering>
<clus scale="   23.343">  1 10  2 -1</clus>
<clus scale="   55.145">  2  9  1 -1</clus>
<clus scale="   88.228">  5  6 -1 -1</clus>
<clus scale="   92.353">  7  8 -1 -1</clus>
<clus scale="  175.838">  2  5  1 -1</clus>
<clus scale="   55.145">  2  5  1 -1</clus>
</clustering>
</event>
<event>
10    2  0.2445576E-006  0.3746707E+03  0.7546771E-02  0.1053122E+00
          2   -1    0    0  502    0  0.00000000000E+00  0.00000000000E+00  0.65606082659E+03  0.65606082659E+03  0.00000000000E+00 0. -1.
         -2   -1    0    0    0  501 -0.00000000000E+00 -0.00000000000E+00 -0.50159705633E+03  0.50159705633E+03  0.00000000000E+00 0.  1.
         23    2    1    2    0    0  0.86455485703E+02  0.33664279359E+03 -0.19603260133E+03  0.40965744781E+03  0.92668885158E+02 0.  0.
         23    2    1    2    0    0 -0.18740528347E+03 -0.37106366184E+03  0.32627813713E+03  0.53799944724E+03  0.10088112338E+03 0.  0.
        -11    1    3    3    0    0  0.10397437812E+03  0.26055115490E+03 -0.16621744337E+03  0.32607639305E+03  0.00000000000E+00 0.  1.
         11    1    3    3    0    0 -0.17518892417E+02  0.76091638692E+02 -0.29815157961E+02  0.83581054759E+02  0.00000000000E+00 0. -1.
        -13    1    4    4    0    0 -0.12401979505E+03 -0.32497450682E+03  0.24768730297E+03  0.42701093627E+03  0.00000000000E+00 0. -1.
         13    1    4    4    0    0 -0.63385488427E+02 -0.46089155021E+02  0.78590834155E+02  0.11098851097E+03  0.00000000000E+00 0.  1.
         21    1    1    2  502  503  0.45388911791E+02  0.53672182536E+02  0.94875205264E+02  0.11807692859E+03  0.00000000000E+00 0.  1.
         21    1    1    2  503  501  0.55560885979E+02 -0.19251314287E+02 -0.70656970798E+02  0.91924059282E+02  0.00000000000E+00 0.  1.
<scales pt_clust_5="13000.00000" pt_clust_6="13000.00000" pt_clust_7="13000.00000" pt_clust_8="13000.00000" pt_clust_9="70.89191" pt_clust_10="58.80157"></scales>
<clustering>
<clus scale="   58.802">  2 10  1 -1</clus>
<clus scale="   70.892">  1  9  2 -1</clus>
<clus scale="   92.669">  5  6 -1 -1</clus>
<clus scale="  100.881">  7  8 -1 -1</clus>
<clus scale="  372.543">  2  5  1 -1</clus>
<clus scale="   70.892">  1  5  2 -1</clus>
</clustering>
</event>
<event>
10    2  0.2812023E-006  0.1026851E+03  0.7546771E-02  0.1275060E+00
          3   -1    0    0  502    0  0.00000000000E+00  0.00000000000E+00  0.18520420946E+03  0.18520420946E+03  0.00000000000E+00 0. -1.
         -3   -1    0    0    0  501 -0.00000000000E+00 -0.00000000000E+00 -0.12950075151E+03  0.12950075151E+03  0.00000000000E+00 0.  1.
         23    2    1    2    0    0  0.47082924303E+01 -0.26128655821E+02 -0.51868051542E+02  0.10825821162E+03  0.91239634700E+02 0.  0.
         23    2    1    2    0    0  0.53530165568E+01  0.70254067852E+02  0.97494011549E+02  0.15056107565E+03  0.90549800535E+02 0.  0.
        -13    1    3    3    0    0 -0.27758798456E+01 -0.59771470938E+02 -0.26383810723E+02  0.65394493004E+02  0.00000000000E+00 0.  1.
         13    1    3    3    0    0  0.74841722759E+01  0.33642815117E+02 -0.25484240819E+02  0.42863718618E+02  0.00000000000E+00 0. -1.
        -13    1    4    4    0    0  0.20206307862E+02  0.19798713341E+02 -0.10711922827E+02  0.30249449880E+02  0.00000000000E+00 0.  1.
         13    1    4    4    0    0 -0.14853291305E+02  0.50455354510E+02  0.10820593438E+03  0.12031162577E+03  0.00000000000E+00 0. -1.
         21    1    1    2  502  503 -0.58541981115E+01 -0.22701004901E+02  0.20998676220E+02  0.31473030710E+02  0.00000000000E+00 0. -1.
         21    1    1    2  503  501 -0.42071108756E+01 -0.21424407129E+02 -0.10921178283E+02  0.24412642991E+02  0.00000000000E+00 0.  1.
<scales pt_clust_5="13000.00000" pt_clust_6="13000.00000" pt_clust_7="13000.00000" pt_clust_8="13000.00000" pt_clust_9="24.46450" pt_clust_10="21.83358"></scales>
<clustering>
<clus scale="   21.834">  2 10  1 -1</clus>
<clus scale="   24.464">  1  9  2 -1</clus>
<clus scale="   90.550">  7  8 -1 -1</clus>
<clus scale="   91.240">  5  6 -1 -1</clus>
<clus scale="  102.073">  1  7  2 -1</clus>
<clus scale="   24.464">  1  5  2 -1</clus>
</clustering>
</event>
<event>
10    2  0.2445576E-006  0.4576603E+03  0.7546771E-02  0.1025481E+00
          1   -1    0    0  502    0  0.00000000000E+00  0.00000000000E+00  0.18696265325E+04  0.18696265325E+04  0.00000000000E+00 0. -1.
         -1   -1    0    0    0  501 -0.00000000000E+00 -0.00000000000E+00 -0.36635196413E+03  0.36635196413E+03  0.00000000000E+00 0.  1.
         23    2    1    2    0    0 -0.37791802006E+03 -0.34302712594E+03  0.19525573464E+03  0.55389573411E+03  0.90476755804E+02 0.  0.
         23    2    1    2    0    0  0.32683431938E+03  0.27721141215E+03  0.13168036175E+04  0.13878283403E+04  0.91809017194E+02 0.  0.
        -11    1    4    4    0    0  0.14314858297E+03  0.10421912867E+03  0.68468344432E+03  0.70720899493E+03  0.00000000000E+00 0.  1.
         11    1    4    4    0    0  0.18368573642E+03  0.17299228348E+03  0.63212017319E+03  0.68061934535E+03  0.00000000000E+00 0. -1.
        -13    1    3    3    0    0 -0.34537594337E+03 -0.33471501332E+03  0.16437310785E+03  0.50826882748E+03  0.00000000000E+00 0.  1.
         13    1    3    3    0    0 -0.32542076691E+02 -0.83121126182E+01  0.30882626791E+02  0.45626906635E+02  0.00000000000E+00 0. -1.
         21    1    1    2  502  503 -0.63072324906E+01  0.21120568854E+02  0.13304496264E+03  0.13485852474E+03  0.00000000000E+00 0.  1.
         21    1    1    2  503  501  0.57390933170E+02  0.44695144935E+02 -0.14182974639E+03  0.15939589754E+03  0.00000000000E+00 0.  1.
<scales pt_clust_5="13000.00000" pt_clust_6="13000.00000" pt_clust_7="13000.00000" pt_clust_8="13000.00000" pt_clust_9="22.04222" pt_clust_10="72.78240"></scales>
<clustering>
<clus scale="   22.042">  1  9  2 -1</clus>
<clus scale="   72.782">  2 10  1 -1</clus>
<clus scale="   90.477">  7  8 -1 -1</clus>
<clus scale="   91.809">  5  6 -1 -1</clus>
<clus scale="  457.395">  2  7  1 -1</clus>
<clus scale="   22.042">  1  5  2 -1</clus>
</clustering>
</event>
<event>
10    2  0.2445576E-006  0.1334193E+03  0.7546771E-02  0.1223587E+00
         -1   -1    0    0    0  501 -0.00000000000E+00  0.00000000000E+00  0.57107776901E+03  0.57107776901E+03  0.00000000000E+00 0.  1.
          1   -1    0    0  502    0  0.00000000000E+00 -0.00000000000E+00 -0.49913282600E+03  0.49913282600E+03  0.00000000000E+00 0. -1.
         23    2    1    2    0    0  0.12955094396E+03  0.12585588729E+03 -0.11393840085E+03  0.23261198444E+03  0.92212931141E+02 0.  0.
         23    2    1    2    0    0 -0.35320851520E+02  0.20889749368E+02 -0.17089993875E+03  0.20051624602E+03  0.96519592165E+02 0.  0.
        -13    1    3    3    0    0  0.83212061220E+02  0.12079463490E+03 -0.11436244530E+03  0.18599559094E+03  0.00000000000E+00 0.  1.
         13    1    3    3    0    0  0.46338882742E+02  0.50612523920E+01  0.42404445116E+00  0.46616393503E+02  0.00000000000E+00 0. -1.
        -13    1    4    4    0    0  0.29750889201E+02  0.22056387077E+02 -0.85231479337E+02  0.92930106473E+02  0.00000000000E+00 0. -1.
         13    1    4    4    0    0 -0.65071740721E+02 -0.11666377093E+01 -0.85668459416E+02  0.10758613955E+03  0.00000000000E+00 0.  1.
         21    1    1    2  502  503 -0.76032568250E+02 -0.42254716439E+02 -0.12024272998E+03  0.14840729972E+03  0.00000000000E+00 0.  1.
         21    1    1    2  503  501 -0.18197524193E+02 -0.10449092022E+03  0.47702601259E+03  0.48867506483E+03  0.00000000000E+00 0.  1.
<scales pt_clust_5="13000.00000" pt_clust_6="13000.00000" pt_clust_7="13000.00000" pt_clust_8="13000.00000" pt_clust_9="86.98513" pt_clust_10="106.94204"></scales>
<clustering>
<clus scale="   86.985">  2  9  1 -1</clus>
<clus scale="   92.213">  5  6 -1 -1</clus>
<clus scale="   96.520">  7  8 -1 -1</clus>
<clus scale="  106.942">  1 10  2 -1</clus>
<clus scale="  130.338">  1  5  2 -1</clus>
<clus scale="   86.985">  2  5  1 -1</clus>
</clustering>
</event>
<event>
10    2  0.2445576E-006  0.1520656E+03  0.7546771E-02  0.1203979E+00
         -1   -1    0    0    0  501 -0.00000000000E+00  0.00000000000E+00  0.68605977900E+03  0.68605977900E+03  0.00000000000E+00 0.  1.
          1   -1    0    0  502    0  0.00000000000E+00 -0.00000000000E+00 -0.13870229445E+03  0.13870229445E+03  0.00000000000E+00 0. -1.
         23    2    1    2    0    0 -0.99927207424E+02 -0.49551633183E+02  0.34530937645E+03  0.37408981097E+03  0.90905500786E+02 0.  0.
         23    2    1    2    0    0  0.11088372184E+03 -0.14898515155E+01 -0.49573969110E+02  0.16832436304E+03  0.11652507606E+03 0.  0.
        -11    1    4    4    0    0  0.10962933651E+03  0.24595899698E+02 -0.72381596040E+02  0.13365120706E+03  0.00000000000E+00 0. -1.
         11    1    4    4    0    0  0.12543853365E+01 -0.26085751214E+02  0.22807626930E+02  0.34673155973E+02  0.00000000000E+00 0.  1.
        -13    1    3    3    0    0 -0.85333248035E+02 -0.75618264181E+02  0.27368889295E+03  0.29648860893E+03  0.00000000000E+00 0.  1.
         13    1    3    3    0    0 -0.14593959388E+02  0.26066630997E+02  0.71620483500E+02  0.77601202046E+02  0.00000000000E+00 0. -1.
         21    1    1    2  502  503 -0.18577345676E+02  0.18410039678E+02 -0.22712956161E+01  0.26252735421E+02  0.00000000000E+00 0.  1.
         21    1    1    2  503  501  0.76208312578E+01  0.32631445021E+02  0.25389337282E+03  0.25609516402E+03  0.00000000000E+00 0.  1.
<scales pt_clust_5="13000.00000" pt_clust_6="13000.00000" pt_clust_7="13000.00000" pt_clust_8="13000.00000" pt_clust_9="26.15430" pt_clust_10="33.63133"></scales>
<clustering>
<clus scale="   26.154">  2  9  1 -1</clus>
<clus scale="   33.631">  1 10  2 -1</clus>
<clus scale="   90.906">  7  8 -1 -1</clus>
<clus scale="  116.525">  5  6 -1 -1</clus>
<clus scale="  133.453">  1  7  2 -1</clus>
<clus scale="   26.154">  2  5  1 -1</clus>
</clustering>
</event>
<event>
10    2  0.2445576E-006  0.1789741E+03  0.7546771E-02  0.1169083E+00
         -1   -1    0    0    0  501 -0.00000000000E+00  0.00000000000E+00  0.57120339946E+02  0.57120339946E+02  0.00000000000E+00 0.  1.
          1   -1    0    0  502    0  0.00000000000E+00 -0.00000000000E+00 -0.14791406144E+04  0.14791406144E+04  0.00000000000E+00 0. -1.
         23    2    1    2    0    0  0.15031921123E+03 -0.17425382252E+02 -0.49391337870E+03  0.52443910029E+03  0.90478920382E+02 0.  0.
         23    2    1    2    0    0 -0.12700470602E+03  0.11064966124E+03 -0.46300042903E+03  0.50134061192E+03  0.92733321959E+02 0.  0.
        -13    1    4    4    0    0 -0.12024436544E+01  0.32131902857E+02 -0.16928559054E+03  0.17231226368E+03  0.00000000000E+00 0. -1.
         13    1    4    4    0    0 -0.12580226236E+03  0.78517758384E+02 -0.29371483849E+03  0.32902834824E+03  0.00000000000E+00 0.  1.
        -13    1    3    3    0    0  0.55338799833E+02  0.20150524061E+02 -0.88125038377E+02  0.10599268265E+03  0.00000000000E+00 0.  1.
         13    1    3    3    0    0  0.94980411401E+02 -0.37575906313E+02 -0.40578834033E+03  0.41844641763E+03  0.00000000000E+00 0. -1.
         21    1    1    2  502  503 -0.21478546772E+02 -0.11386421315E+03 -0.47398135713E+03  0.48793925228E+03  0.00000000000E+00 0. -1.
         21    1    1    2  503  501 -0.18359584461E+01  0.20639934157E+02  0.88748904339E+01  0.22541989833E+02  0.00000000000E+00 0.  1.
<scales pt_clust_5="13000.00000" pt_clust_6="13000.00000" pt_clust_7="13000.00000" pt_clust_8="13000.00000" pt_clust_9="112.51557" pt_clust_10="20.72143"></scales>
<clustering>
<clus scale="   20.721">  1 10  2 -1</clus>
<clus scale="   90.479">  7  8 -1 -1</clus>
<clus scale="   92.733">  5  6 -1 -1</clus>
<clus scale="  112.516">  2  9  1 -1</clus>
<clus scale="  177.816">  1  7  2 -1</clus>
<clus scale="  112.516">  2  5  1 -1</clus>
</clustering>
</event>
<event>
10    2  0.2445576E-006  0.2320326E+03  0.7546771E-02  0.1126456E+00
         -3   -1    0    0    0  501 -0.00000000000E+00  0.00000000000E+00  0.29824891215E+03  0.29824891215E+03  0.00000000000E+00 0.  1.
          3   -1    0    0  502    0  0.00000000000E+00 -0.00000000000E+00 -0.32724084178E+03  0.32724084178E+03  0.00000000000E+00 0. -1.
         23    2    1    2    0    0  0.51906855814E+02  0.22169710426E+03  0.32155050403E+02  0.24738974219E+03  0.91234914150E+02 0.  0.
         23    2    1    2    0    0 -0.34271710321E+02 -0.17589732034E+03 -0.55351738944E+02  0.21610931417E+03  0.10735456784E+03 0.  0.
        -11    1    3    3    0    0  0.44981343990E+02  0.19014522833E+03  0.60362322674E+02  0.20450461893E+03  0.00000000000E+00 0.  1.
         11    1    3    3    0    0  0.69255118241E+01  0.31551875921E+02 -0.28207272272E+02  0.42885123261E+02  0.00000000000E+00 0. -1.
        -13    1    4    4    0    0 -0.23021776749E+02 -0.12424521417E+03  0.15934879943E+02  0.12736088822E+03  0.00000000000E+00 0. -1.
         13    1    4    4    0    0 -0.11249933572E+02 -0.51652106172E+02 -0.71286618887E+02  0.88748425956E+02  0.00000000000E+00 0.  1.
         21    1    1    2  502  503 -0.41043462072E+02 -0.35902300235E+02 -0.72436653742E+02  0.90667578253E+02  0.00000000000E+00 0.  1.
         21    1    1    2  503  501  0.23408316579E+02 -0.98974836774E+01  0.66641412656E+02  0.71323119317E+02  0.00000000000E+00 0. -1.
<scales pt_clust_5="13000.00000" pt_clust_6="13000.00000" pt_clust_7="13000.00000" pt_clust_8="13000.00000" pt_clust_9="54.09640" pt_clust_10="25.41475"></scales>
<clustering>
<clus scale="   25.415">  1 10  2 -1</clus>
<clus scale="   54.096">  2  9  1 -1</clus>
<clus scale="   91.235">  5  6 -1 -1</clus>
<clus scale="  107.355">  7  8 -1 -1</clus>
<clus scale="  225.029">  1  5  2 -1</clus>
<clus scale="   54.096">  2  5  1 -1</clus>
</clustering>
</event>
<event>
10    2  0.2445576E-006  0.1343795E+03  0.7546771E-02  0.1222339E+00
          1   -1    0    0  502    0  0.00000000000E+00  0.00000000000E+00  0.73085693568E+03  0.73085693568E+03  0.00000000000E+00 0. -1.
         -1   -1    0    0    0  501 -0.00000000000E+00 -0.00000000000E+00 -0.40577182682E+02  0.40577182682E+02  0.00000000000E+00 0.  1.
         23    2    1    2    0    0  0.83238896933E+02 -0.51440345404E+02  0.28801429936E+03  0.31919550495E+03  0.96740429225E+02 0.  0.
         23    2    1    2    0    0 -0.97256810127E+02 -0.56193167452E+01  0.25213253716E+03  0.28549227676E+03  0.91894286860E+02 0.  0.
        -11    1    4    4    0    0 -0.56630705013E+02 -0.48648082236E+02  0.13550805154E+03  0.15471297517E+03  0.00000000000E+00 0. -1.
         11    1    4    4    0    0 -0.40626105114E+02  0.43028765491E+02  0.11662448563E+03  0.13077930159E+03  0.00000000000E+00 0.  1.
        -13    1    3    3    0    0  0.68118343003E+02  0.10660574843E+02  0.10760657918E+03  0.12780036147E+03  0.00000000000E+00 0.  1.
         13    1    3    3    0    0  0.15120553930E+02 -0.62100920247E+02  0.18040772018E+03  0.19139514348E+03  0.00000000000E+00 0. -1.
         21    1    1    2  502  503  0.19734992764E+02  0.60787960159E+01  0.53367976337E+02  0.57223793991E+02  0.00000000000E+00 0. -1.
         21    1    1    2  503  501 -0.57170795704E+01  0.50980866134E+02  0.96764940131E+02  0.10952254265E+03  0.00000000000E+00 0.  1.
<scales pt_clust_5="13000.00000" pt_clust_6="13000.00000" pt_clust_7="13000.00000" pt_clust_8="13000.00000" pt_clust_9="20.64998" pt_clust_10="51.97935"></scales>
<clustering>
<clus scale="   20.650">  1  9  2 -1</clus>
<clus scale="   51.979">  2 10  1 -1</clus>
<clus scale="   91.894">  5  6 -1 -1</clus>
<clus scale="   96.740">  7  8 -1 -1</clus>
<clus scale="  130.934">  1  5  2 -1</clus>
<clus scale="   20.650">  1  5  2 -1</clus>
</clustering>
</event>
<event>
10    2  0.2445576E-006  0.1543072E+03  0.7546771E-02  0.1218785E+00
         -1   -1    0    0    0  501 -0.00000000000E+00  0.00000000000E+00  0.49074843339E+03  0.49074843339E+03  0.00000000000E+00 0.  1.
          1   -1    0    0  502    0  0.00000000000E+00 -0.00000000000E+00 -0.13531512630E+03  0.13531512630E+03  0.00000000000E+00 0. -1.
         23    2    1    2    0    0 -0.41331901616E+02 -0.10680503513E+03  0.14471686904E+03  0.20569013006E+03  0.90828496628E+02 0.  0.
         23    2    1    2    0    0 -0.37584492054E+02 -0.32020959467E+01 -0.54818509630E+00  0.98188161275E+02  0.90651900400E+02 0.  0.
        -11    1    4    4    0    0 -0.50213728672E+02 -0.36216720420E+02  0.61320435343E+01  0.62214719665E+02  0.00000000000E+00 0. -1.
         11    1    4    4    0    0  0.12629236618E+02  0.33014624473E+02 -0.66802286306E+01  0.35973441609E+02  0.00000000000E+00 0.  1.
        -13    1    3    3    0    0 -0.34185918483E+02 -0.81318470533E+02  0.38540133300E+02  0.96263765494E+02  0.00000000000E+00 0. -1.
         13    1    3    3    0    0 -0.71459831331E+01 -0.25486564595E+02  0.10617673574E+03  0.10942636457E+03  0.00000000000E+00 0.  1.
         21    1    1    2  502  503  0.36059042432E+02 -0.13040469805E+02 -0.29530199919E+02  0.48397738595E+02  0.00000000000E+00 0. -1.
         21    1    1    2  503  501  0.42857351239E+02  0.12304760088E+03  0.24079482306E+03  0.27378752976E+03  0.00000000000E+00 0.  1.
<scales pt_clust_5="13000.00000" pt_clust_6="13000.00000" pt_clust_7="13000.00000" pt_clust_8="13000.00000" pt_clust_9="38.34460" pt_clust_10="124.74330"></scales>
<clustering>
<clus scale="   38.345">  2  9  1 -1</clus>
<clus scale="   90.652">  5  6 -1 -1</clus>
<clus scale="   90.828">  7  8 -1 -1</clus>
<clus scale="   93.170">  2  5  1 -1</clus>
<clus scale="  124.743">  1 10  2 -1</clus>
<clus scale="   38.345">  2  5  1 -1</clus>
</clustering>
</event>
<event>
10    2  0.2445576E-006  0.9411961E+02  0.7546771E-02  0.1293327E+00
         -1   -1    0    0    0  501 -0.00000000000E+00  0.00000000000E+00  0.14153632229E+03  0.14153632229E+03  0.00000000000E+00 0.  1.
          1   -1    0    0  502    0  0.00000000000E+00 -0.00000000000E+00 -0.20458070126E+03  0.20458070126E+03  0.00000000000E+00 0. -1.
         23    2    1    2    0    0  0.22038936887E+01 -0.34247637872E+01 -0.39199435284E+02  0.10167648316E+03  0.93727932588E+02 0.  0.
         23    2    1    2    0    0 -0.62436847269E+01  0.48782337363E+01 -0.92545546909E+02  0.13176146976E+03  0.93453870423E+02 0.  0.
        -11    1    4    4    0    0  0.86087822906E+01  0.25359945427E+02  0.81041751229E+01  0.27980629353E+02  0.00000000000E+00 0. -1.
         11    1    4    4    0    0 -0.14852467017E+02 -0.20481711691E+02 -0.10064972203E+03  0.10378084041E+03  0.00000000000E+00 0.  1.
        -11    1    3    3    0    0 -0.12613561172E+02 -0.38428289131E+02  0.78408277786E+01  0.41198469768E+02  0.00000000000E+00 0.  1.
         11    1    3    3    0    0  0.14817454861E+02  0.35003525344E+02 -0.47040263063E+02  0.60478013394E+02  0.00000000000E+00 0. -1.
         21    1    1    2  502  503  0.88801197541E+01  0.19162155010E+02 -0.15281340436E+02  0.26068449838E+02  0.00000000000E+00 0. -1.
         21    1    1    2  503  501 -0.48403287159E+01 -0.20615624959E+02  0.83981943651E+02  0.86610620791E+02  0.00000000000E+00 0.  1.
<scales pt_clust_5="13000.00000" pt_clust_6="13000.00000" pt_clust_7="13000.00000" pt_clust_8="13000.00000" pt_clust_9="21.11977" pt_clust_10="21.02842"></scales>
<clustering>
<clus scale="   21.120">  2  9  1 -1</clus>
<clus scale="   21.028">  1 10  2 -1</clus>
<clus scale="   93.454">  5  6 -1 -1</clus>
<clus scale="   93.728">  7  8 -1 -1</clus>
<clus scale="   93.847">  2  5  1 -1</clus>
<clus scale="   21.120">  2  5  1 -1</clus>
</clustering>
</event>
<event>
10    2  0.2445576E-006  0.1062386E+03  0.7546771E-02  0.1268893E+00
          1   -1    0    0  502    0  0.00000000000E+00  0.00000000000E+00  0.23434920253E+03  0.23434920253E+03  0.00000000000E+00 0. -1.
         -1   -1    0    0    0  501 -0.00000000000E+00 -0.00000000000E+00 -0.35891346226E+03  0.35891346226E+03  0.00000000000E+00 0.  1.
         23    2    1    2    0    0 -0.19368324884E+02 -0.93622200017E+02 -0.20451873543E+03  0.24374350747E+03  0.91884361811E+02 0.  0.
         23    2    1    2    0    0  0.49843867790E+02  0.14443826248E+02  0.18249468707E+03  0.20959210782E+03  0.89059000531E+02 0.  0.
        -11    1    4    4    0    0  0.49236575280E+02 -0.14221109655E+02  0.42170891611E+02  0.66369152506E+02  0.00000000000E+00 0.  1.
         11    1    4    4    0    0  0.60729250976E+00  0.28664935903E+02  0.14032379546E+03  0.14322295531E+03  0.00000000000E+00 0. -1.
        -11    1    3    3    0    0  0.22593546219E+02 -0.86069958618E+02 -0.15158774310E+03  0.17577642039E+03  0.00000000000E+00 0.  1.
         11    1    3    3    0    0 -0.41961871103E+02 -0.75522414000E+01 -0.52930992334E+02  0.67967087080E+02  0.00000000000E+00 0. -1.
         21    1    1    2  502  503 -0.10233284616E+02  0.18316726066E+02 -0.25534303613E+01  0.21136285729E+02  0.00000000000E+00 0. -1.
         21    1    1    2  503  501 -0.20242258289E+02  0.60861647703E+02 -0.99986781013E+02  0.11879076378E+03  0.00000000000E+00 0. -1.
<scales pt_clust_5="13000.00000" pt_clust_6="13000.00000" pt_clust_7="13000.00000" pt_clust_8="13000.00000" pt_clust_9="20.98148" pt_clust_10="65.00082"></scales>
<clustering>
<clus scale="   20.981">  1  9  2 -1</clus>
<clus scale="   65.001">  2 10  1 -1</clus>
<clus scale="   89.059">  5  6 -1 -1</clus>
<clus scale="   91.884">  7  8 -1 -1</clus>
<clus scale="  103.805">  1  5  2 -1</clus>
<clus scale="   20.981">  1  5  2 -1</clus>
</clustering>
</event>
<event>
10    2  0.2445576E-006  0.9164110E+02  0.7546771E-02  0.1298927E+00
         -2   -1    0    0    0  501 -0.00000000000E+00  0.00000000000E+00  0.49066346073E+02  0.49066346073E+02  0.00000000000E+00 0.  1.
          2   -1    0    0  502    0  0.00000000000E+00 -0.00000000000E+00 -0.58456661007E+03  0.58456661007E+03  0.00000000000E+00 0. -1.
         23    2    1    2    0    0  0.78975380721E+01  0.24314293215E+01 -0.18581449190E+02  0.93593951918E+02  0.91357947796E+02 0.  0.
         23    2    1    2    0    0 -0.77424504219E-01 -0.28892633004E+01 -0.30476234440E+03  0.31817499606E+03  0.91361303193E+02 0.  0.
        -11    1    3    3    0    0 -0.40971421882E+02 -0.76995854739E+01 -0.59388896464E+01  0.42109517187E+02  0.00000000000E+00 0.  1.
         11    1    3    3    0    0  0.48868959954E+02  0.10131014795E+02 -0.12642559543E+02  0.51484434731E+02  0.00000000000E+00 0. -1.
        -13    1    4    4    0    0 -0.45371984502E+02 -0.70639530174E+01 -0.15412366874E+03  0.16081859867E+03  0.00000000000E+00 0.  1.
         13    1    4    4    0    0  0.45294559997E+02  0.41746897170E+01 -0.15063867565E+03  0.15735639740E+03  0.00000000000E+00 0. -1.
         21    1    1    2  502  503  0.24307250291E+02 -0.81867729349E-01 -0.14935229078E+03  0.15131740112E+03  0.00000000000E+00 0. -1.
         21    1    1    2  503  501 -0.32127363859E+02  0.53970170833E+00 -0.62804179631E+02  0.70546607045E+02  0.00000000000E+00 0.  1.
<scales pt_clust_5="13000.00000" pt_clust_6="13000.00000" pt_clust_7="13000.00000" pt_clust_8="13000.00000" pt_clust_9="24.30739" pt_clust_10="28.39993"></scales>
<clustering>
<clus scale="   24.307">  2  9  1 -1</clus>
<clus scale="   28.400">  2 10  1 -1</clus>
<clus scale="   91.358">  5  6 -1 -1</clus>
<clus scale="   91.361">  7  8 -1 -1</clus>
<clus scale="   91.638">  1  5  2 -1</clus>
<clus scale="   24.307">  2  5  1 -1</clus>
</clustering>
</event>
<event>
10    2  0.2445576E-006  0.2260225E+03  0.7546771E-02  0.1129789E+00
         -1   -1    0    0    0  501 -0.00000000000E+00  0.00000000000E+00  0.18213373670E+03  0.18213373670E+03  0.00000000000E+00 0.  1.
          1   -1    0    0  502    0  0.00000000000E+00 -0.00000000000E+00 -0.49766440693E+03  0.49766440693E+03  0.00000000000E+00 0. -1.
         23    2    1    2    0    0 -0.12068742796E+03  0.15489813104E+03 -0.29634888635E+02  0.21958731788E+03  0.93709536782E+02 0.  0.
         23    2    1    2    0    0  0.18743402086E+03 -0.13041339718E+03 -0.15662020728E+03  0.29096221682E+03  0.89386553502E+02 0.  0.
        -11    1    3    3    0    0 -0.74991593783E+02  0.62471020647E+02 -0.56846418113E+02  0.11295079819E+03  0.00000000000E+00 0. -1.
         11    1    3    3    0    0 -0.45695834180E+02  0.92427110391E+02  0.27211529478E+02  0.10663651970E+03  0.00000000000E+00 0.  1.
        -11    1    4    4    0    0  0.18326847092E+03 -0.95660014461E+02 -0.11494649711E+03  0.23653935824E+03  0.00000000000E+00 0.  1.
         11    1    4    4    0    0  0.41655499471E+01 -0.34753382717E+02 -0.41673710166E+02  0.54422858577E+02  0.00000000000E+00 0. -1.
         21    1    1    2  502  503 -0.36905251297E+02  0.10450324125E+02 -0.11485978278E+03  0.12109490719E+03  0.00000000000E+00 0.  1.
         21    1    1    2  503  501 -0.29841341604E+02 -0.34935057985E+02 -0.14415791539E+02  0.48153701736E+02  0.00000000000E+00 0.  1.
<scales pt_clust_5="13000.00000" pt_clust_6="13000.00000" pt_clust_7="13000.00000" pt_clust_8="13000.00000" pt_clust_9="38.35631" pt_clust_10="47.35267"></scales>
<clustering>
<clus scale="   38.356">  2  9  1 -1</clus>
<clus scale="   47.353">  1 10  2 -1</clus>
<clus scale="   89.387">  7  8 -1 -1</clus>
<clus scale="   93.710">  5  6 -1 -1</clus>
<clus scale="  224.265">  2  7  1 -1</clus>
<clus scale="   38.356">  2  5  1 -1</clus>
</clustering>
</event>
<event>
10    2  0.2445576E-006  0.1006538E+03  0.7546771E-02  0.1279284E+00
         -1   -1    0    0    0  501 -0.00000000000E+00  0.00000000000E+00  0.11116477443E+03  0.11116477443E+03  0.00000000000E+00 0.  1.
          1   -1    0    0  502    0  0.00000000000E+00 -0.00000000000E+00 -0.34038092638E+03  0.34038092638E+03  0.00000000000E+00 0. -1.
         23    2    1    2    0    0 -0.36738754007E+02 -0.15931947477E+02 -0.71119744170E+02  0.12196891719E+03  0.90635731101E+02 0.  0.
         23    2    1    2    0    0  0.56207976831E+02 -0.11762678452E+02 -0.13152614574E+03  0.16933618446E+03  0.89877244562E+02 0.  0.
        -11    1    4    4    0    0  0.30333063348E+02 -0.40262931831E+02 -0.11836848118E+03  0.12865572567E+03  0.00000000000E+00 0. -1.
         11    1    4    4    0    0  0.25874913482E+02  0.28500253379E+02 -0.13157664562E+02  0.40680458787E+02  0.00000000000E+00 0.  1.
        -13    1    3    3    0    0 -0.34765003653E+02  0.30676067980E+02 -0.14440398701E+02  0.48560804568E+02  0.00000000000E+00 0. -1.
         13    1    3    3    0    0 -0.19737503547E+01 -0.46608015456E+02 -0.56679345469E+02  0.73408112617E+02  0.00000000000E+00 0.  1.
         21    1    1    2  502  503 -0.22260185822E+02  0.50059589734E+01 -0.89984440115E+02  0.92831971652E+02  0.00000000000E+00 0. -1.
         21    1    1    2  503  501  0.27909629988E+01  0.22688666955E+02  0.63414178078E+02  0.67408627519E+02  0.00000000000E+00 0.  1.
<scales pt_clust_5="13000.00000" pt_clust_6="13000.00000" pt_clust_7="13000.00000" pt_clust_8="13000.00000" pt_clust_9="22.81612" pt_clust_10="22.87846"></scales>
<clustering>
<clus scale="   22.816">  2  9  1 -1</clus>
<clus scale="   22.878">  1 10  2 -1</clus>
<clus scale="   89.877">  5  6 -1 -1</clus>
<clus scale="   90.636">  7  8 -1 -1</clus>
<clus scale="   99.971">  2  5  1 -1</clus>
<clus scale="   22.816">  2  5  1 -1</clus>
</clustering>
</event>
<event>
10    2  0.2445576E-006  0.1098717E+03  0.7546771E-02  0.1263012E+00
         -1   -1    0    0    0  501 -0.00000000000E+00  0.00000000000E+00  0.53361059602E+03  0.53361059602E+03  0.00000000000E+00 0.  1.
          1   -1    0    0  502    0  0.00000000000E+00 -0.00000000000E+00 -0.85716723956E+03  0.85716723956E+03  0.00000000000E+00 0. -1.
         23    2    1    2    0    0  0.57783126610E+02 -0.89415125701E+02  0.46568209283E+03  0.48663911551E+03  0.92864755077E+02 0.  0.
         23    2    1    2    0    0 -0.85847097853E+02  0.12276667445E+03 -0.67961641738E+03  0.70138780737E+03  0.87321251642E+02 0.  0.
        -11    1    3    3    0    0  0.40096881556E+02 -0.10281947603E+03  0.43494575165E+03  0.44872866127E+03  0.00000000000E+00 0.  1.
         11    1    3    3    0    0  0.17686245054E+02  0.13404350330E+02  0.30736341180E+02  0.37910454244E+02  0.00000000000E+00 0. -1.
        -13    1    4    4    0    0 -0.34385756177E+02  0.11490141195E+03 -0.51269865180E+03  0.52654023802E+03  0.00000000000E+00 0. -1.
         13    1    4    4    0    0 -0.51461341676E+02  0.78652624996E+01 -0.16691776558E+03  0.17484756935E+03  0.00000000000E+00 0.  1.
         21    1    1    2  502  503  0.48118900533E+02 -0.90014362066E+02 -0.98062025261E+02  0.14154213071E+03  0.00000000000E+00 0.  1.
         21    1    1    2  503  501 -0.20054929291E+02  0.56662813315E+02 -0.11560293725E+02  0.61208781990E+02  0.00000000000E+00 0. -1.
<scales pt_clust_5="13000.00000" pt_clust_6="13000.00000" pt_clust_7="13000.00000" pt_clust_8="13000.00000" pt_clust_9="99.53021" pt_clust_10="60.10719"></scales>
<clustering>
<clus scale="   60.107">  1 10  2 -1</clus>
<clus scale="   87.321">  7  8 -1 -1</clus>
<clus scale="   92.865">  5  6 -1 -1</clus>
<clus scale="   99.530">  2  9  1 -1</clus>
<clus scale="  105.228">  2  7  1 -1</clus>
<clus scale="   99.530">  2  5  1 -1</clus>
</clustering>
</event>
<event>
10    2  0.2445576E-006  0.1513980E+03  0.7546771E-02  0.1221588E+00
          1   -1    0    0  502    0  0.00000000000E+00  0.00000000000E+00  0.41339428123E+02  0.41339428123E+02  0.00000000000E+00 0. -1.
         -1   -1    0    0    0  501 -0.00000000000E+00 -0.00000000000E+00 -0.97504270713E+03  0.97504270713E+03  0.00000000000E+00 0.  1.
         23    2    1    2    0    0 -0.10733123775E+02 -0.32266446844E+02 -0.41428209280E+03  0.42459387950E+03  0.86567814766E+02 0.  0.
         23    2    1    2    0    0 -0.78513691497E+02 -0.68945403894E+02 -0.29675017060E+03  0.32737082299E+03  0.90515874404E+02 0.  0.
        -11    1    3    3    0    0 -0.56091713477E+01 -0.62058499370E+02 -0.25831027972E+03  0.26571962810E+03  0.00000000000E+00 0.  1.
         11    1    3    3    0    0 -0.51239524272E+01  0.29792052526E+02 -0.15597181308E+03  0.15887425140E+03  0.00000000000E+00 0. -1.
        -13    1    4    4    0    0 -0.42445095409E+02 -0.44382005277E+02 -0.57350339412E+02  0.84026245587E+02  0.00000000000E+00 0. -1.
         13    1    4    4    0    0 -0.36068596088E+02 -0.24563398616E+02 -0.23939983119E+03  0.24334457740E+03  0.00000000000E+00 0.  1.
         21    1    1    2  502  503  0.42552146687E+02  0.28600006327E+02 -0.51291699556E+02  0.72522299970E+02  0.00000000000E+00 0. -1.
         21    1    1    2  503  501  0.46694668585E+02  0.72611844411E+02 -0.17137931604E+03  0.19189513279E+03  0.00000000000E+00 0. -1.
<scales pt_clust_5="13000.00000" pt_clust_6="13000.00000" pt_clust_7="13000.00000" pt_clust_8="13000.00000" pt_clust_9="35.52784" pt_clust_10="129.82136"></scales>
<clustering>
<clus scale="   35.528">  9 10 -1 -1</clus>
<clus scale="   86.568">  5  6 -1 -1</clus>
<clus scale="   90.516">  7  8 -1 -1</clus>
<clus scale="   93.007">  2  5  1 -1</clus>
<clus scale="  129.821">  1  9  2 -1</clus>
<clus scale="  129.821">  1  5  2 -1</clus>
</clustering>
</event>
<event>
10    2  0.2445576E-006  0.3535219E+03  0.7546771E-02  0.1061217E+00
          1   -1    0    0  502    0  0.00000000000E+00  0.00000000000E+00  0.19709414363E+04  0.19709414363E+04  0.00000000000E+00 0. -1.
         -1   -1    0    0    0  501 -0.00000000000E+00 -0.00000000000E+00 -0.16973993210E+03  0.16973993210E+03  0.00000000000E+00 0.  1.
         23    2    1    2    0    0 -0.26592229192E+03 -0.26013356131E+03  0.18033782557E+03  0.42321091412E+03  0.90562748619E+02 0.  0.
         23    2    1    2    0    0  0.29596190957E+03  0.21953964734E+03  0.15194963493E+04  0.15662461163E+04  0.92014307109E+02 0.  0.
        -11    1    4    4    0    0  0.23848247302E+03  0.20820025344E+03  0.11798556284E+04  0.12215893497E+04  0.00000000000E+00 0. -1.
         11    1    4    4    0    0  0.57479436542E+02  0.11339393897E+02  0.33964072086E+03  0.34465676658E+03  0.00000000000E+00 0.  1.
        -11    1    3    3    0    0 -0.79651229638E+02 -0.77928886841E+02  0.99430442462E+01  0.11187534990E+03  0.00000000000E+00 0.  1.
         11    1    3    3    0    0 -0.18627106228E+03 -0.18220467447E+03  0.17039478133E+03  0.31133556422E+03  0.00000000000E+00 0. -1.
         21    1    1    2  502  503 -0.43990764042E+02 -0.11271386558E+02  0.82729157265E+02  0.94373433432E+02  0.00000000000E+00 0.  1.
         21    1    1    2  503  501  0.13951146395E+02  0.51865300529E+02  0.18638172035E+02  0.56850904492E+02  0.00000000000E+00 0. -1.
<scales pt_clust_5="13000.00000" pt_clust_6="13000.00000" pt_clust_7="13000.00000" pt_clust_8="13000.00000" pt_clust_9="45.41180" pt_clust_10="53.26741"></scales>
<clustering>
<clus scale="   45.412">  1  9  2 -1</clus>
<clus scale="   53.267">  2 10  1 -1</clus>
<clus scale="   90.563">  7  8 -1 -1</clus>
<clus scale="   92.014">  5  6 -1 -1</clus>
<clus scale="  353.147">  2  7  1 -1</clus>
<clus scale="   45.412">  1  5  2 -1</clus>
</clustering>
</event>
<event>
10    2  0.2445576E-006  0.1023641E+03  0.7546771E-02  0.1277342E+00
          2   -1    0    0  502    0  0.00000000000E+00  0.00000000000E+00  0.40350535590E+03  0.40350535590E+03  0.00000000000E+00 0. -1.
         -2   -1    0    0    0  501 -0.00000000000E+00 -0.00000000000E+00 -0.21440738408E+03  0.21440738408E+03  0.00000000000E+00 0.  1.
         23    2    1    2    0    0 -0.67813577460E+02 -0.21643829717E+02  0.49152665823E+02  0.12565177431E+03  0.91133128869E+02 0.  0.
         23    2    1    2    0    0 -0.13974349802E+02  0.36714451855E+02  0.21098411233E+03  0.23476154090E+03  0.95160138746E+02 0.  0.
        -11    1    3    3    0    0 -0.60315930687E+02  0.24136047391E+02  0.45098892777E+02  0.79085209793E+02  0.00000000000E+00 0.  1.
         11    1    3    3    0    0 -0.74976467734E+01 -0.45779877109E+02  0.40537730469E+01  0.46566564520E+02  0.00000000000E+00 0. -1.
        -11    1    4    4    0    0 -0.43982787823E+02 -0.11257772291E+02  0.78204826614E+02  0.90427971155E+02  0.00000000000E+00 0.  1.
         11    1    4    4    0    0  0.30008438020E+02  0.47972224146E+02  0.13277928571E+03  0.14433356975E+03  0.00000000000E+00 0. -1.
         21    1    1    2  502  503  0.45988654727E+02 -0.25730393057E+02  0.83374669480E+02  0.98632372988E+02  0.00000000000E+00 0. -1.
         21    1    1    2  503  501  0.35799272536E+02  0.10659770919E+02 -0.15441347580E+03  0.15886705177E+03  0.00000000000E+00 0.  1.
<scales pt_clust_5="13000.00000" pt_clust_6="13000.00000" pt_clust_7="13000.00000" pt_clust_8="13000.00000" pt_clust_9="56.24716" pt_clust_10="37.35263"></scales>
<clustering>
<clus scale="   37.353">  2 10  1 -1</clus>
<clus scale="   56.247">  1  9  2 -1</clus>
<clus scale="   91.133">  5  6 -1 -1</clus>
<clus scale="   95.160">  7  8 -1 -1</clus>
<clus scale="   98.632">  2  5  1 -1</clus>
<clus scale="   56.247">  1  5  2 -1</clus>
</clustering>
</event>
<event>
10    2  0.2445576E-006  0.1436914E+03  0.7546771E-02  0.1215062E+00
         -2   -1    0    0    0  501 -0.00000000000E+00  0.00000000000E+00  0.14734740813E+03  0.14734740813E+03  0.00000000000E+00 0.  1.
          2   -1    0    0  502    0  0.00000000000E+00 -0.00000000000E+00 -0.18607005386E+03  0.18607005386E+03  0.00000000000E+00 0. -1.
         23    2    1    2    0    0 -0.60457006877E+02 -0.48736672164E+02  0.41677929585E+02  0.14572656406E+03  0.11605545555E+03 0.  0.
         23    2    1    2    0    0  0.69433472291E+02  0.37063904998E+02 -0.78240428710E+02  0.14393269297E+03  0.91653233943E+02 0.  0.
        -11    1    3    3    0    0  0.19893648705E+02 -0.49410611121E+02  0.37733733867E+02  0.65276338911E+02  0.00000000000E+00 0.  1.
         11    1    3    3    0    0 -0.80350655582E+02  0.67393895608E+00  0.39441957179E+01  0.80450225146E+02  0.00000000000E+00 0. -1.
        -13    1    4    4    0    0  0.56741891233E+02 -0.60263673221E+01 -0.40521945943E+01  0.57204716631E+02  0.00000000000E+00 0. -1.
         13    1    4    4    0    0  0.12691581058E+02  0.43090272320E+02 -0.74188234116E+02  0.86727976337E+02  0.00000000000E+00 0.  1.
         21    1    1    2  502  503  0.10793244808E+02  0.19164409558E+02 -0.46177770968E+01  0.22474265116E+02  0.00000000000E+00 0. -1.
         21    1    1    2  503  501 -0.19769710221E+02 -0.74916423914E+01  0.24576304968E+01  0.21283939852E+02  0.00000000000E+00 0.  1.
<scales pt_clust_5="13000.00000" pt_clust_6="13000.00000" pt_clust_7="13000.00000" pt_clust_8="13000.00000" pt_clust_9="20.94426" pt_clust_10="21.14157"></scales>
<clustering>
<clus scale="   21.142">  1 10  2 -1</clus>
<clus scale="   20.944">  2  9  1 -1</clus>
<clus scale="   91.653">  7  8 -1 -1</clus>
<clus scale="  116.055">  5  6 -1 -1</clus>
<clus scale="  124.815">  2  7  1 -1</clus>
<clus scale="   20.944">  2  5  1 -1</clus>
</clustering>
</event>
<event>
10    2  0.2445576E-006  0.9389099E+02  0.7546771E-02  0.1300757E+00
          1   -1    0    0  502    0  0.00000000000E+00  0.00000000000E+00  0.12198348425E+03  0.12198348425E+03  0.00000000000E+00 0. -1.
         -1   -1    0    0    0  501 -0.00000000000E+00 -0.00000000000E+00 -0.59134380446E+03  0.59134380446E+03  0.00000000000E+00 0.  1.
         23    2    1    2    0    0 -0.43494116242E+02  0.20744694371E+02 -0.10797312623E+02  0.10246383780E+03  0.89778480741E+02 0.  0.
         23    2    1    2    0    0  0.75763786937E+01  0.61466750896E+01 -0.30907495166E+02  0.84152577797E+02  0.77660800689E+02 0.  0.
        -11    1    4    4    0    0  0.20255726734E+01  0.35561464721E+02 -0.39324403203E+02  0.53057793066E+02  0.00000000000E+00 0. -1.
         11    1    4    4    0    0  0.55508060203E+01 -0.29414789632E+02  0.84169080370E+01  0.31094784731E+02  0.00000000000E+00 0.  1.
        -13    1    3    3    0    0  0.25939703512E+02  0.16097069466E+00 -0.14921908367E+02  0.29925866390E+02  0.00000000000E+00 0.  1.
         13    1    3    3    0    0 -0.69433819754E+02  0.20583723676E+02  0.41245957444E+01  0.72537971409E+02  0.00000000000E+00 0. -1.
         21    1    1    2  502  503 -0.43393924253E+02 -0.24059444008E+02  0.32791753893E+02  0.59474268649E+02  0.00000000000E+00 0. -1.
         21    1    1    2  503  501  0.79311661801E+02 -0.28319254526E+01 -0.46044726632E+03  0.46723660447E+03  0.00000000000E+00 0.  1.
<scales pt_clust_5="13000.00000" pt_clust_6="13000.00000" pt_clust_7="13000.00000" pt_clust_8="13000.00000" pt_clust_9="49.61743" pt_clust_10="77.46825"></scales>
<clustering>
<clus scale="   49.617">  1  9  2 -1</clus>
<clus scale="   77.468">  2 10  1 -1</clus>
<clus scale="   77.661">  5  6 -1 -1</clus>
<clus scale="   82.380">  1  5  2 -1</clus>
<clus scale="   89.778">  7  8 -1 -1</clus>
<clus scale="   49.617">  1  5  2 -1</clus>
</clustering>
</event>
<event>
10    2  0.2445576E-006  0.1143099E+03  0.7546771E-02  0.1254790E+00
         -1   -1    0    0    0  501 -0.00000000000E+00  0.00000000000E+00  0.39806502887E+02  0.39806502887E+02  0.00000000000E+00 0.  1.
          1   -1    0    0  502    0  0.00000000000E+00 -0.00000000000E+00 -0.67940978165E+03  0.67940978165E+03  0.00000000000E+00 0. -1.
         23    2    1    2    0    0  0.45048246607E+02  0.44633709420E+02 -0.12301820693E+03  0.16269947831E+03  0.85534370106E+02 0.  0.
         23    2    1    2    0    0 -0.49901793157E+02 -0.50396164961E+02 -0.46281394776E+03  0.47701181050E+03  0.91178696580E+02 0.  0.
        -11    1    3    3    0    0  0.69533797501E+02  0.24164564869E+02 -0.75400344010E+02  0.10537593211E+03  0.00000000000E+00 0.  1.
         11    1    3    3    0    0 -0.24485550894E+02  0.20469144551E+02 -0.47617862915E+02  0.57323546208E+02  0.00000000000E+00 0. -1.
        -13    1    4    4    0    0  0.91731679147E+01  0.19162255953E+02 -0.51778166787E+02  0.55967111937E+02  0.00000000000E+00 0.  1.
         13    1    4    4    0    0 -0.59074961072E+02 -0.69558420913E+02 -0.41103578097E+03  0.42104469856E+03  0.00000000000E+00 0. -1.
         21    1    1    2  502  503 -0.81682532626E+01  0.22154914649E+02 -0.53598359821E+02  0.58569145290E+02  0.00000000000E+00 0.  1.
         21    1    1    2  503  501  0.13021799813E+02 -0.16392459109E+02 -0.17276425654E+00  0.20935850436E+02  0.00000000000E+00 0.  1.
<scales pt_clust_5="13000.00000" pt_clust_6="13000.00000" pt_clust_7="13000.00000" pt_clust_8="13000.00000" pt_clust_9="21.94010" pt_clust_10="20.93514"></scales>
<clustering>
<clus scale="   20.935">  1 10  2 -1</clus>
<clus scale="   21.940">  1  9  2 -1</clus>
<clus scale="   85.534">  5  6 -1 -1</clus>
<clus scale="   91.179">  7  8 -1 -1</clus>
<clus scale="  109.861">  1  5  2 -1</clus>
<clus scale="  114.310">  2  5  1 -1</clus>
</clustering>
</event>
<event>
10    2  0.2445576E-006  0.9129573E+02  0.7546771E-02  0.1299967E+00
         -2   -1    0    0    0  501 -0.00000000000E+00  0.00000000000E+00  0.71818511315E+02  0.71818511315E+02  0.00000000000E+00 0.  1.
          2   -1    0    0  502    0  0.00000000000E+00 -0.00000000000E+00 -0.38559328975E+03  0.38559328975E+03  0.00000000000E+00 0. -1.
         23    2    1    2    0    0 -0.96490864521E+01 -0.31189254425E+02 -0.92820192046E+02  0.13346846840E+03  0.90179651500E+02 0.  0.
         23    2    1    2    0    0  0.29477765128E+01  0.16557987532E+02 -0.18374594440E+03  0.20520600204E+03  0.89800194050E+02 0.  0.
        -11    1    4    4    0    0  0.32539836726E+02 -0.22406147620E+02 -0.57081855001E+02  0.69420563205E+02  0.00000000000E+00 0. -1.
         11    1    4    4    0    0 -0.29592060213E+02  0.38964135152E+02 -0.12666408940E+03  0.13578543883E+03  0.00000000000E+00 0.  1.
        -13    1    3    3    0    0 -0.34528234869E+02  0.17697747977E+02 -0.24643086558E+02  0.45964018555E+02  0.00000000000E+00 0.  1.
         13    1    3    3    0    0  0.24879148417E+02 -0.48887002403E+02 -0.68177105488E+02  0.87504449845E+02  0.00000000000E+00 0. -1.
         21    1    1    2  502  503  0.30398496828E+01 -0.42316523106E+02 -0.44174964428E+02  0.61248316679E+02  0.00000000000E+00 0. -1.
         21    1    1    2  503  501  0.36614602565E+01  0.56947789999E+02  0.69663224344E+01  0.57489013952E+02  0.00000000000E+00 0.  1.
<scales pt_clust_5="13000.00000" pt_clust_6="13000.00000" pt_clust_7="13000.00000" pt_clust_8="13000.00000" pt_clust_9="42.42557" pt_clust_10="53.87729"></scales>
<clustering>
<clus scale="   42.426">  2  9  1 -1</clus>
<clus scale="   53.877">  1 10  2 -1</clus>
<clus scale="   89.800">  5  6 -1 -1</clus>
<clus scale="   90.180">  7  8 -1 -1</clus>
<clus scale="   90.921">  2  5  1 -1</clus>
<clus scale="   42.426">  2  5  1 -1</clus>
</clustering>
</event>
<event>
10    2  0.2445576E-006  0.1247993E+03  0.7546771E-02  0.1247842E+00
          2   -1    0    0  502    0  0.00000000000E+00  0.00000000000E+00  0.34709735864E+03  0.34709735864E+03  0.00000000000E+00 0. -1.
         -2   -1    0    0    0  501 -0.00000000000E+00 -0.00000000000E+00 -0.33115892244E+03  0.33115892244E+03  0.00000000000E+00 0.  1.
         23    2    1    2    0    0 -0.44309006650E+00 -0.60003468401E+02 -0.23672821441E+03  0.26119555209E+03  0.92640468403E+02 0.  0.
         23    2    1    2    0    0 -0.31863998446E+02 -0.19247744941E+02  0.18660001540E+02  0.99609332691E+02  0.90487752870E+02 0.  0.
        -11    1    3    3    0    0  0.36307461354E+02 -0.10680990101E+02 -0.15108694593E+03  0.15575487321E+03  0.00000000000E+00 0.  1.
         11    1    3    3    0    0 -0.36750551421E+02 -0.49322478300E+02 -0.85641268479E+02  0.10544067888E+03  0.00000000000E+00 0. -1.
        -13    1    4    4    0    0 -0.36564261334E+02 -0.52588175050E+02  0.98276115675E+01  0.64800025549E+02  0.00000000000E+00 0. -1.
         13    1    4    4    0    0  0.47002628886E+01  0.33340430109E+02  0.88323899723E+01  0.34809307142E+02  0.00000000000E+00 0.  1.
         21    1    1    2  502  503 -0.36012711742E+01  0.99734231225E+02  0.25298894099E+03  0.27196192803E+03  0.00000000000E+00 0. -1.
         21    1    1    2  503  501  0.35908359687E+02 -0.20483017883E+02 -0.18982291926E+02  0.45489468273E+02  0.00000000000E+00 0. -1.
<scales pt_clust_5="13000.00000" pt_clust_6="13000.00000" pt_clust_7="13000.00000" pt_clust_8="13000.00000" pt_clust_9="83.62175" pt_clust_10="41.33962"></scales>
<clustering>
<clus scale="   41.340">  2 10  1 -1</clus>
<clus scale="   90.488">  7  8 -1 -1</clus>
<clus scale="   92.640">  5  6 -1 -1</clus>
<clus scale="   96.964">  1  7  2 -1</clus>
<clus scale="   83.622">  1  9  2 -1</clus>
<clus scale="   96.964">  1  5  2 -1</clus>
</clustering>
</event>
<event>
10    2  0.2445576E-006  0.1641602E+03  0.7546771E-02  0.1184318E+00
         -1   -1    0    0    0  501 -0.00000000000E+00  0.00000000000E+00  0.15091695137E+03  0.15091695137E+03  0.00000000000E+00 0.  1.
          1   -1    0    0  503    0  0.00000000000E+00 -0.00000000000E+00 -0.30007156842E+03  0.30007156842E+03  0.00000000000E+00 0. -1.
         23    2    1    2    0    0 -0.47707171010E+02 -0.12980620991E+03  0.37888255082E+02  0.16938213632E+03  0.90161865182E+02 0.  0.
         23    2    1    2    0    0  0.80962546520E+02  0.10753303371E+03 -0.13726934388E+03  0.21301863194E+03  0.91737546868E+02 0.  0.
        -11    1    3    3    0    0  0.78866898904E+01 -0.37050802091E+02  0.47569527563E+02  0.60809717691E+02  0.00000000000E+00 0.  1.
         11    1    3    3    0    0 -0.55593860901E+02 -0.92755407821E+02 -0.96812724813E+01  0.10857241863E+03  0.00000000000E+00 0. -1.
        -13    1    4    4    0    0  0.82911071316E+02  0.48929735446E+02 -0.51668944705E+02  0.10926135916E+03  0.00000000000E+00 0. -1.
         13    1    4    4    0    0 -0.19485247964E+01  0.58603298266E+02 -0.85600399172E+02  0.10375727278E+03  0.00000000000E+00 0.  1.
         21    1    1    2  502  501 -0.11467979155E+02  0.22612884764E+02 -0.28259705984E+02  0.37966670720E+02  0.00000000000E+00 0.  1.
         21    1    1    2  503  502 -0.21787396354E+02 -0.33970856286E+00 -0.21513822267E+02  0.30621080816E+02  0.00000000000E+00 0.  1.
<scales pt_clust_5="13000.00000" pt_clust_6="13000.00000" pt_clust_7="13000.00000" pt_clust_8="13000.00000" pt_clust_9="26.61437" pt_clust_10="21.79004"></scales>
<clustering>
<clus scale="   21.790">  2 10  1 -1</clus>
<clus scale="   26.614">  2  9  1 -1</clus>
<clus scale="   90.162">  5  6 -1 -1</clus>
<clus scale="   91.738">  7  8 -1 -1</clus>
<clus scale="  163.285">  1  5  2 -1</clus>
<clus scale="   21.790">  2  5  1 -1</clus>
</clustering>
</event>
<event>
10    2  0.2445576E-006  0.9709299E+02  0.7546771E-02  0.1288737E+00
          1   -1    0    0  502    0  0.00000000000E+00  0.00000000000E+00  0.29271142834E+02  0.29271142834E+02  0.00000000000E+00 0. -1.
         -1   -1    0    0    0  501 -0.00000000000E+00 -0.00000000000E+00 -0.65094092371E+03  0.65094092371E+03  0.00000000000E+00 0.  1.
         23    2    1    2    0    0 -0.14022584569E+01 -0.12892691780E+01 -0.24162347712E+03  0.25811150888E+03  0.90752508373E+02 0.  0.
         23    2    1    2    0    0 -0.25694376047E+02  0.35315969277E+02 -0.26807591800E+03  0.28767799604E+03  0.94797220142E+02 0.  0.
        -13    1    4    4    0    0  0.23057046395E+02 -0.13933714666E+02 -0.13476555998E+03  0.13743191751E+03  0.00000000000E+00 0.  1.
         13    1    4    4    0    0 -0.48751422442E+02  0.49249683943E+02 -0.13331035802E+03  0.15024607853E+03  0.00000000000E+00 0. -1.
        -13    1    3    3    0    0  0.41619319462E+02  0.15218642777E+02 -0.13023479724E+03  0.13756771879E+03  0.00000000000E+00 0.  1.
         13    1    3    3    0    0 -0.43021577919E+02 -0.16507911955E+02 -0.11138867988E+03  0.12054379009E+03  0.00000000000E+00 0. -1.
         21    1    1    2  502  503  0.14286221471E+02 -0.16741372412E+02 -0.17011747329E+01  0.22074049688E+02  0.00000000000E+00 0. -1.
         21    1    1    2  503  501  0.12810413033E+02 -0.17285327687E+02 -0.11026921102E+03  0.11234851193E+03  0.00000000000E+00 0.  1.
<scales pt_clust_5="13000.00000" pt_clust_6="13000.00000" pt_clust_7="13000.00000" pt_clust_8="13000.00000" pt_clust_9="22.48126" pt_clust_10="21.51486"></scales>
<clustering>
<clus scale="   21.515">  2 10  1 -1</clus>
<clus scale="   22.481">  1  9  2 -1</clus>
<clus scale="   90.753">  7  8 -1 -1</clus>
<clus scale="   93.148">  2  7  1 -1</clus>
<clus scale="   94.797">  5  6 -1 -1</clus>
<clus scale="   22.481">  1  5  2 -1</clus>
</clustering>
</event>
<event>
10    2  0.2445576E-006  0.1065759E+03  0.7546771E-02  0.1267806E+00
          1   -1    0    0  503    0  0.00000000000E+00  0.00000000000E+00  0.55669917079E+03  0.55669917079E+03  0.00000000000E+00 0. -1.
         -1   -1    0    0    0  501 -0.00000000000E+00 -0.00000000000E+00 -0.55835295013E+02  0.55835295013E+02  0.00000000000E+00 0.  1.
         23    2    1    2    0    0  0.74844497363E+01 -0.53747170997E+02  0.19380305802E+03  0.22044059944E+03  0.89942521680E+02 0.  0.
         23    2    1    2    0    0 -0.42493786894E+02  0.42133949599E+02  0.23500122853E+03  0.25928125722E+03  0.91761654837E+02 0.  0.
        -11    1    4    4    0    0 -0.69612946397E+02  0.15698486549E+02  0.16269897712E+03  0.17766080587E+03  0.00000000000E+00 0.  1.
         11    1    4    4    0    0  0.27119159504E+02  0.26435463049E+02  0.72302251415E+02  0.81620451350E+02  0.00000000000E+00 0. -1.
        -13    1    3    3    0    0 -0.24138241214E+02 -0.46185068559E+02  0.47315551308E+02  0.70388043319E+02  0.00000000000E+00 0.  1.
         13    1    3    3    0    0  0.31622690951E+02 -0.75621024379E+01  0.14648750671E+03  0.15005255612E+03  0.00000000000E+00 0. -1.
         21    1    1    2  502  501 -0.36120856771E+02 -0.93886329140E+01  0.26472872819E+02  0.45756701336E+02  0.00000000000E+00 0.  1.
         21    1    1    2  503  502  0.71130193928E+02  0.21001854312E+02  0.45586716414E+02  0.87055907819E+02  0.00000000000E+00 0. -1.
<scales pt_clust_5="13000.00000" pt_clust_6="13000.00000" pt_clust_7="13000.00000" pt_clust_8="13000.00000" pt_clust_9="37.32108" pt_clust_10="57.42543"></scales>
<clustering>
<clus scale="   37.321">  2  9  1 -1</clus>
<clus scale="   57.425">  2 10  1 -1</clus>
<clus scale="   89.943">  7  8 -1 -1</clus>
<clus scale="   91.762">  5  6 -1 -1</clus>
<clus scale="  105.014">  2  7  1 -1</clus>
<clus scale="  106.576">  1  5  2 -1</clus>
</clustering>
</event>
<event>
10    2  0.2445576E-006  0.1730756E+03  0.7546771E-02  0.1186807E+00
          3   -1    0    0  502    0  0.00000000000E+00  0.00000000000E+00  0.40423059765E+03  0.40423059765E+03  0.00000000000E+00 0. -1.
         -3   -1    0    0    0  501 -0.00000000000E+00 -0.00000000000E+00 -0.10497252724E+04  0.10497252724E+04  0.00000000000E+00 0.  1.
         23    2    1    2    0    0  0.36540319266E+02  0.14993492914E+03 -0.85312832223E+03  0.87209332465E+03  0.94356530242E+02 0.  0.
         23    2    1    2    0    0 -0.82811367746E+02  0.34590297085E+02  0.82782754331E+01  0.12768619230E+03  0.90449005409E+02 0.  0.
        -11    1    4    4    0    0 -0.16690329393E+02 -0.29071559014E+02  0.12564597343E+02  0.35799326044E+02  0.00000000000E+00 0. -1.
         11    1    4    4    0    0 -0.66121038353E+02  0.63661856099E+02 -0.42863219102E+01  0.91886866256E+02  0.00000000000E+00 0.  1.
        -13    1    3    3    0    0  0.37629479793E+02  0.75133729361E+01 -0.17033185181E+03  0.17460059640E+03  0.00000000000E+00 0. -1.
         13    1    3    3    0    0 -0.10891605275E+01  0.14242155621E+03 -0.68279647042E+03  0.69749272825E+03  0.00000000000E+00 0.  1.
         21    1    1    2  502  503 -0.22345120608E+02 -0.63871719045E+02  0.28376731575E+03  0.29172382556E+03  0.00000000000E+00 0. -1.
         21    1    1    2  503  501  0.68616169088E+02 -0.12065350718E+03 -0.84411943670E+02  0.16245252750E+03  0.00000000000E+00 0.  1.
<scales pt_clust_5="13000.00000" pt_clust_6="13000.00000" pt_clust_7="13000.00000" pt_clust_8="13000.00000" pt_clust_9="67.66758" pt_clust_10="145.09316"></scales>
<clustering>
<clus scale="   67.668">  1  9  2 -1</clus>
<clus scale="   90.449">  5  6 -1 -1</clus>
<clus scale="   94.357">  7  8 -1 -1</clus>
<clus scale="  131.818">  1  5  2 -1</clus>
<clus scale="  145.093">  1 10  2 -1</clus>
<clus scale="   67.668">  1  5  2 -1</clus>
</clustering>
</event>
<event>
10    2  0.2445576E-006  0.1002658E+03  0.7546771E-02  0.1280500E+00
          3   -1    0    0  502    0  0.00000000000E+00  0.00000000000E+00  0.47427687523E+03  0.47427687523E+03  0.00000000000E+00 0. -1.
         -3   -1    0    0    0  501 -0.00000000000E+00 -0.00000000000E+00 -0.13087527313E+03  0.13087527313E+03  0.00000000000E+00 0.  1.
         23    2    1    2    0    0 -0.49713115049E+02  0.24538534778E+02 -0.56292812596E+02  0.12050453404E+03  0.90988617295E+02 0.  0.
         23    2    1    2    0    0 -0.66884718119E+01  0.33273967243E+02  0.86352167801E+02  0.13105230282E+03  0.92553317815E+02 0.  0.
        -11    1    3    3    0    0 -0.73322188541E+02  0.34215977289E+02 -0.40325598958E+02  0.90404813841E+02  0.00000000000E+00 0.  1.
         11    1    3    3    0    0  0.23609073492E+02 -0.96774425109E+01 -0.15967213638E+02  0.30099720199E+02  0.00000000000E+00 0. -1.
        -13    1    4    4    0    0  0.59150434180E+01  0.64129562344E+02  0.64805738713E+02  0.91363955010E+02  0.00000000000E+00 0.  1.
         13    1    4    4    0    0 -0.12603515230E+02 -0.30855595101E+02  0.21546429089E+02  0.39688347807E+02  0.00000000000E+00 0. -1.
         21    1    1    2  502  503  0.16679306243E+02  0.47468021523E+02  0.11568665740E+03  0.12615393385E+03  0.00000000000E+00 0. -1.
         21    1    1    2  503  501  0.39722280618E+02 -0.10528052354E+03  0.19765558948E+03  0.22744137765E+03  0.00000000000E+00 0. -1.
<scales pt_clust_5="13000.00000" pt_clust_6="13000.00000" pt_clust_7="13000.00000" pt_clust_8="13000.00000" pt_clust_9="50.31314" pt_clust_10="91.44802"></scales>
<clustering>
<clus scale="   50.313">  1  9  2 -1</clus>
<clus scale="   90.989">  5  6 -1 -1</clus>
<clus scale="   91.448">  1 10  2 -1</clus>
<clus scale="   92.553">  7  8 -1 -1</clus>
<clus scale="   98.823">  2  5  1 -1</clus>
<clus scale="   50.313">  1  5  2 -1</clus>
</clustering>
</event>
<event>
10    2  0.2445576E-006  0.9704759E+02  0.7546771E-02  0.1287589E+00
         -3   -1    0    0    0  501 -0.00000000000E+00  0.00000000000E+00  0.11637610551E+03  0.11637610551E+03  0.00000000000E+00 0.  1.
          3   -1    0    0  502    0  0.00000000000E+00 -0.00000000000E+00 -0.49143475598E+03  0.49143475598E+03  0.00000000000E+00 0. -1.
         23    2    1    2    0    0 -0.23848232120E+01 -0.50330279119E+02  0.41584676435E+02  0.11127221207E+03  0.90074388629E+02 0.  0.
         23    2    1    2    0    0  0.40729108288E+02  0.21500678278E+01 -0.17971167138E+03  0.20592979296E+03  0.91909258198E+02 0.  0.
        -11    1    3    3    0    0  0.26939285727E+02 -0.49397480796E+02  0.55294553178E+02  0.78888046215E+02  0.00000000000E+00 0.  1.
         11    1    3    3    0    0 -0.29324108939E+02 -0.93279832298E+00 -0.13709876743E+02  0.32384165855E+02  0.00000000000E+00 0. -1.
        -11    1    4    4    0    0  0.50570542906E+02 -0.30462379356E+02 -0.14819533512E+03  0.15952176566E+03  0.00000000000E+00 0.  1.
         11    1    4    4    0    0 -0.98414346178E+01  0.32612447184E+02 -0.31516336257E+02  0.46408027299E+02  0.00000000000E+00 0. -1.
         21    1    1    2  502  503 -0.23723288761E+02  0.22603470800E+02 -0.25430465619E+03  0.25640703868E+03  0.00000000000E+00 0. -1.
         21    1    1    2  503  501 -0.14620996315E+02  0.25576740491E+02  0.17373000673E+02  0.34201817784E+02  0.00000000000E+00 0. -1.
<scales pt_clust_5="13000.00000" pt_clust_6="13000.00000" pt_clust_7="13000.00000" pt_clust_8="13000.00000" pt_clust_9="33.09524" pt_clust_10="29.46088"></scales>
<clustering>
<clus scale="   29.461">  1 10  2 -1</clus>
<clus scale="   33.095">  2  9  1 -1</clus>
<clus scale="   90.074">  5  6 -1 -1</clus>
<clus scale="   91.909">  7  8 -1 -1</clus>
<clus scale="   95.312">  1  5  2 -1</clus>
<clus scale="   33.095">  2  5  1 -1</clus>
</clustering>
</event>
<event>
10    2  0.2445576E-006  0.1364153E+03  0.7546771E-02  0.1218355E+00
          1   -1    0    0  502    0  0.00000000000E+00  0.00000000000E+00  0.42007716910E+03  0.42007716910E+03  0.00000000000E+00 0. -1.
         -1   -1    0    0    0  501 -0.00000000000E+00 -0.00000000000E+00 -0.20368950817E+03  0.20368950817E+03  0.00000000000E+00 0.  1.
         23    2    1    2    0    0 -0.16987983395E+02  0.77392074567E+02 -0.57833987004E+02  0.13467326256E+03  0.92271300041E+02 0.  0.
         23    2    1    2    0    0  0.13369928675E+02 -0.12101448790E+03  0.24598304547E+03  0.28939897396E+03  0.91765168772E+02 0.  0.
        -13    1    4    4    0    0 -0.15116541747E+02 -0.13675288863E+02  0.98753173878E+00  0.20408296813E+02  0.00000000000E+00 0.  1.
         13    1    4    4    0    0  0.28486470422E+02 -0.10733919904E+03  0.24499551373E+03  0.26899067715E+03  0.00000000000E+00 0. -1.
        -13    1    3    3    0    0  0.31737094394E+02  0.23977074843E+02  0.34076046577E+01  0.39921861782E+02  0.00000000000E+00 0. -1.
         13    1    3    3    0    0 -0.48725077788E+02  0.53414999723E+02 -0.61241591662E+02  0.94751400782E+02  0.00000000000E+00 0.  1.
         21    1    1    2  502  503  0.49242836589E+01  0.21145621043E+02  0.11142216684E+03  0.11351777448E+03  0.00000000000E+00 0.  1.
         21    1    1    2  503  501 -0.13062289396E+01  0.22476792290E+02 -0.83183564377E+02  0.86176666263E+02  0.00000000000E+00 0.  1.
<scales pt_clust_5="13000.00000" pt_clust_6="13000.00000" pt_clust_7="13000.00000" pt_clust_8="13000.00000" pt_clust_9="21.71142" pt_clust_10="22.61605"></scales>
<clustering>
<clus scale="   21.711">  1  9  2 -1</clus>
<clus scale="   22.616">  2 10  1 -1</clus>
<clus scale="   91.765">  5  6 -1 -1</clus>
<clus scale="   92.271">  7  8 -1 -1</clus>
<clus scale="  136.073">  1  5  2 -1</clus>
<clus scale="   21.711">  1  5  2 -1</clus>
</clustering>
</event>
<event>
10    2  0.2445576E-006  0.1761185E+03  0.7546771E-02  0.1171739E+00
          4   -1    0    0  502    0  0.00000000000E+00  0.00000000000E+00  0.54629846160E+03  0.54629846160E+03  0.00000000000E+00 0. -1.
         -4   -1    0    0    0  501 -0.00000000000E+00 -0.00000000000E+00 -0.11532183683E+03  0.11532183683E+03  0.00000000000E+00 0.  1.
         23    2    1    2    0    0 -0.11384767707E+03 -0.66385823283E+02  0.89814399453E+02  0.18392632052E+03  0.91618196457E+02 0.  0.
         23    2    1    2    0    0  0.13548796447E+03  0.84440739159E+02  0.31622485919E+03  0.36565303120E+03  0.90646294527E+02 0.  0.
        -13    1    3    3    0    0 -0.24173127196E+02 -0.14608546635E+02  0.73961156163E+02  0.79170716393E+02  0.00000000000E+00 0. -1.
         13    1    3    3    0    0 -0.89674549877E+02 -0.51777276647E+02  0.15853243291E+02  0.10475560412E+03  0.00000000000E+00 0.  1.
        -13    1    4    4    0    0  0.14128243540E+03  0.52504016320E+02  0.26902994227E+03  0.30837397445E+03  0.00000000000E+00 0. -1.
         13    1    4    4    0    0 -0.57944709286E+01  0.31936722838E+02  0.47194916923E+02  0.57279056751E+02  0.00000000000E+00 0.  1.
         21    1    1    2  502  503 -0.10518128534E+02  0.20394644628E+02  0.56555338844E+02  0.61033424524E+02  0.00000000000E+00 0.  1.
         21    1    1    2  503  501 -0.11122158865E+02 -0.38449560504E+02 -0.31617972720E+02  0.51007522187E+02  0.00000000000E+00 0. -1.
<scales pt_clust_5="13000.00000" pt_clust_6="13000.00000" pt_clust_7="13000.00000" pt_clust_8="13000.00000" pt_clust_9="22.94717" pt_clust_10="39.69564"></scales>
<clustering>
<clus scale="   22.947">  1  9  2 -1</clus>
<clus scale="   39.696">  2 10  1 -1</clus>
<clus scale="   90.646">  7  8 -1 -1</clus>
<clus scale="   91.618">  5  6 -1 -1</clus>
<clus scale="  175.615">  1  7  2 -1</clus>
<clus scale="   22.947">  1  5  2 -1</clus>
</clustering>
</event>
<event>
10    2  0.2445576E-006  0.3193046E+03  0.7546771E-02  0.1075986E+00
         -1   -1    0    0    0  501 -0.00000000000E+00  0.00000000000E+00  0.10055547860E+03  0.10055547860E+03  0.00000000000E+00 0.  1.
          1   -1    0    0  502    0  0.00000000000E+00 -0.00000000000E+00 -0.22020021184E+04  0.22020021184E+04  0.00000000000E+00 0. -1.
         23    2    1    2    0    0 -0.23501316401E+02 -0.30651038646E+03 -0.72729921934E+03  0.79498399055E+03  0.92382151482E+02 0.  0.
         23    2    1    2    0    0  0.16836679887E+02  0.30402905180E+03 -0.13676654482E+04  0.14042258010E+04  0.92866484110E+02 0.  0.
        -11    1    3    3    0    0 -0.35906747393E+02 -0.46353604286E+02 -0.16999110500E+03  0.17981915058E+03  0.00000000000E+00 0.  1.
         11    1    3    3    0    0  0.12405430993E+02 -0.26015678217E+03 -0.55730811434E+03  0.61516483997E+03  0.00000000000E+00 0. -1.
        -11    1    4    4    0    0  0.35631352555E+02  0.29240352463E+03 -0.13032446499E+04  0.13361197670E+04  0.00000000000E+00 0.  1.
         11    1    4    4    0    0 -0.18794672668E+02  0.11625527171E+02 -0.64420798387E+02  0.68106034003E+02  0.00000000000E+00 0. -1.
         21    1    1    2  502  503  0.15156500877E+02  0.24726691362E+02 -0.47654369344E+02  0.55785909531E+02  0.00000000000E+00 0. -1.
         21    1    1    2  503  501 -0.84918643638E+01 -0.22245356711E+02  0.41172397112E+02  0.47561895878E+02  0.00000000000E+00 0.  1.
<scales pt_clust_5="13000.00000" pt_clust_6="13000.00000" pt_clust_7="13000.00000" pt_clust_8="13000.00000" pt_clust_9="27.31058" pt_clust_10="23.81108"></scales>
<clustering>
<clus scale="   23.811">  1 10  2 -1</clus>
<clus scale="   27.311">  1  9  2 -1</clus>
<clus scale="   92.382">  5  6 -1 -1</clus>
<clus scale="   92.866">  7  8 -1 -1</clus>
<clus scale="  319.164">  1  5  2 -1</clus>
<clus scale="  319.305">  2  5  1 -1</clus>
</clustering>
</event>
<event>
10    2  0.2445576E-006  0.9934011E+02  0.7546771E-02  0.1282560E+00
         -1   -1    0    0    0  501 -0.00000000000E+00  0.00000000000E+00  0.16156240791E+03  0.16156240791E+03  0.00000000000E+00 0.  1.
          1   -1    0    0  502    0  0.00000000000E+00 -0.00000000000E+00 -0.30105907279E+03  0.30105907279E+03  0.00000000000E+00 0. -1.
         23    2    1    2    0    0 -0.44598444125E+02  0.13369373504E+02  0.58685111908E+02  0.11637419474E+03  0.89057562709E+02 0.  0.
         23    2    1    2    0    0  0.80540485291E+02 -0.31564493124E+02 -0.91330181850E+02  0.15516441241E+03  0.90838900061E+02 0.  0.
        -13    1    3    3    0    0 -0.24076273853E+02 -0.34966001334E+02  0.76287362445E+01  0.43133349379E+02  0.00000000000E+00 0. -1.
         13    1    3    3    0    0 -0.20522170272E+02  0.48335374838E+02  0.51056375663E+02  0.73240845362E+02  0.00000000000E+00 0.  1.
        -13    1    4    4    0    0  0.61816715410E+02  0.13238149540E+02 -0.15452300810E+02  0.65079401561E+02  0.00000000000E+00 0.  1.
         13    1    4    4    0    0  0.18723769881E+02 -0.44802642664E+02 -0.75877881040E+02  0.90085010847E+02  0.00000000000E+00 0. -1.
         21    1    1    2  502  503 -0.59675129174E+02  0.31325657535E+02 -0.13568200345E+03  0.15149925387E+03  0.00000000000E+00 0.  1.
         21    1    1    2  503  501  0.23733088008E+02 -0.13130537915E+02  0.28830408515E+02  0.39583619686E+02  0.00000000000E+00 0. -1.
<scales pt_clust_5="13000.00000" pt_clust_6="13000.00000" pt_clust_7="13000.00000" pt_clust_8="13000.00000" pt_clust_9="65.71355" pt_clust_10="27.12325"></scales>
<clustering>
<clus scale="   27.123">  1 10  2 -1</clus>
<clus scale="   65.714">  2  9  1 -1</clus>
<clus scale="   89.058">  5  6 -1 -1</clus>
<clus scale="   90.839">  7  8 -1 -1</clus>
<clus scale="   97.714">  1  5  2 -1</clus>
<clus scale="   65.714">  2  5  1 -1</clus>
</clustering>
</event>
<event>
10    2  0.2445576E-006  0.9818439E+02  0.7546771E-02  0.1284925E+00
          2   -1    0    0  502    0  0.00000000000E+00  0.00000000000E+00  0.39249071636E+03  0.39249071636E+03  0.00000000000E+00 0. -1.
         -2   -1    0    0    0  501 -0.00000000000E+00 -0.00000000000E+00 -0.35400237043E+03  0.35400237043E+03  0.00000000000E+00 0.  1.
         23    2    1    2    0    0 -0.65768708733E+02  0.69411730079E+00 -0.13456370071E+03  0.17572122051E+03  0.91894248681E+02 0.  0.
         23    2    1    2    0    0  0.44081218546E+02 -0.23793185687E+02  0.29665994673E+03  0.31414395252E+03  0.90388214919E+02 0.  0.
        -11    1    4    4    0    0 -0.26591040264E+01 -0.41246549977E+02  0.63940137055E+02  0.76135995731E+02  0.00000000000E+00 0.  1.
         11    1    4    4    0    0  0.46740322573E+02  0.17453364290E+02  0.23271980967E+03  0.23800795679E+03  0.00000000000E+00 0. -1.
        -13    1    3    3    0    0 -0.38929118819E+02 -0.88073205129E+01 -0.14099220774E+03  0.14653275344E+03  0.00000000000E+00 0.  1.
         13    1    3    3    0    0 -0.26839589914E+02  0.95014378137E+01  0.64285070295E+01  0.29188467070E+02  0.00000000000E+00 0. -1.
         21    1    1    2  502  503 -0.12589844552E+02  0.24723812227E+02  0.61973476640E+02  0.67900536697E+02  0.00000000000E+00 0.  1.
         21    1    1    2  503  501  0.34277334738E+02 -0.16247438403E+01 -0.18558137673E+03  0.18872737707E+03  0.00000000000E+00 0.  1.
<scales pt_clust_5="13000.00000" pt_clust_6="13000.00000" pt_clust_7="13000.00000" pt_clust_8="13000.00000" pt_clust_9="27.74475" pt_clust_10="34.25000"></scales>
<clustering>
<clus scale="   27.745">  1  9  2 -1</clus>
<clus scale="   34.250">  2 10  1 -1</clus>
<clus scale="   90.388">  5  6 -1 -1</clus>
<clus scale="   91.894">  7  8 -1 -1</clus>
<clus scale="   96.776">  1  5  2 -1</clus>
<clus scale="   27.745">  1  5  2 -1</clus>
</clustering>
</event>
<event>
10    2  0.2445576E-006  0.9518297E+02  0.7546771E-02  0.1291845E+00
          1   -1    0    0  502    0  0.00000000000E+00  0.00000000000E+00  0.12132264331E+03  0.12132264331E+03  0.00000000000E+00 0. -1.
         -1   -1    0    0    0  501 -0.00000000000E+00 -0.00000000000E+00 -0.12720525807E+03  0.12720525807E+03  0.00000000000E+00 0.  1.
         23    2    1    2    0    0  0.45796842319E+02 -0.11164202362E+01 -0.14099938621E+02  0.10139348964E+03  0.89348946903E+02 0.  0.
         23    2    1    2    0    0 -0.61200866045E+01  0.23683751254E+02  0.12652311983E+02  0.95395789027E+02  0.91334002606E+02 0.  0.
        -11    1    4    4    0    0 -0.37490260892E+02 -0.18090175399E+02  0.11316646396E+02  0.43137461601E+02  0.00000000000E+00 0.  1.
         11    1    4    4    0    0  0.31370174288E+02  0.41773926653E+02  0.13356655869E+01  0.52258327426E+02  0.00000000000E+00 0. -1.
        -13    1    3    3    0    0 -0.24748204174E+02  0.12875625145E+02  0.96258079839E+00  0.27913829807E+02  0.00000000000E+00 0.  1.
         13    1    3    3    0    0  0.70545046493E+02 -0.13992045382E+02 -0.15062519420E+02  0.73479659838E+02  0.00000000000E+00 0. -1.
         21    1    1    2  502  503 -0.10632095857E+02 -0.19434872406E+02  0.23716016256E+00  0.22154276623E+02  0.00000000000E+00 0.  1.
         21    1    1    2  503  501 -0.29044659857E+02 -0.31324586116E+01 -0.46721482840E+01  0.29584346076E+02  0.00000000000E+00 0.  1.
<scales pt_clust_5="13000.00000" pt_clust_6="13000.00000" pt_clust_7="13000.00000" pt_clust_8="13000.00000" pt_clust_9="20.85763" pt_clust_10="51.54819"></scales>
<clustering>
<clus scale="   20.858">  9 10 -1 -1</clus>
<clus scale="   51.548">  2  9  1 -1</clus>
<clus scale="   89.349">  7  8 -1 -1</clus>
<clus scale="   91.334">  5  6 -1 -1</clus>
<clus scale="   93.280">  2  7  1 -1</clus>
<clus scale="   95.183">  1  5  2 -1</clus>
</clustering>
</event>
<event>
10    2  0.2445576E-006  0.1114408E+03  0.7546771E-02  0.1259070E+00
          1   -1    0    0  502    0  0.00000000000E+00  0.00000000000E+00  0.25984787157E+03  0.25984787157E+03  0.00000000000E+00 0. -1.
         -1   -1    0    0    0  501 -0.00000000000E+00 -0.00000000000E+00 -0.18775012040E+03  0.18775012040E+03  0.00000000000E+00 0.  1.
         23    2    1    2    0    0 -0.48297672992E+01 -0.73655925324E+02  0.97408079193E+02  0.15336332142E+03  0.92646923729E+02 0.  0.
         23    2    1    2    0    0 -0.38554632846E+02  0.45949483246E+02  0.83371684940E+02  0.13632299361E+03  0.89639868435E+02 0.  0.
        -13    1    4    4    0    0 -0.50601112930E+01  0.55272343923E+02  0.11786208173E+02  0.56741091214E+02  0.00000000000E+00 0.  1.
         13    1    4    4    0    0 -0.33494521553E+02 -0.93228606766E+01  0.71585476767E+02  0.79581902398E+02  0.00000000000E+00 0. -1.
        -13    1    3    3    0    0  0.24423211172E+02 -0.73181871715E+02  0.97212042748E+02  0.12410584534E+03  0.00000000000E+00 0. -1.
         13    1    3    3    0    0 -0.29252978471E+02 -0.47405360860E+00  0.19603644519E+00  0.29257476080E+02  0.00000000000E+00 0.  1.
         21    1    1    2  502  503  0.21955649712E+02  0.47837123258E+01  0.17123707480E+02  0.28251651558E+02  0.00000000000E+00 0.  1.
         21    1    1    2  503  501  0.21428750434E+02  0.22922729752E+02 -0.12580572044E+03  0.12966002538E+03  0.00000000000E+00 0.  1.
<scales pt_clust_5="13000.00000" pt_clust_6="13000.00000" pt_clust_7="13000.00000" pt_clust_8="13000.00000" pt_clust_9="22.47075" pt_clust_10="31.52942"></scales>
<clustering>
<clus scale="   22.471">  1  9  2 -1</clus>
<clus scale="   31.529">  2 10  1 -1</clus>
<clus scale="   89.640">  5  6 -1 -1</clus>
<clus scale="   92.647">  7  8 -1 -1</clus>
<clus scale="  108.954">  1  5  2 -1</clus>
<clus scale="   22.471">  1  5  2 -1</clus>
</clustering>
</event>
<event>
10    2  0.2445576E-006  0.1666221E+03  0.7546771E-02  0.1182069E+00
          2   -1    0    0  502    0  0.00000000000E+00  0.00000000000E+00  0.49443508661E+03  0.49443508661E+03  0.00000000000E+00 0. -1.
         -2   -1    0    0    0  501 -0.00000000000E+00 -0.00000000000E+00 -0.15484925555E+03  0.15484925555E+03  0.00000000000E+00 0.  1.
         23    2    1    2    0    0 -0.12245249580E+03 -0.74373274651E+02 -0.14306329762E+02  0.17136218447E+03  0.92921092786E+02 0.  0.
         23    2    1    2    0    0  0.14599229054E+03 -0.16702255685E+02  0.29926718747E+03  0.34494668261E+03  0.88513558876E+02 0.  0.
        -11    1    4    4    0    0  0.60263189070E+02 -0.45090437371E+01  0.42254581099E+02  0.73738952095E+02  0.00000000000E+00 0.  1.
         11    1    4    4    0    0  0.85729101467E+02 -0.12193211948E+02  0.25701260637E+03  0.27120773052E+03  0.00000000000E+00 0. -1.
        -11    1    3    3    0    0 -0.33311331637E+01 -0.48720972301E+02 -0.64233010290E+01  0.49255338657E+02  0.00000000000E+00 0. -1.
         11    1    3    3    0    0 -0.11912136263E+03 -0.25652302350E+02 -0.78830287333E+01  0.12210684581E+03  0.00000000000E+00 0.  1.
         21    1    1    2  502  503 -0.82612668478E+01  0.36883060981E+02  0.65506337014E+02  0.75628624913E+02  0.00000000000E+00 0.  1.
         21    1    1    2  503  501 -0.15278527892E+02  0.54192469355E+02 -0.10881363672E+02  0.57346850173E+02  0.00000000000E+00 0.  1.
<scales pt_clust_5="13000.00000" pt_clust_6="13000.00000" pt_clust_7="13000.00000" pt_clust_8="13000.00000" pt_clust_9="37.79694" pt_clust_10="58.37378"></scales>
<clustering>
<clus scale="   37.797">  1  9  2 -1</clus>
<clus scale="   58.374">  2 10  1 -1</clus>
<clus scale="   88.514">  5  6 -1 -1</clus>
<clus scale="   92.921">  7  8 -1 -1</clus>
<clus scale="  164.205">  1  5  2 -1</clus>
<clus scale="   37.797">  1  5  2 -1</clus>
</clustering>
</event>
<event>
10    2  0.2445576E-006  0.9825249E+02  0.7546771E-02  0.1284084E+00
         -1   -1    0    0    0  501 -0.00000000000E+00  0.00000000000E+00  0.82395697703E+02  0.82395697703E+02  0.00000000000E+00 0.  1.
          1   -1    0    0  503    0  0.00000000000E+00 -0.00000000000E+00 -0.34143160511E+03  0.34143160511E+03  0.00000000000E+00 0. -1.
         23    2    1    2    0    0  0.23308932097E+02  0.26541862502E+02 -0.70172303822E+01  0.97597169368E+02  0.90709366473E+02 0.  0.
         23    2    1    2    0    0  0.61703006367E+01 -0.51532327894E+02 -0.77168524595E+02  0.13000870974E+03  0.90849490876E+02 0.  0.
        -11    1    4    4    0    0  0.35933984431E+02 -0.43048177595E+02 -0.81323131833E+02  0.98781823239E+02  0.00000000000E+00 0.  1.
         11    1    4    4    0    0 -0.29763683794E+02 -0.84841502993E+01  0.41546072383E+01  0.31226886502E+02  0.00000000000E+00 0. -1.
        -13    1    3    3    0    0  0.50737061386E+02  0.28862105594E+02  0.17285963875E+02  0.60877541709E+02  0.00000000000E+00 0.  1.
         13    1    3    3    0    0 -0.27428129290E+02 -0.23202430922E+01 -0.24303194257E+02  0.36719627659E+02  0.00000000000E+00 0. -1.
         21    1    1    2  502  501 -0.44045872547E+02 -0.55252286965E+01 -0.14313825456E+03  0.14986369460E+03  0.00000000000E+00 0. -1.
         21    1    1    2  503  502  0.14566639814E+02  0.30515694089E+02 -0.31711897871E+02  0.46357729105E+02  0.00000000000E+00 0.  1.
<scales pt_clust_5="13000.00000" pt_clust_6="13000.00000" pt_clust_7="13000.00000" pt_clust_8="13000.00000" pt_clust_9="38.12998" pt_clust_10="33.81412"></scales>
<clustering>
<clus scale="   33.814">  2 10  1 -1</clus>
<clus scale="   38.130">  2  9  1 -1</clus>
<clus scale="   90.709">  7  8 -1 -1</clus>
<clus scale="   90.849">  5  6 -1 -1</clus>
<clus scale="   98.123">  1  7  2 -1</clus>
<clus scale="   33.814">  2  5  1 -1</clus>
</clustering>
</event>
<event>
10    2  0.2445576E-006  0.2163553E+03  0.7546771E-02  0.1164840E+00
          2   -1    0    0  502    0  0.00000000000E+00  0.00000000000E+00  0.80624850071E+03  0.80624850071E+03  0.00000000000E+00 0. -1.
         -2   -1    0    0    0  501 -0.00000000000E+00 -0.00000000000E+00 -0.27376768887E+03  0.27376768887E+03  0.00000000000E+00 0.  1.
         23    2    1    2    0    0 -0.17018820764E+03 -0.16028184758E+03  0.51012674960E+03  0.56997640708E+03  0.99947522696E+02 0.  0.
         23    2    1    2    0    0  0.58489658700E+02  0.35466494851E+01  0.11927490987E+03  0.16155502257E+03  0.91868940874E+02 0.  0.
        -11    1    4    4    0    0  0.42158055516E+02 -0.37377985906E+02  0.34645274018E+02  0.66141594229E+02  0.00000000000E+00 0.  1.
         11    1    4    4    0    0  0.16331603184E+02  0.40924635391E+02  0.84629635849E+02  0.95413428344E+02  0.00000000000E+00 0. -1.
        -11    1    3    3    0    0 -0.13621039712E+03 -0.61032848016E+02  0.29214866765E+03  0.32806878064E+03  0.00000000000E+00 0. -1.
         11    1    3    3    0    0 -0.33977810519E+02 -0.99248999561E+02  0.21797808194E+03  0.24190762644E+03  0.00000000000E+00 0.  1.
         21    1    1    2  502  503  0.19142197996E+02 -0.86047504106E+01  0.83950181325E+02  0.86533799283E+02  0.00000000000E+00 0. -1.
         21    1    1    2  503  501  0.92556350944E+02  0.16533994850E+03 -0.18087102895E+03  0.26195096065E+03  0.00000000000E+00 0.  1.
<scales pt_clust_5="13000.00000" pt_clust_6="13000.00000" pt_clust_7="13000.00000" pt_clust_8="13000.00000" pt_clust_9="20.98727" pt_clust_10="191.88572"></scales>
<clustering>
<clus scale="   20.987">  1  9  2 -1</clus>
<clus scale="   91.869">  5  6 -1 -1</clus>
<clus scale="   99.948">  7  8 -1 -1</clus>
<clus scale="  110.970">  1  5  2 -1</clus>
<clus scale="  191.886">  2 10  1 -1</clus>
<clus scale="   20.987">  1  5  2 -1</clus>
</clustering>
</event>
<event>
10    2  0.2445576E-006  0.1227004E+03  0.7546771E-02  0.1240253E+00
          2   -1    0    0  502    0  0.00000000000E+00  0.00000000000E+00  0.51424093125E+03  0.51424093125E+03  0.00000000000E+00 0. -1.
         -2   -1    0    0    0  501 -0.00000000000E+00 -0.00000000000E+00 -0.11203970066E+03  0.11203970066E+03  0.00000000000E+00 0.  1.
         23    2    1    2    0    0  0.77897571721E+02  0.25113182364E+02  0.47165349585E+02  0.13054503430E+03  0.90104007516E+02 0.  0.
         23    2    1    2    0    0 -0.90628734290E+02 -0.58168983769E+02  0.30108160310E+03  0.33359085694E+03  0.95055404641E+02 0.  0.
        -11    1    3    3    0    0  0.22541441378E+02  0.26594050692E+02  0.63818075167E+02  0.72719370388E+02  0.00000000000E+00 0.  1.
         11    1    3    3    0    0  0.55356130343E+02 -0.14808683276E+01 -0.16652725582E+02  0.57825663912E+02  0.00000000000E+00 0. -1.
        -11    1    4    4    0    0 -0.18749607740E+02 -0.35287800264E+02  0.21692765063E+03  0.22057738381E+03  0.00000000000E+00 0. -1.
         11    1    4    4    0    0 -0.71879126550E+02 -0.22881183505E+02  0.84153952473E+02  0.11301347313E+03  0.00000000000E+00 0.  1.
         21    1    1    2  502  503  0.34870606165E+02  0.27771738771E+02  0.10071441306E+03  0.11013910135E+03  0.00000000000E+00 0. -1.
         21    1    1    2  503  501 -0.22139443596E+02  0.52840626340E+01 -0.46760135161E+02  0.52005639319E+02  0.00000000000E+00 0.  1.
<scales pt_clust_5="13000.00000" pt_clust_6="13000.00000" pt_clust_7="13000.00000" pt_clust_8="13000.00000" pt_clust_9="43.54432" pt_clust_10="22.76129"></scales>
<clustering>
<clus scale="   22.761">  2 10  1 -1</clus>
<clus scale="   43.544">  1  9  2 -1</clus>
<clus scale="   90.104">  5  6 -1 -1</clus>
<clus scale="   95.055">  7  8 -1 -1</clus>
<clus scale="  118.906">  2  5  1 -1</clus>
<clus scale="   43.544">  1  5  2 -1</clus>
</clustering>
</event>
<event>
10    2  0.2445576E-006  0.1718857E+03  0.7546771E-02  0.1194748E+00
          2   -1    0    0  502    0  0.00000000000E+00  0.00000000000E+00  0.66106952303E+03  0.66106952303E+03  0.00000000000E+00 0. -1.
         -2   -1    0    0    0  501 -0.00000000000E+00 -0.00000000000E+00 -0.37584744489E+03  0.37584744489E+03  0.00000000000E+00 0.  1.
         23    2    1    2    0    0  0.13707755305E+03 -0.21457474255E+01 -0.28348126467E+03  0.32763299531E+03  0.90481447894E+02 0.  0.
         23    2    1    2    0    0  0.17455023389E+02  0.65980981274E+02  0.18683266378E+03  0.21867143151E+03  0.90843728289E+02 0.  0.
        -11    1    3    3    0    0  0.72117789641E+02 -0.39072054411E+02 -0.98808848940E+02  0.12841646953E+03  0.00000000000E+00 0.  1.
         11    1    3    3    0    0  0.64959763408E+02  0.36926306986E+02 -0.18467241573E+03  0.19921652577E+03  0.00000000000E+00 0. -1.
        -11    1    4    4    0    0 -0.16173422837E+02  0.28702643213E+02  0.93822780039E+01  0.34255634197E+02  0.00000000000E+00 0.  1.
         11    1    4    4    0    0  0.33628446226E+02  0.37278338061E+02  0.17745038578E+03  0.18441579731E+03  0.00000000000E+00 0. -1.
         21    1    1    2  502  503 -0.16139424811E+03 -0.36958257979E+02  0.41534989199E+03  0.44713482187E+03  0.00000000000E+00 0. -1.
         21    1    1    2  503  501  0.68616716744E+01 -0.26876975870E+02 -0.33479212958E+02  0.43477719241E+02  0.00000000000E+00 0. -1.
<scales pt_clust_5="13000.00000" pt_clust_6="13000.00000" pt_clust_7="13000.00000" pt_clust_8="13000.00000" pt_clust_9="146.14305" pt_clust_10="27.73904"></scales>
<clustering>
<clus scale="   27.739">  2 10  1 -1</clus>
<clus scale="   90.481">  5  6 -1 -1</clus>
<clus scale="   90.844">  7  8 -1 -1</clus>
<clus scale="  112.944">  1  7  2 -1</clus>
<clus scale="  146.143">  1  9  2 -1</clus>
<clus scale="  112.944">  1  5  2 -1</clus>
</clustering>
</event>
<event>
10    2  0.2445576E-006  0.9288666E+02  0.7546771E-02  0.1298283E+00
          1   -1    0    0  502    0  0.00000000000E+00  0.00000000000E+00  0.11483740622E+03  0.11483740622E+03  0.00000000000E+00 0. -1.
         -1   -1    0    0    0  501 -0.00000000000E+00 -0.00000000000E+00 -0.29113154387E+03  0.29113154387E+03  0.00000000000E+00 0.  1.
         23    2    1    2    0    0 -0.71131984202E+02  0.25228919230E+02 -0.10177015604E+03  0.15627827423E+03  0.91484844617E+02 0.  0.
         23    2    1    2    0    0  0.86677939833E+01  0.77936049780E+00  0.18149587474E+02  0.89874689402E+02  0.87591747410E+02 0.  0.
        -13    1    4    4    0    0  0.40582542684E+02 -0.20605564516E+02  0.23270331097E+02  0.51117906541E+02  0.00000000000E+00 0. -1.
         13    1    4    4    0    0 -0.31914748701E+02  0.21384925014E+02 -0.51207436234E+01  0.38756782861E+02  0.00000000000E+00 0.  1.
        -13    1    3    3    0    0 -0.58913023580E+02  0.45021114667E+02 -0.10908205865E+03  0.13189594623E+03  0.00000000000E+00 0.  1.
         13    1    3    3    0    0 -0.12218960622E+02 -0.19792195438E+02  0.73119026096E+01  0.24382328000E+02  0.00000000000E+00 0. -1.
         21    1    1    2  502  503 -0.17863620130E+02  0.98863525724E+01  0.11521158994E+02  0.23443250540E+02  0.00000000000E+00 0.  1.
         21    1    1    2  503  501  0.80327810349E+02 -0.35894632300E+02 -0.10419472808E+03  0.13637273592E+03  0.00000000000E+00 0. -1.
<scales pt_clust_5="13000.00000" pt_clust_6="13000.00000" pt_clust_7="13000.00000" pt_clust_8="13000.00000" pt_clust_9="20.41688" pt_clust_10="84.62148"></scales>
<clustering>
<clus scale="   20.417">  1  9  2 -1</clus>
<clus scale="   84.621">  2 10  1 -1</clus>
<clus scale="   87.592">  5  6 -1 -1</clus>
<clus scale="   89.055">  1  5  2 -1</clus>
<clus scale="   91.485">  7  8 -1 -1</clus>
<clus scale="   20.417">  1  5  2 -1</clus>
</clustering>
</event>
<event>
10    2  0.2445576E-006  0.9349332E+02  0.7546771E-02  0.1295089E+00
          1   -1    0    0  503    0  0.00000000000E+00  0.00000000000E+00  0.10367882157E+03  0.10367882157E+03  0.00000000000E+00 0. -1.
         -1   -1    0    0    0  501 -0.00000000000E+00 -0.00000000000E+00 -0.25596833520E+03  0.25596833520E+03  0.00000000000E+00 0.  1.
         23    2    1    2    0    0 -0.45978582378E+01 -0.21820830078E+02 -0.13925141918E+03  0.16778993243E+03  0.90913226517E+02 0.  0.
         23    2    1    2    0    0  0.14025891436E+02  0.17081759546E+02  0.54131671695E+02  0.10737004174E+03  0.90053183411E+02 0.  0.
        -11    1    4    4    0    0 -0.30824694810E+02 -0.12253227070E+02  0.30125186469E+01  0.33307336314E+02  0.00000000000E+00 0.  1.
         11    1    4    4    0    0  0.44850586246E+02  0.29334986615E+02  0.51119153048E+02  0.74062705424E+02  0.00000000000E+00 0. -1.
        -11    1    3    3    0    0 -0.38265054814E+02  0.16177919022E+02 -0.76703766216E+02  0.87231916381E+02  0.00000000000E+00 0.  1.
         11    1    3    3    0    0  0.33667196577E+02 -0.37998749100E+02 -0.62547652959E+02  0.80558016045E+02  0.00000000000E+00 0. -1.
         21    1    1    2  502  501  0.20221612292E+02  0.33669468663E+00 -0.18980092050E+02  0.27735732571E+02  0.00000000000E+00 0. -1.
         21    1    1    2  503  502 -0.29649645490E+02  0.44023758457E+01 -0.48189674104E+02  0.56751450035E+02  0.00000000000E+00 0.  1.
<scales pt_clust_5="13000.00000" pt_clust_6="13000.00000" pt_clust_7="13000.00000" pt_clust_8="13000.00000" pt_clust_9="20.22442" pt_clust_10="25.48477"></scales>
<clustering>
<clus scale="   20.224">  2  9  1 -1</clus>
<clus scale="   25.485">  2 10  1 -1</clus>
<clus scale="   90.053">  5  6 -1 -1</clus>
<clus scale="   90.913">  7  8 -1 -1</clus>
<clus scale="   92.657">  1  5  2 -1</clus>
<clus scale="   92.657">  1  5  2 -1</clus>
</clustering>
</event>
<event>
10    2  0.2445576E-006  0.1095642E+03  0.7546771E-02  0.1268477E+00
         -1   -1    0    0    0  501 -0.00000000000E+00  0.00000000000E+00  0.10049028311E+03  0.10049028311E+03  0.00000000000E+00 0.  1.
          1   -1    0    0  502    0  0.00000000000E+00 -0.00000000000E+00 -0.39937962706E+03  0.39937962706E+03  0.00000000000E+00 0. -1.
         23    2    1    2    0    0 -0.13896886757E+02 -0.12362894531E+02 -0.16062458021E+02  0.11008596838E+03  0.10730775020E+03 0.  0.
         23    2    1    2    0    0  0.14321017016E+01 -0.20049751764E+02 -0.28195824569E+03  0.29751778807E+03  0.92802685554E+02 0.  0.
        -11    1    4    4    0    0  0.65013044224E+01 -0.53141285368E+02 -0.22647558525E+03  0.23271754099E+03  0.00000000000E+00 0. -1.
         11    1    4    4    0    0 -0.50692027208E+01  0.33091533604E+02 -0.55482660436E+02  0.64800247080E+02  0.00000000000E+00 0.  1.
        -13    1    3    3    0    0  0.31263606154E+02 -0.25503701641E+02  0.25156432589E+02  0.47546797660E+02  0.00000000000E+00 0.  1.
         13    1    3    3    0    0 -0.45160492910E+02  0.13140807109E+02 -0.41218890610E+02  0.62539170722E+02  0.00000000000E+00 0. -1.
         21    1    1    2  502  503  0.26696156588E+02  0.73156217743E+01 -0.36886680125E+02  0.46117570070E+02  0.00000000000E+00 0. -1.
         21    1    1    2  503  501 -0.14231371533E+02  0.25097024521E+02  0.36018039889E+02  0.46148583651E+02  0.00000000000E+00 0.  1.
<scales pt_clust_5="13000.00000" pt_clust_6="13000.00000" pt_clust_7="13000.00000" pt_clust_8="13000.00000" pt_clust_9="27.68037" pt_clust_10="28.75741"></scales>
<clustering>
<clus scale="   27.680">  2  9  1 -1</clus>
<clus scale="   28.757">  1 10  2 -1</clus>
<clus scale="   92.803">  5  6 -1 -1</clus>
<clus scale="   95.403">  2  5  1 -1</clus>
<clus scale="  107.308">  7  8 -1 -1</clus>
<clus scale="   27.680">  2  5  1 -1</clus>
</clustering>
</event>
<event>
10    2  0.2445576E-006  0.9707700E+02  0.7546771E-02  0.1289438E+00
         -1   -1    0    0    0  501 -0.00000000000E+00  0.00000000000E+00  0.48346946985E+03  0.48346946985E+03  0.00000000000E+00 0.  1.
          1   -1    0    0  502    0  0.00000000000E+00 -0.00000000000E+00 -0.71472435557E+02  0.71472435557E+02  0.00000000000E+00 0. -1.
         23    2    1    2    0    0 -0.10164908743E+02 -0.58743604689E+01  0.62868573500E+02  0.11075282312E+03  0.90420665856E+02 0.  0.
         23    2    1    2    0    0 -0.91539483841E+01  0.23160621276E+02  0.43345914072E+02  0.10788531271E+03  0.95604201181E+02 0.  0.
        -11    1    3    3    0    0  0.25090527565E+01 -0.35985274301E+02 -0.40362907819E+01  0.36297754139E+02  0.00000000000E+00 0.  1.
         11    1    3    3    0    0 -0.12673961499E+02  0.30110913832E+02  0.66904864282E+02  0.74455068978E+02  0.00000000000E+00 0. -1.
        -13    1    4    4    0    0 -0.27464536097E+02 -0.86726007600E+01  0.60761054885E+02  0.67241509039E+02  0.00000000000E+00 0.  1.
         13    1    4    4    0    0  0.18310587713E+02  0.31833222036E+02 -0.17415140813E+02  0.40643803674E+02  0.00000000000E+00 0. -1.
         21    1    1    2  502  503  0.24363120516E+02  0.31395495465E+02  0.16697593173E+02  0.43105085484E+02  0.00000000000E+00 0. -1.
         21    1    1    2  503  501 -0.50442633890E+01 -0.48681756272E+02  0.28908495355E+03  0.29319868410E+03  0.00000000000E+00 0.  1.
<scales pt_clust_5="13000.00000" pt_clust_6="13000.00000" pt_clust_7="13000.00000" pt_clust_8="13000.00000" pt_clust_9="39.73964" pt_clust_10="47.75716"></scales>
<clustering>
<clus scale="   39.740">  2  9  1 -1</clus>
<clus scale="   47.757">  1 10  2 -1</clus>
<clus scale="   90.421">  5  6 -1 -1</clus>
<clus scale="   91.977">  1  5  2 -1</clus>
<clus scale="   95.604">  7  8 -1 -1</clus>
<clus scale="   39.740">  2  5  1 -1</clus>
</clustering>
</event>
<event>
10    2  0.2445576E-006  0.2659987E+03  0.7546771E-02  0.1139045E+00
         -2   -1    0    0    0  501 -0.00000000000E+00  0.00000000000E+00  0.13105151374E+03  0.13105151374E+03  0.00000000000E+00 0.  1.
          2   -1    0    0  502    0  0.00000000000E+00 -0.00000000000E+00 -0.13202984563E+04  0.13202984563E+04  0.00000000000E+00 0. -1.
         23    2    1    2    0    0 -0.57201156652E+02  0.45542094586E+01 -0.15590459898E+03  0.18996116326E+03  0.92121042218E+02 0.  0.
         23    2    1    2    0    0  0.27217708273E+03  0.11807128449E+03 -0.17711497709E+03  0.35732448741E+03  0.91048786977E+02 0.  0.
        -11    1    3    3    0    0 -0.75948684595E+02  0.12708361601E+02 -0.78742501651E+02  0.11013667288E+03  0.00000000000E+00 0. -1.
         11    1    3    3    0    0  0.18747527944E+02 -0.81541521427E+01 -0.77162097329E+02  0.79824490386E+02  0.00000000000E+00 0.  1.
        -13    1    4    4    0    0  0.43679569300E+02  0.59587847553E+02 -0.51853431496E+02  0.90262919896E+02  0.00000000000E+00 0. -1.
         13    1    4    4    0    0  0.22849751343E+03  0.58483436939E+02 -0.12526154559E+03  0.26706156751E+03  0.00000000000E+00 0.  1.
         21    1    1    2  502  503 -0.19900489360E+03 -0.13769293910E+03 -0.84583513678E+03  0.87977234088E+03  0.00000000000E+00 0. -1.
         21    1    1    2  503  501 -0.15971032471E+02  0.15067445145E+02 -0.10392229740E+02  0.24291978519E+02  0.00000000000E+00 0.  1.
<scales pt_clust_5="13000.00000" pt_clust_6="13000.00000" pt_clust_7="13000.00000" pt_clust_8="13000.00000" pt_clust_9="249.93089" pt_clust_10="21.95682"></scales>
<clustering>
<clus scale="   21.957">  1 10  2 -1</clus>
<clus scale="   91.049">  7  8 -1 -1</clus>
<clus scale="   92.121">  5  6 -1 -1</clus>
<clus scale="  109.807">  1  5  2 -1</clus>
<clus scale="  249.931">  2  9  1 -1</clus>
<clus scale="  249.931">  2  5  1 -1</clus>
</clustering>
</event>
<event>
10    2  0.2445576E-006  0.1153806E+03  0.7546771E-02  0.1250997E+00
         -1   -1    0    0    0  501 -0.00000000000E+00  0.00000000000E+00  0.19969065542E+03  0.19969065542E+03  0.00000000000E+00 0.  1.
          1   -1    0    0  502    0  0.00000000000E+00 -0.00000000000E+00 -0.24569247965E+03  0.24569247965E+03  0.00000000000E+00 0. -1.
         23    2    1    2    0    0 -0.31250656342E+02 -0.81250555787E+02  0.38343447835E+00  0.12745958948E+03  0.93099643349E+02 0.  0.
         23    2    1    2    0    0 -0.25948647538E+02  0.47832930463E+02 -0.46789329489E+02  0.11737327444E+03  0.92875845366E+02 0.  0.
        -13    1    3    3    0    0 -0.24887978238E+02 -0.12611856620E+02  0.39378626349E+02  0.48261232902E+02  0.00000000000E+00 0.  1.
         13    1    3    3    0    0 -0.63626781038E+01 -0.68638699167E+02 -0.38995191870E+02  0.79198356580E+02  0.00000000000E+00 0. -1.
        -13    1    4    4    0    0 -0.17003387696E+02  0.72234133422E+02 -0.13973382011E+02  0.75512519686E+02  0.00000000000E+00 0. -1.
         13    1    4    4    0    0 -0.89452598426E+01 -0.24401202960E+02 -0.32815947478E+02  0.41860754752E+02  0.00000000000E+00 0.  1.
         21    1    1    2  502  503  0.10582554166E+03  0.52334348756E+02 -0.49809657639E+02  0.12813637782E+03  0.00000000000E+00 0. -1.
         21    1    1    2  503  501 -0.48626237775E+02 -0.18916723431E+02  0.50213728416E+02  0.72413893328E+02  0.00000000000E+00 0.  1.
<scales pt_clust_5="13000.00000" pt_clust_6="13000.00000" pt_clust_7="13000.00000" pt_clust_8="13000.00000" pt_clust_9="103.35780" pt_clust_10="52.17618"></scales>
<clustering>
<clus scale="   52.176">  1 10  2 -1</clus>
<clus scale="   92.876">  7  8 -1 -1</clus>
<clus scale="   93.100">  5  6 -1 -1</clus>
<clus scale="  103.358">  2  9  1 -1</clus>
<clus scale="  115.200">  2  7  1 -1</clus>
<clus scale="  103.358">  2  5  1 -1</clus>
</clustering>
</event>
<event>
10    2  0.2445576E-006  0.2591249E+03  0.7546771E-02  0.1127480E+00
          2   -1    0    0  502    0  0.00000000000E+00  0.00000000000E+00  0.10467561268E+04  0.10467561268E+04  0.00000000000E+00 0. -1.
         -2   -1    0    0    0  501 -0.00000000000E+00 -0.00000000000E+00 -0.14706512364E+03  0.14706512364E+03  0.00000000000E+00 0.  1.
         23    2    1    2    0    0 -0.82675553577E+02 -0.92237830896E+02  0.97741837199E+02  0.18231815976E+03  0.91342104380E+02 0.  0.
         23    2    1    2    0    0  0.20848794506E+03  0.25918128082E+03  0.38250019340E+03  0.51512725988E+03  0.91692618858E+02 0.  0.
        -11    1    3    3    0    0 -0.10100466609E+03 -0.80693909182E+02  0.95110378849E+02  0.16049745704E+03  0.00000000000E+00 0. -1.
         11    1    3    3    0    0  0.18329112517E+02 -0.11543921714E+02  0.26314583495E+01  0.21820702721E+02  0.00000000000E+00 0.  1.
        -13    1    4    4    0    0  0.18566434434E+03  0.17186112008E+03  0.30406286280E+03  0.39555242117E+03  0.00000000000E+00 0. -1.
         13    1    4    4    0    0  0.22823600722E+02  0.87320160738E+02  0.78437330597E+02  0.11957483871E+03  0.00000000000E+00 0.  1.
         21    1    1    2  502  503 -0.33741437184E+02 -0.46857569623E+01  0.22250743656E+03  0.22509997829E+03  0.00000000000E+00 0. -1.
         21    1    1    2  503  501 -0.92070954300E+02 -0.16225769296E+03  0.19694153597E+03  0.27127585248E+03  0.00000000000E+00 0.  1.
<scales pt_clust_5="13000.00000" pt_clust_6="13000.00000" pt_clust_7="13000.00000" pt_clust_8="13000.00000" pt_clust_9="34.06524" pt_clust_10="242.35964"></scales>
<clustering>
<clus scale="   34.065">  1  9  2 -1</clus>
<clus scale="   91.342">  5  6 -1 -1</clus>
<clus scale="   91.693">  7  8 -1 -1</clus>
<clus scale="  157.532">  2  5  1 -1</clus>
<clus scale="  242.360">  1 10  2 -1</clus>
<clus scale="   34.065">  1  5  2 -1</clus>
</clustering>
</event>
<event>
10    2  0.2445576E-006  0.9390034E+02  0.7546771E-02  0.1294327E+00
          2   -1    0    0  502    0  0.00000000000E+00  0.00000000000E+00  0.20261719590E+03  0.20261719590E+03  0.00000000000E+00 0. -1.
         -2   -1    0    0    0  501 -0.00000000000E+00 -0.00000000000E+00 -0.10083716672E+03  0.10083716672E+03  0.00000000000E+00 0.  1.
         23    2    1    2    0    0 -0.32895070960E+02  0.44079208835E+01 -0.29384832862E+02  0.10150237404E+03  0.91311270240E+02 0.  0.
         23    2    1    2    0    0  0.21965216545E+01  0.10536690418E+02  0.11237317712E+03  0.14446151018E+03  0.90141835099E+02 0.  0.
        -11    1    3    3    0    0  0.25590932009E+02 -0.80487126121E+01 -0.31863925296E+02  0.41653178883E+02  0.00000000000E+00 0.  1.
         11    1    3    3    0    0 -0.58486002968E+02  0.12456633496E+02  0.24790924340E+01  0.59849195154E+02  0.00000000000E+00 0. -1.
        -13    1    4    4    0    0  0.44691527396E+02  0.16931527484E+02  0.57757457163E+02  0.74966213069E+02  0.00000000000E+00 0.  1.
         13    1    4    4    0    0 -0.42495005742E+02 -0.63948370658E+01  0.54615719961E+02  0.69495297114E+02  0.00000000000E+00 0. -1.
         21    1    1    2  502  503  0.19359910074E+02  0.59251432761E+01  0.25735783940E+02  0.32745137287E+02  0.00000000000E+00 0.  1.
         21    1    1    2  503  501  0.11338639231E+02 -0.20869754578E+02 -0.69440990242E+01  0.24745341117E+02  0.00000000000E+00 0.  1.
<scales pt_clust_5="13000.00000" pt_clust_6="13000.00000" pt_clust_7="13000.00000" pt_clust_8="13000.00000" pt_clust_9="20.24632" pt_clust_10="23.97986"></scales>
<clustering>
<clus scale="   20.246">  1  9  2 -1</clus>
<clus scale="   23.980">  2 10  1 -1</clus>
<clus scale="   90.142">  7  8 -1 -1</clus>
<clus scale="   91.311">  5  6 -1 -1</clus>
<clus scale="   92.764">  1  7  2 -1</clus>
<clus scale="   20.246">  1  5  2 -1</clus>
</clustering>
</event>
<event>
10    2  0.2445576E-006  0.1053708E+03  0.7546771E-02  0.1271230E+00
          1   -1    0    0  502    0  0.00000000000E+00  0.00000000000E+00  0.29050473728E+03  0.29050473728E+03  0.00000000000E+00 0. -1.
         -1   -1    0    0    0  501 -0.00000000000E+00 -0.00000000000E+00 -0.13329309761E+03  0.13329309761E+03  0.00000000000E+00 0.  1.
         23    2    1    2    0    0 -0.54992032234E+02  0.89512697040E+01 -0.51645937979E+01  0.10823720543E+03  0.92651879479E+02 0.  0.
         23    2    1    2    0    0  0.24943142582E+02 -0.85801780392E+01  0.44401071332E+02  0.10960738851E+03  0.96677529255E+02 0.  0.
        -11    1    3    3    0    0 -0.54623543780E+02 -0.28877749285E+02  0.17396868138E+02  0.64189617228E+02  0.00000000000E+00 0. -1.
         11    1    3    3    0    0 -0.36848845370E+00  0.37829018989E+02 -0.22561461936E+02  0.44047588199E+02  0.00000000000E+00 0.  1.
        -13    1    4    4    0    0  0.54741953407E+02  0.16876505625E+02  0.11480075005E+02  0.58423368844E+02  0.00000000000E+00 0.  1.
         13    1    4    4    0    0 -0.29798810825E+02 -0.25456683664E+02  0.32920996326E+02  0.51184019663E+02  0.00000000000E+00 0. -1.
         21    1    1    2  502  503  0.16167575174E+02 -0.16895976586E+02  0.15840605754E+03  0.16012290148E+03  0.00000000000E+00 0. -1.
         21    1    1    2  503  501  0.13881314478E+02  0.16524884921E+02 -0.40430895402E+02  0.45830339474E+02  0.00000000000E+00 0.  1.
<scales pt_clust_5="13000.00000" pt_clust_6="13000.00000" pt_clust_7="13000.00000" pt_clust_8="13000.00000" pt_clust_9="23.36373" pt_clust_10="21.58154"></scales>
<clustering>
<clus scale="   21.582">  2 10  1 -1</clus>
<clus scale="   23.364">  1  9  2 -1</clus>
<clus scale="   92.652">  5  6 -1 -1</clus>
<clus scale="   96.678">  7  8 -1 -1</clus>
<clus scale="  101.690">  2  5  1 -1</clus>
<clus scale="   23.364">  1  5  2 -1</clus>
</clustering>
</event>
<event>
10    2  0.2445576E-006  0.1351588E+03  0.7546771E-02  0.1238152E+00
          1   -1    0    0  502    0  0.00000000000E+00  0.00000000000E+00  0.72241798424E+03  0.72241798424E+03  0.00000000000E+00 0. -1.
         -1   -1    0    0    0  501 -0.00000000000E+00 -0.00000000000E+00 -0.66791568076E+02  0.66791568076E+02  0.00000000000E+00 0.  1.
         23    2    1    2    0    0  0.93045277065E+02 -0.28308553360E+02  0.99321728249E+02  0.16781789880E+03  0.94017252017E+02 0.  0.
         23    2    1    2    0    0  0.26164375836E+02  0.37751968787E+02  0.41920709295E+03  0.43016282672E+03  0.84827383595E+02 0.  0.
        -11    1    4    4    0    0 -0.29728057209E+02  0.20187469450E+02  0.11962416462E+03  0.12490489209E+03  0.00000000000E+00 0.  1.
         11    1    4    4    0    0  0.55892433045E+02  0.17564499338E+02  0.29958292833E+03  0.30525793463E+03  0.00000000000E+00 0. -1.
        -13    1    3    3    0    0  0.89339873732E+02 -0.53577708755E+02  0.96711724541E+02  0.14214549440E+03  0.00000000000E+00 0. -1.
         13    1    3    3    0    0  0.37054033327E+01  0.25269155395E+02  0.26100037076E+01  0.25672404399E+02  0.00000000000E+00 0.  1.
         21    1    1    2  502  503 -0.19824321173E+02 -0.37559559808E+01  0.65688321164E+02  0.68717293694E+02  0.00000000000E+00 0.  1.
         21    1    1    2  503  501 -0.99385331728E+02 -0.56874594461E+01  0.71409273805E+02  0.12251153310E+03  0.00000000000E+00 0.  1.
<scales pt_clust_5="13000.00000" pt_clust_6="13000.00000" pt_clust_7="13000.00000" pt_clust_8="13000.00000" pt_clust_9="20.17699" pt_clust_10="97.10130"></scales>
<clustering>
<clus scale="   20.177">  1  9  2 -1</clus>
<clus scale="   84.827">  5  6 -1 -1</clus>
<clus scale="   92.846">  1  5  2 -1</clus>
<clus scale="   94.017">  7  8 -1 -1</clus>
<clus scale="   97.101">  1 10  2 -1</clus>
<clus scale="   20.177">  1  5  2 -1</clus>
</clustering>
</event>
<event>
10    2  0.2445576E-006  0.1026426E+03  0.7546771E-02  0.1275687E+00
          3   -1    0    0  502    0  0.00000000000E+00  0.00000000000E+00  0.12324837963E+03  0.12324837963E+03  0.00000000000E+00 0. -1.
         -3   -1    0    0    0  501 -0.00000000000E+00 -0.00000000000E+00 -0.58565924666E+03  0.58565924666E+03  0.00000000000E+00 0.  1.
         23    2    1    2    0    0  0.10025718471E+02  0.19385815498E+02 -0.14593596018E+03  0.17448499080E+03  0.93120259163E+02 0.  0.
         23    2    1    2    0    0 -0.30309982933E+01 -0.17353631447E+02 -0.14446308400E+02  0.94600257395E+02  0.91815997505E+02 0.  0.
        -11    1    4    4    0    0 -0.19695801927E+02  0.19141790502E+02 -0.38897215288E+02  0.47616447939E+02  0.00000000000E+00 0.  1.
         11    1    4    4    0    0  0.16664803634E+02 -0.36495421949E+02  0.24450906887E+02  0.46983809457E+02  0.00000000000E+00 0. -1.
        -11    1    3    3    0    0  0.24594122339E+02 -0.29303272873E+02 -0.32549156046E+02  0.50229475550E+02  0.00000000000E+00 0. -1.
         11    1    3    3    0    0 -0.14568403869E+02  0.48689088371E+02 -0.11338680414E+03  0.12425551525E+03  0.00000000000E+00 0.  1.
         21    1    1    2  502  503  0.80113132659E+02 -0.67869627890E+02  0.13568729863E+02  0.10587025477E+03  0.00000000000E+00 0. -1.
         21    1    1    2  503  501 -0.87107852837E+02  0.65837443840E+02 -0.31559732831E+03  0.33395212332E+03  0.00000000000E+00 0.  1.
<scales pt_clust_5="13000.00000" pt_clust_6="13000.00000" pt_clust_7="13000.00000" pt_clust_8="13000.00000" pt_clust_9="13000.00000" pt_clust_10="110.86352"></scales>
<clustering>
<clus scale="   91.816">  5  6 -1 -1</clus>
<clus scale="   93.120">  7  8 -1 -1</clus>
<clus scale="   93.491">  1  5  2 -1</clus>
<clus scale="   95.031">  2  7  1 -1</clus>
<clus scale="  110.864">  2 10  1 -1</clus>
<clus scale="   93.491">  1  5  2 -1</clus>
</clustering>
</event>
<event>
10    2  0.2445576E-006  0.2121073E+03  0.7546771E-02  0.1140373E+00
         -1   -1    0    0    0  501 -0.00000000000E+00  0.00000000000E+00  0.19789947144E+03  0.19789947144E+03  0.00000000000E+00 0.  1.
          1   -1    0    0  502    0  0.00000000000E+00 -0.00000000000E+00 -0.41113421855E+03  0.41113421855E+03  0.00000000000E+00 0. -1.
         23    2    1    2    0    0  0.12820623951E+03  0.12195681898E+03  0.12785263790E+02  0.19921347849E+03  0.90621418539E+02 0.  0.
         23    2    1    2    0    0 -0.19332349039E+03 -0.79939045572E+02 -0.11721708074E+03  0.25829141663E+03  0.95970771281E+02 0.  0.
        -11    1    4    4    0    0 -0.11622860394E+03 -0.10143619367E+02 -0.98361265198E+02  0.15260052385E+03  0.00000000000E+00 0. -1.
         11    1    4    4    0    0 -0.77094886454E+02 -0.69795426205E+02 -0.18855815547E+02  0.10569089278E+03  0.00000000000E+00 0.  1.
        -13    1    3    3    0    0  0.75639514905E+02  0.44509863774E+02  0.46997577659E+02  0.99555193204E+02  0.00000000000E+00 0.  1.
         13    1    3    3    0    0  0.52566724602E+02  0.77446955203E+02 -0.34212313868E+02  0.99658285284E+02  0.00000000000E+00 0. -1.
         21    1    1    2  502  503  0.33901526925E+02 -0.20986190318E+02 -0.10661380034E+03  0.11382546347E+03  0.00000000000E+00 0.  1.
         21    1    1    2  503  501  0.31215723961E+02 -0.21031583086E+02 -0.21891298172E+01  0.37703331403E+02  0.00000000000E+00 0.  1.
<scales pt_clust_5="13000.00000" pt_clust_6="13000.00000" pt_clust_7="13000.00000" pt_clust_8="13000.00000" pt_clust_9="40.62433" pt_clust_10="37.63973"></scales>
<clustering>
<clus scale="   37.640">  1 10  2 -1</clus>
<clus scale="   40.624">  2  9  1 -1</clus>
<clus scale="   90.621">  7  8 -1 -1</clus>
<clus scale="   95.971">  5  6 -1 -1</clus>
<clus scale="  209.741">  1  7  2 -1</clus>
<clus scale="   40.624">  2  5  1 -1</clus>
</clustering>
</event>
<event>
10    2  0.2445576E-006  0.3244016E+03  0.7546771E-02  0.1073694E+00
         -3   -1    0    0    0  501 -0.00000000000E+00  0.00000000000E+00  0.61958716077E+03  0.61958716077E+03  0.00000000000E+00 0.  1.
          3   -1    0    0  502    0  0.00000000000E+00 -0.00000000000E+00 -0.12206924164E+04  0.12206924164E+04  0.00000000000E+00 0. -1.
         23    2    1    2    0    0  0.37670097595E+03 -0.17058923933E+03  0.38879635414E+03  0.57501631813E+03  0.92069795657E+02 0.  0.
         23    2    1    2    0    0 -0.30160880679E+03  0.54860496177E+02 -0.10449573029E+04  0.10927426829E+04  0.90406082587E+02 0.  0.
        -13    1    3    3    0    0  0.58396749601E+02  0.53729070685E+01  0.70497032475E+02  0.91699945922E+02  0.00000000000E+00 0.  1.
         13    1    3    3    0    0  0.31830422635E+03 -0.17596214640E+03  0.31829932166E+03  0.48331637221E+03  0.00000000000E+00 0. -1.
        -13    1    4    4    0    0 -0.64735620993E+02  0.47665095315E+02 -0.21202644550E+03  0.22675510034E+03  0.00000000000E+00 0.  1.
         13    1    4    4    0    0 -0.23687318580E+03  0.71954008613E+01 -0.83293085742E+03  0.86598758258E+03  0.00000000000E+00 0. -1.
         21    1    1    2  502  503 -0.65946915022E+02  0.90412344261E+02  0.75071746696E+00  0.11191046051E+03  0.00000000000E+00 0.  1.
         21    1    1    2  503  501 -0.91452541361E+01  0.25316398892E+02  0.54304975696E+02  0.60610115586E+02  0.00000000000E+00 0.  1.
<scales pt_clust_5="13000.00000" pt_clust_6="13000.00000" pt_clust_7="13000.00000" pt_clust_8="13000.00000" pt_clust_9="114.50012" pt_clust_10="26.91757"></scales>
<clustering>
<clus scale="   26.918">  1 10  2 -1</clus>
<clus scale="   90.406">  7  8 -1 -1</clus>
<clus scale="   92.070">  5  6 -1 -1</clus>
<clus scale="  114.500">  1  9  2 -1</clus>
<clus scale="  323.933">  2  7  1 -1</clus>
<clus scale="  323.933">  2  5  1 -1</clus>
</clustering>
</event>
<event>
10    2  0.2445576E-006  0.2005803E+03  0.7546771E-02  0.1150984E+00
          2   -1    0    0  502    0  0.00000000000E+00  0.00000000000E+00  0.42344539007E+03  0.42344539007E+03  0.00000000000E+00 0. -1.
         -2   -1    0    0    0  501 -0.00000000000E+00 -0.00000000000E+00 -0.15387079899E+03  0.15387079899E+03  0.00000000000E+00 0.  1.
         23    2    1    2    0    0  0.13107845937E+03 -0.14312670947E+03  0.11030454751E+03  0.24953838965E+03  0.11151456065E+03 0.  0.
         23    2    1    2    0    0 -0.70239246280E+02  0.12624881536E+03  0.10964586804E+03  0.20532115912E+03  0.96240567871E+02 0.  0.
        -13    1    3    3    0    0  0.70553863235E+02 -0.10720772025E+03  0.12367197888E+02  0.12893521816E+03  0.00000000000E+00 0.  1.
         13    1    3    3    0    0  0.60524596131E+02 -0.35918989213E+02  0.97937349620E+02  0.12060317149E+03  0.00000000000E+00 0. -1.
        -13    1    4    4    0    0  0.21846150703E+02  0.72972817250E+01  0.17321851943E+02  0.28819284790E+02  0.00000000000E+00 0.  1.
         13    1    4    4    0    0 -0.92085396983E+02  0.11895153364E+03  0.92324016100E+02  0.17650187433E+03  0.00000000000E+00 0. -1.
         21    1    1    2  502  503 -0.25026473315E+02  0.27983069430E+02  0.70258020442E+02  0.79659060864E+02  0.00000000000E+00 0. -1.
         21    1    1    2  503  501 -0.35812739770E+02 -0.11105175324E+02 -0.20633844908E+02  0.42797579424E+02  0.00000000000E+00 0. -1.
<scales pt_clust_5="13000.00000" pt_clust_6="13000.00000" pt_clust_7="13000.00000" pt_clust_8="13000.00000" pt_clust_9="38.16437" pt_clust_10="37.49503"></scales>
<clustering>
<clus scale="   37.495">  2 10  1 -1</clus>
<clus scale="   38.164">  1  9  2 -1</clus>
<clus scale="   96.241">  7  8 -1 -1</clus>
<clus scale="  111.515">  5  6 -1 -1</clus>
<clus scale="  192.508">  1  7  2 -1</clus>
<clus scale="   38.164">  1  5  2 -1</clus>
</clustering>
</event>
<event>
10    2  0.2445576E-006  0.9861959E+02  0.7546771E-02  0.1285137E+00
          1   -1    0    0  502    0  0.00000000000E+00  0.00000000000E+00  0.37278657666E+02  0.37278657666E+02  0.00000000000E+00 0. -1.
         -1   -1    0    0    0  501 -0.00000000000E+00 -0.00000000000E+00 -0.76146785620E+03  0.76146785620E+03  0.00000000000E+00 0.  1.
         23    2    1    2    0    0 -0.68982402896E+01  0.15223493071E+01 -0.21312272538E+03  0.23157970398E+03  0.90321425778E+02 0.  0.
         23    2    1    2    0    0 -0.69332287179E+02 -0.23569720737E+02 -0.27477061097E+03  0.29949522149E+03  0.94000006728E+02 0.  0.
        -11    1    3    3    0    0 -0.66982857895E+01 -0.36355976742E+02 -0.17091502965E+03  0.17486729665E+03  0.00000000000E+00 0.  1.
         11    1    3    3    0    0 -0.19995450013E+00  0.37878326049E+02 -0.42207695729E+02  0.56712407327E+02  0.00000000000E+00 0. -1.
        -13    1    4    4    0    0 -0.14240288099E+02  0.31003361637E+02 -0.41789178659E+02  0.53947471590E+02  0.00000000000E+00 0.  1.
         13    1    4    4    0    0 -0.55091999081E+02 -0.54573082373E+02 -0.23298143231E+03  0.24554774990E+03  0.00000000000E+00 0. -1.
         21    1    1    2  502  503  0.68405993474E+02 -0.11004659088E+02 -0.72080632819E+02  0.99980498560E+02  0.00000000000E+00 0. -1.
         21    1    1    2  503  501  0.78245339949E+01  0.33052030518E+02 -0.16421522937E+03  0.16769108984E+03  0.00000000000E+00 0.  1.
<scales pt_clust_5="13000.00000" pt_clust_6="13000.00000" pt_clust_7="13000.00000" pt_clust_8="13000.00000" pt_clust_9="69.81487" pt_clust_10="33.96557"></scales>
<clustering>
<clus scale="   33.966">  2 10  1 -1</clus>
<clus scale="   69.815">  1  9  2 -1</clus>
<clus scale="   90.321">  5  6 -1 -1</clus>
<clus scale="   94.000">  7  8 -1 -1</clus>
<clus scale="   95.120">  2  5  1 -1</clus>
<clus scale="   69.815">  1  5  2 -1</clus>
</clustering>
</event>
<event>
10    2  0.2445576E-006  0.1107316E+03  0.7546771E-02  0.1259887E+00
          1   -1    0    0  503    0  0.00000000000E+00  0.00000000000E+00  0.43790777400E+03  0.43790777400E+03  0.00000000000E+00 0. -1.
         -1   -1    0    0    0  501 -0.00000000000E+00 -0.00000000000E+00 -0.27954196280E+03  0.27954196280E+03  0.00000000000E+00 0.  1.
         23    2    1    2    0    0  0.10089017198E+03 -0.13499106886E+02 -0.18351178601E+03  0.22928883391E+03  0.92389074361E+02 0.  0.
         23    2    1    2    0    0 -0.12977680510E+02  0.60621243661E+02  0.35571458553E+03  0.37228361456E+03  0.90657972298E+02 0.  0.
        -11    1    4    4    0    0  0.26601094272E+02 -0.15389264037E+01  0.39854704958E+02  0.47941464498E+02  0.00000000000E+00 0.  1.
         11    1    4    4    0    0 -0.39578774782E+02  0.62160170065E+02  0.31585988057E+03  0.32434215006E+03  0.00000000000E+00 0. -1.
        -11    1    3    3    0    0  0.92598499507E+02  0.11798715249E+02 -0.17956067367E+03  0.20237521420E+03  0.00000000000E+00 0.  1.
         11    1    3    3    0    0  0.82916724698E+01 -0.25297822135E+02 -0.39511123394E+01  0.26913619709E+02  0.00000000000E+00 0. -1.
         21    1    1    2  502  501 -0.54381021385E+02  0.56204239944E+00  0.50062367577E+01  0.54613860741E+02  0.00000000000E+00 0. -1.
         21    1    1    2  503  502 -0.33531470082E+02 -0.47684179174E+02 -0.18843225066E+02  0.61263427591E+02  0.00000000000E+00 0. -1.
<scales pt_clust_5="13000.00000" pt_clust_6="13000.00000" pt_clust_7="13000.00000" pt_clust_8="13000.00000" pt_clust_9="54.38393" pt_clust_10="63.53152"></scales>
<clustering>
<clus scale="   54.384">  2  9  1 -1</clus>
<clus scale="   63.532">  2 10  1 -1</clus>
<clus scale="   90.658">  5  6 -1 -1</clus>
<clus scale="   92.389">  7  8 -1 -1</clus>
<clus scale="  109.291">  1  5  2 -1</clus>
<clus scale="  109.291">  1  5  2 -1</clus>
</clustering>
</event>
<event>
10    2  0.2445576E-006  0.1108150E+03  0.7546771E-02  0.1259239E+00
          3   -1    0    0  502    0  0.00000000000E+00  0.00000000000E+00  0.48312550960E+03  0.48312550960E+03  0.00000000000E+00 0. -1.
         -3   -1    0    0    0  501 -0.00000000000E+00 -0.00000000000E+00 -0.10479927261E+03  0.10479927261E+03  0.00000000000E+00 0.  1.
         23    2    1    2    0    0  0.72241596923E+01  0.95498181668E+02 -0.27500754453E+02  0.13493381751E+03  0.90987649866E+02 0.  0.
         23    2    1    2    0    0  0.12296562660E+02 -0.49873675534E+02  0.30998057394E+03  0.32699082315E+03  0.90534265542E+02 0.  0.
        -13    1    3    3    0    0  0.47566714466E+02  0.69094286889E+02 -0.17096104855E+02  0.85608934154E+02  0.00000000000E+00 0.  1.
         13    1    3    3    0    0 -0.40342554774E+02  0.26403894779E+02 -0.10404649599E+02  0.49324883359E+02  0.00000000000E+00 0. -1.
        -13    1    4    4    0    0  0.20622804321E+02 -0.69143937646E+02  0.28671494116E+03  0.29565459857E+03  0.00000000000E+00 0. -1.
         13    1    4    4    0    0 -0.83262416604E+01  0.19270262112E+02  0.23265632780E+02  0.31336224576E+02  0.00000000000E+00 0.  1.
         21    1    1    2  502  503 -0.20319303837E+02 -0.11257392569E+02  0.87628456180E+02  0.90655111982E+02  0.00000000000E+00 0. -1.
         21    1    1    2  503  501  0.79858148409E+00 -0.34367113565E+02  0.82179613190E+01  0.35345029571E+02  0.00000000000E+00 0.  1.
<scales pt_clust_5="13000.00000" pt_clust_6="13000.00000" pt_clust_7="13000.00000" pt_clust_8="13000.00000" pt_clust_9="23.22936" pt_clust_10="34.99099"></scales>
<clustering>
<clus scale="   23.229">  1  9  2 -1</clus>
<clus scale="   34.991">  2 10  1 -1</clus>
<clus scale="   90.534">  7  8 -1 -1</clus>
<clus scale="   90.988">  5  6 -1 -1</clus>
<clus scale="  110.443">  1  7  2 -1</clus>
<clus scale="   23.229">  1  5  2 -1</clus>
</clustering>
</event>
<event>
10    2  0.2445576E-006  0.2600397E+03  0.7546771E-02  0.1107154E+00
          1   -1    0    0  502    0  0.00000000000E+00  0.00000000000E+00  0.15249175316E+04  0.15249175316E+04  0.00000000000E+00 0. -1.
         -1   -1    0    0    0  501 -0.00000000000E+00 -0.00000000000E+00 -0.12680342011E+03  0.12680342011E+03  0.00000000000E+00 0.  1.
         23    2    1    2    0    0  0.71014811316E+02  0.22916637442E+03  0.44971827165E+03  0.51800872208E+03  0.92337325609E+02 0.  0.
         23    2    1    2    0    0 -0.61533534540E+02 -0.23451077991E+03  0.84930499023E+03  0.88797893261E+03  0.91683894805E+02 0.  0.
        -11    1    4    4    0    0 -0.84750323017E+02 -0.15862380847E+03  0.58766688262E+03  0.61457017076E+03  0.00000000000E+00 0. -1.
         11    1    4    4    0    0  0.23216788477E+02 -0.75886971440E+02  0.26163810761E+03  0.27340876184E+03  0.00000000000E+00 0.  1.
        -13    1    3    3    0    0  0.67976240720E+02  0.18564762433E+03  0.27992481809E+03  0.34270061790E+03  0.00000000000E+00 0.  1.
         13    1    3    3    0    0  0.30385705962E+01  0.43518750092E+02  0.16979345356E+03  0.17530810418E+03  0.00000000000E+00 0. -1.
         21    1    1    2  502  503  0.18349377905E+02 -0.11333158668E+02  0.16809979280E+03  0.16947766961E+03  0.00000000000E+00 0. -1.
         21    1    1    2  503  501 -0.27830654681E+02  0.16677564148E+02 -0.69008943146E+02  0.76255627464E+02  0.00000000000E+00 0. -1.
<scales pt_clust_5="13000.00000" pt_clust_6="13000.00000" pt_clust_7="13000.00000" pt_clust_8="13000.00000" pt_clust_9="21.56711" pt_clust_10="32.38751"></scales>
<clustering>
<clus scale="   21.567">  1  9  2 -1</clus>
<clus scale="   32.388">  2 10  1 -1</clus>
<clus scale="   91.684">  5  6 -1 -1</clus>
<clus scale="   92.337">  7  8 -1 -1</clus>
<clus scale="  259.808">  1  5  2 -1</clus>
<clus scale="   21.567">  1  5  2 -1</clus>
</clustering>
</event>
<event>
10    2  0.2445576E-006  0.1474873E+03  0.7546771E-02  0.1204228E+00
         -1   -1    0    0    0  501 -0.00000000000E+00  0.00000000000E+00  0.17532901996E+03  0.17532901996E+03  0.00000000000E+00 0.  1.
          1   -1    0    0  502    0  0.00000000000E+00 -0.00000000000E+00 -0.10195161802E+04  0.10195161802E+04  0.00000000000E+00 0. -1.
         23    2    1    2    0    0  0.19590343117E+02  0.84969223249E+02 -0.20209139063E+03  0.23857075243E+03  0.92040878454E+02 0.  0.
         23    2    1    2    0    0 -0.57167847474E+02 -0.13559079433E+03 -0.63081063580E+03  0.65470027781E+03  0.95170211918E+02 0.  0.
        -11    1    4    4    0    0 -0.21672065526E+02 -0.11477053413E+03 -0.56602431869E+03  0.57794937778E+03  0.00000000000E+00 0.  1.
         11    1    4    4    0    0 -0.35495781948E+02 -0.20820260197E+02 -0.64786317109E+02  0.76750900030E+02  0.00000000000E+00 0. -1.
        -13    1    3    3    0    0 -0.53029545811E+01  0.45851546475E+02 -0.19367552623E+02  0.50055846173E+02  0.00000000000E+00 0.  1.
         13    1    3    3    0    0  0.24893297698E+02  0.39117676774E+02 -0.18272383800E+03  0.18851490626E+03  0.00000000000E+00 0. -1.
         21    1    1    2  502  503  0.43478392073E+02  0.20035613898E+02 -0.15101132652E+03  0.15841785613E+03  0.00000000000E+00 0. -1.
         21    1    1    2  503  501 -0.59008877155E+01  0.30585957182E+02  0.13972619271E+03  0.14315631380E+03  0.00000000000E+00 0.  1.
<scales pt_clust_5="13000.00000" pt_clust_6="13000.00000" pt_clust_7="13000.00000" pt_clust_8="13000.00000" pt_clust_9="48.79801" pt_clust_10="31.14998"></scales>
<clustering>
<clus scale="   31.150">  1 10  2 -1</clus>
<clus scale="   48.798">  2  9  1 -1</clus>
<clus scale="   92.041">  7  8 -1 -1</clus>
<clus scale="   95.170">  5  6 -1 -1</clus>
<clus scale="  145.488">  1  7  2 -1</clus>
<clus scale="   48.798">  2  5  1 -1</clus>
</clustering>
</event>
<event>
10    2  0.2445576E-006  0.1030318E+03  0.7546771E-02  0.1279833E+00
         -1   -1    0    0    0  501 -0.00000000000E+00  0.00000000000E+00  0.46378075715E+02  0.46378075715E+02  0.00000000000E+00 0.  1.
          1   -1    0    0  502    0  0.00000000000E+00 -0.00000000000E+00 -0.41120864583E+03  0.41120864583E+03  0.00000000000E+00 0. -1.
         23    2    1    2    0    0 -0.68042480468E+01 -0.14862317127E+01 -0.48331927334E+02  0.10399302640E+03  0.91815399930E+02 0.  0.
         23    2    1    2    0    0 -0.11325238719E+02  0.19239057863E+02 -0.24919287719E+03  0.27043144119E+03  0.10265316341E+03 0.  0.
        -13    1    4    4    0    0 -0.42798164521E+02 -0.19274708638E+02 -0.17443202327E+03  0.18063700624E+03  0.00000000000E+00 0. -1.
         13    1    4    4    0    0  0.31472925802E+02  0.38513766501E+02 -0.74760853922E+02  0.89794434949E+02  0.00000000000E+00 0.  1.
        -13    1    3    3    0    0  0.29542372613E+02  0.30259391130E+02 -0.13201005950E+02  0.44301795553E+02  0.00000000000E+00 0.  1.
         13    1    3    3    0    0 -0.36346620660E+02 -0.31745622842E+02 -0.35130921384E+02  0.59691230849E+02  0.00000000000E+00 0. -1.
         21    1    1    2  502  503 -0.32447441860E+01 -0.20431073643E+02 -0.54038770014E+02  0.57863164445E+02  0.00000000000E+00 0. -1.
         21    1    1    2  503  501  0.21374230952E+02  0.26782474921E+01 -0.13266995569E+02  0.25299089506E+02  0.00000000000E+00 0. -1.
<scales pt_clust_5="13000.00000" pt_clust_6="13000.00000" pt_clust_7="13000.00000" pt_clust_8="13000.00000" pt_clust_9="20.68712" pt_clust_10="21.25612"></scales>
<clustering>
<clus scale="   20.687">  2  9  1 -1</clus>
<clus scale="   21.256">  1 10  2 -1</clus>
<clus scale="   91.815">  7  8 -1 -1</clus>
<clus scale="   92.239">  1  7  2 -1</clus>
<clus scale="  102.653">  5  6 -1 -1</clus>
<clus scale="   20.687">  2  5  1 -1</clus>
</clustering>
</event>
<event>
10    2  0.2445576E-006  0.1297988E+03  0.7546771E-02  0.1230867E+00
         -1   -1    0    0    0  501 -0.00000000000E+00  0.00000000000E+00  0.50748497403E+02  0.50748497403E+02  0.00000000000E+00 0.  1.
          1   -1    0    0  502    0  0.00000000000E+00 -0.00000000000E+00 -0.77551140028E+03  0.77551140028E+03  0.00000000000E+00 0. -1.
         23    2    1    2    0    0 -0.10720094846E+03  0.38895046363E+02 -0.12956960525E+03  0.19092054070E+03  0.81593518578E+02 0.  0.
         23    2    1    2    0    0  0.58664922009E+02 -0.22406123979E+02 -0.34363498073E+03  0.36155283427E+03  0.93230062321E+02 0.  0.
        -11    1    4    4    0    0  0.46705322698E+02  0.31357387414E+02 -0.14866672283E+03  0.15895429340E+03  0.00000000000E+00 0.  1.
         11    1    4    4    0    0  0.11959599310E+02 -0.53763511393E+02 -0.19496825790E+03  0.20259854087E+03  0.00000000000E+00 0. -1.
        -11    1    3    3    0    0 -0.82347703296E+02  0.36547589459E+02 -0.41153648279E+02  0.99047934355E+02  0.00000000000E+00 0.  1.
         11    1    3    3    0    0 -0.24853245162E+02  0.23474569041E+01 -0.88415956973E+02  0.91872606344E+02  0.00000000000E+00 0. -1.
         21    1    1    2  502  503  0.28220063700E+02 -0.14765933981E+02 -0.25138732999E+03  0.25339691095E+03  0.00000000000E+00 0. -1.
         21    1    1    2  503  501  0.20315962749E+02 -0.17229884035E+01 -0.17098691113E+00  0.20389611766E+02  0.00000000000E+00 0.  1.
<scales pt_clust_5="13000.00000" pt_clust_6="13000.00000" pt_clust_7="13000.00000" pt_clust_8="13000.00000" pt_clust_9="32.31512" pt_clust_10="20.38889"></scales>
<clustering>
<clus scale="   20.389">  1 10  2 -1</clus>
<clus scale="   32.315">  2  9  1 -1</clus>
<clus scale="   81.594">  7  8 -1 -1</clus>
<clus scale="   93.230">  5  6 -1 -1</clus>
<clus scale="  121.710">  1  7  2 -1</clus>
<clus scale="   32.315">  2  5  1 -1</clus>
</clustering>
</event>
<event>
10    2  0.2445576E-006  0.1832604E+03  0.7546771E-02  0.1192341E+00
         -2   -1    0    0    0  501 -0.00000000000E+00  0.00000000000E+00  0.14311067732E+03  0.14311067732E+03  0.00000000000E+00 0.  1.
          2   -1    0    0  502    0  0.00000000000E+00 -0.00000000000E+00 -0.12301977397E+04  0.12301977397E+04  0.00000000000E+00 0. -1.
         23    2    1    2    0    0 -0.13227672270E+03  0.13979439453E+03 -0.32379405550E+02  0.21525180996E+03  0.90803698586E+02 0.  0.
         23    2    1    2    0    0  0.23702734900E+02  0.13219203834E+02 -0.23361753718E+03  0.25272843038E+03  0.92509128490E+02 0.  0.
        -13    1    3    3    0    0  0.12679650666E+02  0.15812035844E+02 -0.11663299250E+02  0.23384323123E+02  0.00000000000E+00 0.  1.
         13    1    3    3    0    0 -0.14495637336E+03  0.12398235869E+03 -0.20716106300E+02  0.19186748684E+03  0.00000000000E+00 0. -1.
        -13    1    4    4    0    0 -0.98155098828E+01  0.42329804321E+02 -0.63716024686E+02  0.77122554223E+02  0.00000000000E+00 0. -1.
         13    1    4    4    0    0  0.33518244783E+02 -0.29110600487E+02 -0.16990151249E+03  0.17560587616E+03  0.00000000000E+00 0.  1.
         21    1    1    2  502  503  0.34641163714E+02 -0.15681685358E+03 -0.81541596581E+03  0.83108046126E+03  0.00000000000E+00 0.  1.
         21    1    1    2  503  501  0.73932824084E+02  0.38032552167E+01 -0.56741538679E+01  0.74247715449E+02  0.00000000000E+00 0.  1.
<scales pt_clust_5="13000.00000" pt_clust_6="13000.00000" pt_clust_7="13000.00000" pt_clust_8="13000.00000" pt_clust_9="159.18252" pt_clust_10="74.03058"></scales>
<clustering>
<clus scale="   74.031">  1 10  2 -1</clus>
<clus scale="   90.804">  5  6 -1 -1</clus>
<clus scale="   92.509">  7  8 -1 -1</clus>
<clus scale="   98.251">  2  7  1 -1</clus>
<clus scale="  159.183">  2  9  1 -1</clus>
<clus scale="   98.251">  2  5  1 -1</clus>
</clustering>
</event>
<event>
10    2  0.2445576E-006  0.2618162E+03  0.7546771E-02  0.1106061E+00
          2   -1    0    0  502    0  0.00000000000E+00  0.00000000000E+00  0.11109159179E+04  0.11109159179E+04  0.00000000000E+00 0. -1.
         -2   -1    0    0    0  501 -0.00000000000E+00 -0.00000000000E+00 -0.13976743159E+03  0.13976743159E+03  0.00000000000E+00 0.  1.
         23    2    1    2    0    0  0.24943696745E+03  0.83220510354E+02  0.13859456929E+03  0.31140349029E+03  0.92839781658E+02 0.  0.
         23    2    1    2    0    0 -0.24089370264E+03 -0.60280760024E+02  0.62979510848E+03  0.68333036194E+03  0.92924479482E+02 0.  0.
        -13    1    3    3    0    0  0.39163572609E+02  0.15734706730E+02 -0.12270197491E+02  0.43953659255E+02  0.00000000000E+00 0.  1.
         13    1    3    3    0    0  0.21027339484E+03  0.67485803624E+02  0.15086476678E+03  0.26744983104E+03  0.00000000000E+00 0. -1.
        -13    1    4    4    0    0 -0.96968214006E+02 -0.63902070184E+02  0.21654497360E+03  0.24571942271E+03  0.00000000000E+00 0.  1.
         13    1    4    4    0    0 -0.14392548864E+03  0.36213101598E+01  0.41325013487E+03  0.43761093924E+03  0.00000000000E+00 0. -1.
         21    1    1    2  502  503  0.69365899773E+01  0.28299128479E+02  0.20025630581E+03  0.20236488078E+03  0.00000000000E+00 0.  1.
         21    1    1    2  503  501 -0.15479854780E+02 -0.51238878808E+02  0.25025027576E+01  0.53584616501E+02  0.00000000000E+00 0. -1.
<scales pt_clust_5="13000.00000" pt_clust_6="13000.00000" pt_clust_7="13000.00000" pt_clust_8="13000.00000" pt_clust_9="29.13687" pt_clust_10="52.62913"></scales>
<clustering>
<clus scale="   29.137">  1  9  2 -1</clus>
<clus scale="   52.629">  2 10  1 -1</clus>
<clus scale="   92.840">  5  6 -1 -1</clus>
<clus scale="   92.924">  7  8 -1 -1</clus>
<clus scale="  261.786">  2  5  1 -1</clus>
<clus scale="   29.137">  1  5  2 -1</clus>
</clustering>
</event>
<event>
10    2  0.3216511E-006  0.9804164E+02  0.7546771E-02  0.1284876E+00
         -1   -1    0    0    0  501 -0.00000000000E+00  0.00000000000E+00  0.13595571154E+03  0.13595571154E+03  0.00000000000E+00 0.  1.
          1   -1    0    0  502    0  0.00000000000E+00 -0.00000000000E+00 -0.41180105844E+03  0.41180105844E+03  0.00000000000E+00 0. -1.
         23    2    1    2    0    0 -0.33523856363E+02 -0.40943804129E+02  0.80144083477E+02  0.13259491623E+03  0.91422610184E+02 0.  0.
         23    2    1    2    0    0  0.54325576203E+02  0.21310983243E+02 -0.31723092196E+03  0.33504061187E+03  0.90616375550E+02 0.  0.
        -11    1    4    4    0    0 -0.42537338059E+01  0.42425474694E+02 -0.16828450976E+03  0.17360210649E+03  0.00000000000E+00 0. -1.
         11    1    4    4    0    0  0.58579310009E+02 -0.21114491451E+02 -0.14894641220E+03  0.16143850537E+03  0.00000000000E+00 0.  1.
        -13    1    3    3    0    0  0.26079499276E+02  0.92453936771E+01  0.19347712244E+02  0.33763168628E+02  0.00000000000E+00 0. -1.
         13    1    3    3    0    0 -0.59603355639E+02 -0.50189197806E+02  0.60796371233E+02  0.98831747606E+02  0.00000000000E+00 0.  1.
         21    1    1    2  502  503 -0.37513958736E+02  0.48880186906E+01 -0.43171262615E+02  0.57401635365E+02  0.00000000000E+00 0.  1.
         21    1    1    2  503  501  0.16712238896E+02  0.14744802196E+02  0.44127541887E+01  0.22719606516E+02  0.00000000000E+00 0.  1.
<scales pt_clust_5="13000.00000" pt_clust_6="13000.00000" pt_clust_7="13000.00000" pt_clust_8="13000.00000" pt_clust_9="36.99126" pt_clust_10="22.28695"></scales>
<clustering>
<clus scale="   22.287">  1 10  2 -1</clus>
<clus scale="   36.991">  2  9  1 -1</clus>
<clus scale="   90.616">  5  6 -1 -1</clus>
<clus scale="   91.423">  7  8 -1 -1</clus>
<clus scale="   97.290">  2  5  1 -1</clus>
<clus scale="   36.991">  2  5  1 -1</clus>
</clustering>
</event>
<event>
10    2  0.2445576E-006  0.1064914E+03  0.7546771E-02  0.1272559E+00
         -1   -1    0    0    0  501 -0.00000000000E+00  0.00000000000E+00  0.18348388394E+03  0.18348388394E+03  0.00000000000E+00 0.  1.
          1   -1    0    0  502    0  0.00000000000E+00 -0.00000000000E+00 -0.24012297995E+03  0.24012297995E+03  0.00000000000E+00 0. -1.
         23    2    1    2    0    0  0.72577578059E+02  0.19402458004E+02 -0.78562135364E+02  0.13537511723E+03  0.80687378441E+02 0.  0.
         23    2    1    2    0    0 -0.19872567819E+02 -0.27926546228E+02 -0.91996780721E+02  0.13516218242E+03  0.92901006223E+02 0.  0.
        -11    1    4    4    0    0  0.12984190648E+02 -0.50006164315E+02 -0.77217013541E+02  0.92906796611E+02  0.00000000000E+00 0. -1.
         11    1    4    4    0    0 -0.32856758467E+02  0.22079618088E+02 -0.14779767179E+02  0.42255385807E+02  0.00000000000E+00 0.  1.
        -13    1    3    3    0    0  0.80738397276E+02  0.38522886405E+02 -0.63691769564E+02  0.10981504033E+03  0.00000000000E+00 0.  1.
         13    1    3    3    0    0 -0.81608192166E+01 -0.19120428401E+02 -0.14870365800E+02  0.25560076908E+02  0.00000000000E+00 0. -1.
         21    1    1    2  502  503 -0.17825285984E+02 -0.11864877189E+02 -0.93369669078E+01  0.23360117341E+02  0.00000000000E+00 0. -1.
         21    1    1    2  503  501 -0.34879724256E+02  0.20388965412E+02  0.12325678698E+03  0.12970944689E+03  0.00000000000E+00 0.  1.
<scales pt_clust_5="13000.00000" pt_clust_6="13000.00000" pt_clust_7="13000.00000" pt_clust_8="13000.00000" pt_clust_9="21.41299" pt_clust_10="40.53829"></scales>
<clustering>
<clus scale="   21.413">  2  9  1 -1</clus>
<clus scale="   40.538">  1 10  2 -1</clus>
<clus scale="   80.687">  7  8 -1 -1</clus>
<clus scale="   92.901">  5  6 -1 -1</clus>
<clus scale="   96.022">  1  7  2 -1</clus>
<clus scale="   21.413">  2  5  1 -1</clus>
</clustering>
</event>
<event>
10    2  0.2445576E-006  0.1495857E+03  0.7546771E-02  0.1204232E+00
          2   -1    0    0  502    0  0.00000000000E+00  0.00000000000E+00  0.13239982289E+03  0.13239982289E+03  0.00000000000E+00 0. -1.
         -2   -1    0    0    0  501 -0.00000000000E+00 -0.00000000000E+00 -0.42921706784E+03  0.42921706784E+03  0.00000000000E+00 0.  1.
         23    2    1    2    0    0 -0.14229566831E+03  0.41888464019E+02 -0.19921925691E+03  0.26049111514E+03  0.78515018363E+02 0.  0.
         23    2    1    2    0    0  0.10303943404E+03 -0.46262904346E+01 -0.74771739854E+02  0.15914435135E+03  0.95381255789E+02 0.  0.
        -11    1    4    4    0    0  0.84329268680E+02  0.33700419570E+02 -0.72898963298E+02  0.11645343569E+03  0.00000000000E+00 0.  1.
         11    1    4    4    0    0  0.18710165360E+02 -0.38326710004E+02 -0.18727765553E+01  0.42690915656E+02  0.00000000000E+00 0. -1.
        -13    1    3    3    0    0 -0.63620414945E+01  0.25151269981E+02 -0.59150245603E+02  0.64589577399E+02  0.00000000000E+00 0.  1.
         13    1    3    3    0    0 -0.13593362681E+03  0.16737194038E+02 -0.14006901131E+03  0.19590153775E+03  0.00000000000E+00 0. -1.
         21    1    1    2  502  503 -0.11112412094E+02 -0.19298492632E+02  0.48187617119E+02  0.53084498340E+02  0.00000000000E+00 0. -1.
         21    1    1    2  503  501  0.50368646359E+02 -0.17963680953E+02 -0.71013865299E+02  0.88896925898E+02  0.00000000000E+00 0.  1.
<scales pt_clust_5="13000.00000" pt_clust_6="13000.00000" pt_clust_7="13000.00000" pt_clust_8="13000.00000" pt_clust_9="22.26921" pt_clust_10="53.09453"></scales>
<clustering>
<clus scale="   22.269">  1  9  2 -1</clus>
<clus scale="   53.095">  2 10  1 -1</clus>
<clus scale="   78.515">  7  8 -1 -1</clus>
<clus scale="   95.381">  5  6 -1 -1</clus>
<clus scale="  139.438">  2  7  1 -1</clus>
<clus scale="   22.269">  1  5  2 -1</clus>
</clustering>
</event>
<event>
10    2  0.2445576E-006  0.1105126E+03  0.7546771E-02  0.1260593E+00
         -2   -1    0    0    0  501 -0.00000000000E+00  0.00000000000E+00  0.80158931687E+02  0.80158931687E+02  0.00000000000E+00 0.  1.
          2   -1    0    0  502    0  0.00000000000E+00 -0.00000000000E+00 -0.34455253761E+03  0.34455253761E+03  0.00000000000E+00 0. -1.
         23    2    1    2    0    0  0.23426084665E+02  0.39897803780E+02 -0.33429509200E+02  0.10812584677E+03  0.91831641957E+02 0.  0.
         23    2    1    2    0    0  0.23413048085E+02 -0.75443812873E+02 -0.16579894603E+03  0.20644364677E+03  0.94285465829E+02 0.  0.
        -13    1    3    3    0    0 -0.18656045939E+02 -0.19629967840E+02 -0.20782891017E+02  0.34136670115E+02  0.00000000000E+00 0. -1.
         13    1    3    3    0    0  0.42082130604E+02  0.59527771620E+02 -0.12646618182E+02  0.73989176652E+02  0.00000000000E+00 0.  1.
        -13    1    4    4    0    0  0.45840171349E+01 -0.35139034457E+02 -0.68665726897E+00  0.35443426102E+02  0.00000000000E+00 0.  1.
         13    1    4    4    0    0  0.18829030950E+02 -0.40304778416E+02 -0.16511228876E+03  0.17100022067E+03  0.00000000000E+00 0. -1.
         21    1    1    2  502  503  0.11690162696E+02  0.21099605412E+02 -0.35585329346E+02  0.42990335159E+02  0.00000000000E+00 0. -1.
         21    1    1    2  503  501 -0.58529295446E+02  0.14446403681E+02 -0.29579821356E+02  0.67151640607E+02  0.00000000000E+00 0.  1.
<scales pt_clust_5="13000.00000" pt_clust_6="13000.00000" pt_clust_7="13000.00000" pt_clust_8="13000.00000" pt_clust_9="24.12163" pt_clust_10="59.40336"></scales>
<clustering>
<clus scale="   24.122">  2  9  1 -1</clus>
<clus scale="   59.403">  1 10  2 -1</clus>
<clus scale="   91.832">  5  6 -1 -1</clus>
<clus scale="   94.285">  7  8 -1 -1</clus>
<clus scale="  108.427">  1  5  2 -1</clus>
<clus scale="   24.122">  2  5  1 -1</clus>
</clustering>
</event>
<event>
10    2  0.2445576E-006  0.1422003E+03  0.7546771E-02  0.1210399E+00
          1   -1    0    0  502    0  0.00000000000E+00  0.00000000000E+00  0.10199315373E+04  0.10199315373E+04  0.00000000000E+00 0. -1.
         -1   -1    0    0    0  501 -0.00000000000E+00 -0.00000000000E+00 -0.55975794875E+02  0.55975794875E+02  0.00000000000E+00 0.  1.
         23    2    1    2    0    0  0.78833090323E+02 -0.11365557958E+03  0.20313870486E+03  0.26255602780E+03  0.92401771752E+02 0.  0.
         23    2    1    2    0    0 -0.48252043111E+02  0.35065688059E+02  0.36460238826E+03  0.38082879316E+03  0.92400249123E+02 0.  0.
        -11    1    4    4    0    0  0.24498522584E+02 -0.53867709965E+01  0.11528938130E+03  0.11798659394E+03  0.00000000000E+00 0.  1.
         11    1    4    4    0    0 -0.72750565695E+02  0.40452459055E+02  0.24931300696E+03  0.26284219922E+03  0.00000000000E+00 0. -1.
        -11    1    3    3    0    0  0.16137725687E+02 -0.10106780334E+03  0.12189726925E+03  0.15916680342E+03  0.00000000000E+00 0.  1.
         11    1    3    3    0    0  0.62695364636E+02 -0.12587776247E+02  0.81241435610E+02  0.10338922438E+03  0.00000000000E+00 0. -1.
         21    1    1    2  502  503 -0.19443362823E+02  0.96590370463E+02  0.39916956000E+03  0.41114970711E+03  0.00000000000E+00 0. -1.
         21    1    1    2  503  501 -0.11137684389E+02 -0.18000478940E+02 -0.29549107379E+01  0.21372804053E+02  0.00000000000E+00 0. -1.
<scales pt_clust_5="13000.00000" pt_clust_6="13000.00000" pt_clust_7="13000.00000" pt_clust_8="13000.00000" pt_clust_9="96.43601" pt_clust_10="21.16755"></scales>
<clustering>
<clus scale="   21.168">  2 10  1 -1</clus>
<clus scale="   92.400">  5  6 -1 -1</clus>
<clus scale="   92.402">  7  8 -1 -1</clus>
<clus scale="   96.436">  1  9  2 -1</clus>
<clus scale="  142.199">  1  5  2 -1</clus>
<clus scale="   96.436">  1  5  2 -1</clus>
</clustering>
</event>
<event>
10    2  0.2445576E-006  0.1413629E+03  0.7546771E-02  0.1211623E+00
         -2   -1    0    0    0  501 -0.00000000000E+00  0.00000000000E+00  0.44148393651E+03  0.44148393651E+03  0.00000000000E+00 0.  1.
          2   -1    0    0  502    0  0.00000000000E+00 -0.00000000000E+00 -0.13520545356E+03  0.13520545356E+03  0.00000000000E+00 0. -1.
         23    2    1    2    0    0  0.79763426577E+02 -0.10385323781E+03  0.14522070187E+03  0.21574567969E+03  0.91156167279E+02 0.  0.
         23    2    1    2    0    0 -0.35306589206E+02  0.69722296867E+02  0.20623477435E+02  0.12223308445E+03  0.91694302932E+02 0.  0.
        -11    1    3    3    0    0  0.66099097970E+02 -0.84924762372E+02  0.15641094301E+03  0.18985702280E+03  0.00000000000E+00 0.  1.
         11    1    3    3    0    0  0.13664328607E+02 -0.18928475441E+02 -0.11190241140E+02  0.25888656890E+02  0.00000000000E+00 0. -1.
        -13    1    4    4    0    0  0.19000682865E+02 -0.11446781944E+02  0.87788023389E+01  0.23856280865E+02  0.00000000000E+00 0.  1.
         13    1    4    4    0    0 -0.54307272071E+02  0.81169078811E+02  0.11844675096E+02  0.98376803582E+02  0.00000000000E+00 0. -1.
         21    1    1    2  502  503 -0.22593419886E+02  0.40297659030E+02 -0.37394579156E+02  0.59436676351E+02  0.00000000000E+00 0. -1.
         21    1    1    2  503  501 -0.21863417486E+02 -0.61667180838E+01  0.17782888280E+03  0.17927394957E+03  0.00000000000E+00 0.  1.
<scales pt_clust_5="13000.00000" pt_clust_6="13000.00000" pt_clust_7="13000.00000" pt_clust_8="13000.00000" pt_clust_9="46.43111" pt_clust_10="22.71646"></scales>
<clustering>
<clus scale="   22.716">  1 10  2 -1</clus>
<clus scale="   46.431">  2  9  1 -1</clus>
<clus scale="   91.156">  5  6 -1 -1</clus>
<clus scale="   91.694">  7  8 -1 -1</clus>
<clus scale="  141.014">  1  5  2 -1</clus>
<clus scale="   46.431">  2  5  1 -1</clus>
</clustering>
</event>
<event>
10    2  0.2445576E-006  0.1138405E+03  0.7546771E-02  0.1255919E+00
         -2   -1    0    0    0  501 -0.00000000000E+00  0.00000000000E+00  0.83784388526E+02  0.83784388526E+02  0.00000000000E+00 0.  1.
          2   -1    0    0  502    0  0.00000000000E+00 -0.00000000000E+00 -0.46005268105E+03  0.46005268105E+03  0.00000000000E+00 0. -1.
         23    2    1    2    0    0  0.82957752853E+02 -0.40204363262E+02 -0.10365447830E+03  0.16540627327E+03  0.90092201560E+02 0.  0.
         23    2    1    2    0    0 -0.35705794325E+02 -0.71838850256E+02 -0.13280623180E+03  0.18056057952E+03  0.92352062871E+02 0.  0.
        -11    1    3    3    0    0  0.25746750927E+02 -0.60207542836E+02 -0.70907750031E+02  0.96518145507E+02  0.00000000000E+00 0.  1.
         11    1    3    3    0    0  0.57211001926E+02  0.20003179574E+02 -0.32746728271E+02  0.68888127765E+02  0.00000000000E+00 0. -1.
        -13    1    4    4    0    0 -0.32156688509E+02 -0.63955123864E+01 -0.10386238150E+03  0.10891441358E+03  0.00000000000E+00 0. -1.
         13    1    4    4    0    0 -0.35491058162E+01 -0.65443337870E+02 -0.28943850300E+02  0.71646165940E+02  0.00000000000E+00 0.  1.
         21    1    1    2  502  503 -0.23560987729E+02 -0.34696495754E+00 -0.36152559946E+02  0.43153772930E+02  0.00000000000E+00 0.  1.
         21    1    1    2  503  501 -0.23690970799E+02  0.11239017848E+03 -0.10365502248E+03  0.15471644386E+03  0.00000000000E+00 0. -1.
<scales pt_clust_5="13000.00000" pt_clust_6="13000.00000" pt_clust_7="13000.00000" pt_clust_8="13000.00000" pt_clust_9="23.56354" pt_clust_10="116.46600"></scales>
<clustering>
<clus scale="   23.564">  2  9  1 -1</clus>
<clus scale="   90.092">  5  6 -1 -1</clus>
<clus scale="   92.352">  7  8 -1 -1</clus>
<clus scale="  116.466">  1 10  2 -1</clus>
<clus scale="  116.466">  1  5  2 -1</clus>
<clus scale="   23.564">  2  5  1 -1</clus>
</clustering>
</event>
<event>
10    2  0.2445576E-006  0.2762959E+03  0.7546771E-02  0.1097774E+00
         -1   -1    0    0    0  501 -0.00000000000E+00  0.00000000000E+00  0.19530615390E+03  0.19530615390E+03  0.00000000000E+00 0.  1.
          1   -1    0    0  502    0  0.00000000000E+00 -0.00000000000E+00 -0.67983005345E+03  0.67983005345E+03  0.00000000000E+00 0. -1.
         23    2    1    2    0    0 -0.20988946803E+01  0.20553465746E+03 -0.75569191074E+02  0.23776200000E+03  0.92580587756E+02 0.  0.
         23    2    1    2    0    0 -0.49359941062E+02 -0.29261869065E+03 -0.41356668694E+03  0.51719672954E+03  0.91613048240E+02 0.  0.
        -11    1    4    4    0    0 -0.53934537529E+02 -0.76403400825E+02 -0.10837561610E+03  0.14314918149E+03  0.00000000000E+00 0.  1.
         11    1    4    4    0    0  0.45745964666E+01 -0.21621528982E+03 -0.30519107084E+03  0.37404754806E+03  0.00000000000E+00 0. -1.
        -13    1    3    3    0    0 -0.60576719833E+01  0.18023356023E+03 -0.26311084697E+02  0.18224462900E+03  0.00000000000E+00 0.  1.
         13    1    3    3    0    0  0.39587773030E+01  0.25301097234E+02 -0.49258106377E+02  0.55517371001E+02  0.00000000000E+00 0. -1.
         21    1    1    2  502  503  0.35869184129E+02  0.64079113292E+02 -0.26859160565E+02  0.78193002479E+02  0.00000000000E+00 0.  1.
         21    1    1    2  503  501  0.15589651613E+02  0.23004919895E+02  0.31471139026E+02  0.41984475326E+02  0.00000000000E+00 0.  1.
<scales pt_clust_5="13000.00000" pt_clust_6="13000.00000" pt_clust_7="13000.00000" pt_clust_8="13000.00000" pt_clust_9="77.91775" pt_clust_10="27.78963"></scales>
<clustering>
<clus scale="   27.790">  1 10  2 -1</clus>
<clus scale="   77.918">  1  9  2 -1</clus>
<clus scale="   91.613">  5  6 -1 -1</clus>
<clus scale="   92.581">  7  8 -1 -1</clus>
<clus scale="  275.973">  2  5  1 -1</clus>
<clus scale="  275.973">  2  5  1 -1</clus>
</clustering>
</event>
<event>
10    2  0.2445576E-006  0.1901273E+03  0.7546771E-02  0.1158579E+00
          2   -1    0    0  502    0  0.00000000000E+00  0.00000000000E+00  0.14596200340E+03  0.14596200340E+03  0.00000000000E+00 0. -1.
         -2   -1    0    0    0  501 -0.00000000000E+00 -0.00000000000E+00 -0.11613029056E+04  0.11613029056E+04  0.00000000000E+00 0.  1.
         23    2    1    2    0    0  0.15777886550E+02  0.16008647243E+03 -0.34638912131E+03  0.39238425635E+03  0.90018669814E+02 0.  0.
         23    2    1    2    0    0 -0.12854165808E+03 -0.14011200348E+03 -0.47911702361E+03  0.52364253543E+03  0.92163177087E+02 0.  0.
        -11    1    4    4    0    0 -0.14260409955E+03 -0.12067921417E+03 -0.43520199449E+03  0.47360339732E+03  0.00000000000E+00 0.  1.
         11    1    4    4    0    0  0.14062441460E+02 -0.19432789311E+02 -0.43915029121E+02  0.50039138111E+02  0.00000000000E+00 0. -1.
        -13    1    3    3    0    0 -0.34978376728E+02  0.42187002743E+02 -0.12479358289E+03  0.13629625222E+03  0.00000000000E+00 0.  1.
         13    1    3    3    0    0  0.50756263278E+02  0.11789946968E+03 -0.22159553842E+03  0.25608800414E+03  0.00000000000E+00 0. -1.
         21    1    1    2  502  503  0.82933281598E+02  0.20797980352E+02  0.79773673837E+02  0.11693726618E+03  0.00000000000E+00 0. -1.
         21    1    1    2  503  501  0.29830489936E+02 -0.40772449296E+02 -0.26960843109E+03  0.27430085101E+03  0.00000000000E+00 0.  1.
<scales pt_clust_5="13000.00000" pt_clust_6="13000.00000" pt_clust_7="13000.00000" pt_clust_8="13000.00000" pt_clust_9="85.90427" pt_clust_10="50.51981"></scales>
<clustering>
<clus scale="   50.520">  2 10  1 -1</clus>
<clus scale="   85.904">  1  9  2 -1</clus>
<clus scale="   90.019">  7  8 -1 -1</clus>
<clus scale="   92.163">  5  6 -1 -1</clus>
<clus scale="  189.097">  2  7  1 -1</clus>
<clus scale="   85.904">  1  5  2 -1</clus>
</clustering>
</event>
<event>
10    2  0.2445576E-006  0.9714515E+02  0.7546771E-02  0.1290470E+00
          1   -1    0    0  502    0  0.00000000000E+00  0.00000000000E+00  0.69194238021E+03  0.69194238021E+03  0.00000000000E+00 0. -1.
         -1   -1    0    0    0  501 -0.00000000000E+00 -0.00000000000E+00 -0.25184937262E+03  0.25184937262E+03  0.00000000000E+00 0.  1.
         23    2    1    2    0    0  0.15917812173E+02  0.45215267862E+02 -0.10800455057E+03  0.14906121034E+03  0.90865088405E+02 0.  0.
         23    2    1    2    0    0 -0.27892679178E+02  0.36353908126E+02 -0.89507736004E+02  0.13542909326E+03  0.90718224787E+02 0.  0.
        -11    1    3    3    0    0 -0.23158490781E+01  0.55478747658E+02 -0.11441518175E+03  0.12717738955E+03  0.00000000000E+00 0.  1.
         11    1    3    3    0    0  0.18233661251E+02 -0.10263479796E+02  0.64106311756E+01  0.21883820786E+02  0.00000000000E+00 0. -1.
        -11    1    4    4    0    0 -0.52444071069E+02  0.46104626766E+02 -0.82527719668E+02  0.10810569695E+03  0.00000000000E+00 0.  1.
         11    1    4    4    0    0  0.24551391891E+02 -0.97507186399E+01 -0.69800163362E+01  0.27323396309E+02  0.00000000000E+00 0. -1.
         21    1    1    2  502  503  0.24453399795E+02 -0.98232737491E+02  0.62846428844E+03  0.63656500165E+03  0.00000000000E+00 0. -1.
         21    1    1    2  503  501 -0.12478532790E+02  0.16663561503E+02  0.91410057237E+01  0.22736447572E+02  0.00000000000E+00 0.  1.
<scales pt_clust_5="13000.00000" pt_clust_6="13000.00000" pt_clust_7="13000.00000" pt_clust_8="13000.00000" pt_clust_9="100.91362" pt_clust_10="20.81797"></scales>
<clustering>
<clus scale="   20.818">  2 10  1 -1</clus>
<clus scale="   90.718">  7  8 -1 -1</clus>
<clus scale="   90.865">  5  6 -1 -1</clus>
<clus scale="  100.914">  1  9  2 -1</clus>
<clus scale="  100.914">  1  7  2 -1</clus>
<clus scale="   97.145">  1  5  2 -1</clus>
</clustering>
</event>
<event>
10    2  0.2445576E-006  0.1524372E+03  0.7546771E-02  0.1199708E+00
          2   -1    0    0  502    0  0.00000000000E+00  0.00000000000E+00  0.22934047009E+03  0.22934047009E+03  0.00000000000E+00 0. -1.
         -2   -1    0    0    0  501 -0.00000000000E+00 -0.00000000000E+00 -0.21784081350E+03  0.21784081350E+03  0.00000000000E+00 0.  1.
         23    2    1    2    0    0 -0.10494088355E+03  0.10125884734E+02  0.90433126045E+01  0.14763632465E+03  0.10295426300E+03 0.  0.
         23    2    1    2    0    0  0.10372380540E+03 -0.61808486728E+02  0.94080634393E+02  0.17862963253E+03  0.92078569776E+02 0.  0.
        -11    1    3    3    0    0 -0.57706951962E+02  0.67130906493E+01 -0.46666631546E+02  0.74518000447E+02  0.00000000000E+00 0. -1.
         11    1    3    3    0    0 -0.47233931586E+02  0.34127940851E+01  0.55709944150E+02  0.73118324200E+02  0.00000000000E+00 0.  1.
        -13    1    4    4    0    0  0.82459404041E+01 -0.50398435799E+02  0.12617872296E+02  0.52604263756E+02  0.00000000000E+00 0. -1.
         13    1    4    4    0    0  0.95477864992E+02 -0.11410050930E+02  0.81462762097E+02  0.12602536877E+03  0.00000000000E+00 0.  1.
         21    1    1    2  502  503 -0.96317786255E+01  0.26847220747E+02 -0.35226023505E+01  0.28739400631E+02  0.00000000000E+00 0.  1.
         21    1    1    2  503  501  0.10848856778E+02  0.24835381247E+02 -0.88101688058E+02  0.92175925782E+02  0.00000000000E+00 0.  1.
<scales pt_clust_5="13000.00000" pt_clust_6="13000.00000" pt_clust_7="13000.00000" pt_clust_8="13000.00000" pt_clust_9="31.10165" pt_clust_10="27.10155"></scales>
<clustering>
<clus scale="   27.102">  2 10  1 -1</clus>
<clus scale="   31.102">  2  9  1 -1</clus>
<clus scale="   92.079">  7  8 -1 -1</clus>
<clus scale="  102.954">  5  6 -1 -1</clus>
<clus scale="  145.313">  1  7  2 -1</clus>
<clus scale="  145.313">  1  5  2 -1</clus>
</clustering>
</event>
<event>
10    2  0.2445576E-006  0.1151360E+03  0.7546771E-02  0.1252939E+00
         -1   -1    0    0    0  501 -0.00000000000E+00  0.00000000000E+00  0.59925097047E+02  0.59925097047E+02  0.00000000000E+00 0.  1.
          1   -1    0    0  502    0  0.00000000000E+00 -0.00000000000E+00 -0.75770852920E+03  0.75770852920E+03  0.00000000000E+00 0. -1.
         23    2    1    2    0    0  0.97464086023E+02  0.36968324476E+02 -0.12982893548E+03  0.18854946584E+03  0.88484142670E+02 0.  0.
         23    2    1    2    0    0 -0.38218538804E+02  0.21731219905E+02 -0.13981771912E+03  0.17357208163E+03  0.92980483516E+02 0.  0.
        -13    1    3    3    0    0  0.31569424980E+02  0.58341594869E+02 -0.75577142800E+02  0.10055980708E+03  0.00000000000E+00 0. -1.
         13    1    3    3    0    0  0.65894661043E+02 -0.21373270393E+02 -0.54251792675E+02  0.87989658766E+02  0.00000000000E+00 0.  1.
        -13    1    4    4    0    0  0.13980214132E+02 -0.27606373503E+02 -0.38988162310E+02  0.49775848014E+02  0.00000000000E+00 0.  1.
         13    1    4    4    0    0 -0.52198752936E+02  0.49337593408E+02 -0.10082955681E+03  0.12379623361E+03  0.00000000000E+00 0. -1.
         21    1    1    2  502  503 -0.44313261836E+02 -0.76949152470E+02 -0.42186945241E+03  0.43111329383E+03  0.00000000000E+00 0. -1.
         21    1    1    2  503  501 -0.14932285382E+02  0.18249608090E+02 -0.62673251476E+01  0.24398784942E+02  0.00000000000E+00 0. -1.
<scales pt_clust_5="13000.00000" pt_clust_6="13000.00000" pt_clust_7="13000.00000" pt_clust_8="13000.00000" pt_clust_9="88.05941" pt_clust_10="23.58010"></scales>
<clustering>
<clus scale="   23.580">  1 10  2 -1</clus>
<clus scale="   88.059">  2  9  1 -1</clus>
<clus scale="   88.484">  5  6 -1 -1</clus>
<clus scale="   92.980">  7  8 -1 -1</clus>
<clus scale="  111.536">  1  5  2 -1</clus>
<clus scale="   88.059">  2  5  1 -1</clus>
</clustering>
</event>
<event>
10    2  0.2445576E-006  0.1099391E+03  0.7546771E-02  0.1260777E+00
         -1   -1    0    0    0  501 -0.00000000000E+00  0.00000000000E+00  0.35365149456E+03  0.35365149456E+03  0.00000000000E+00 0.  1.
          1   -1    0    0  503    0  0.00000000000E+00 -0.00000000000E+00 -0.61845619609E+02  0.61845619609E+02  0.00000000000E+00 0. -1.
         23    2    1    2    0    0 -0.83235341083E+01  0.66693170262E+02  0.14270634358E+03  0.18300380954E+03  0.92779489270E+02 0.  0.
         23    2    1    2    0    0  0.39903346877E+02 -0.35153013042E+02  0.64069321819E+02  0.12484278809E+03  0.93020601599E+02 0.  0.
        -11    1    4    4    0    0  0.52847674136E+02 -0.59209493580E+02  0.42439802148E+02  0.89998764424E+02  0.00000000000E+00 0.  1.
         11    1    4    4    0    0 -0.12944327259E+02  0.24056480537E+02  0.21629519671E+02  0.34844023666E+02  0.00000000000E+00 0. -1.
        -13    1    3    3    0    0 -0.46042023882E+02  0.18686875877E+02  0.87842322577E+02  0.10092245007E+03  0.00000000000E+00 0.  1.
         13    1    3    3    0    0  0.37718489774E+02  0.48006294385E+02  0.54864020999E+02  0.82081359464E+02  0.00000000000E+00 0. -1.
         21    1    1    2  502  501 -0.42070300386E+02 -0.13267966392E+02  0.65170770364E+02  0.78696749721E+02  0.00000000000E+00 0.  1.
         21    1    1    2  503  502  0.10490487617E+02 -0.18272190827E+02  0.19859439195E+02  0.28953766823E+02  0.00000000000E+00 0. -1.
<scales pt_clust_5="13000.00000" pt_clust_6="13000.00000" pt_clust_7="13000.00000" pt_clust_8="13000.00000" pt_clust_9="43.64837" pt_clust_10="21.06949"></scales>
<clustering>
<clus scale="   21.069">  2 10  1 -1</clus>
<clus scale="   43.648">  1  9  2 -1</clus>
<clus scale="   92.779">  7  8 -1 -1</clus>
<clus scale="   93.021">  5  6 -1 -1</clus>
<clus scale="  109.735">  1  7  2 -1</clus>
<clus scale="   21.069">  2  5  1 -1</clus>
</clustering>
</event>
<event>
10    2  0.2445576E-006  0.9721312E+02  0.7546771E-02  0.1288014E+00
          2   -1    0    0  502    0  0.00000000000E+00  0.00000000000E+00  0.19414196789E+03  0.19414196789E+03  0.00000000000E+00 0. -1.
         -2   -1    0    0    0  501 -0.00000000000E+00 -0.00000000000E+00 -0.14231831502E+03  0.14231831502E+03  0.00000000000E+00 0.  1.
         23    2    1    2    0    0  0.91578742351E+01 -0.11208776435E+02 -0.25294017528E+02  0.96617173349E+02  0.92117248839E+02 0.  0.
         23    2    1    2    0    0  0.36935222530E+02  0.11488669036E+02  0.26602832930E+02  0.10625709721E+03  0.95323972890E+02 0.  0.
        -11    1    3    3    0    0  0.45160375021E+02  0.15857127494E+02 -0.88937309984E+01  0.48682711669E+02  0.00000000000E+00 0.  1.
         11    1    3    3    0    0 -0.36002500786E+02 -0.27065903929E+02 -0.16400286530E+02  0.47934461680E+02  0.00000000000E+00 0. -1.
        -13    1    4    4    0    0  0.22455545130E+02  0.53477926874E+02  0.10096793065E+02  0.58873469407E+02  0.00000000000E+00 0.  1.
         13    1    4    4    0    0  0.14479677400E+02 -0.41989257839E+02  0.16506039865E+02  0.47383627800E+02  0.00000000000E+00 0. -1.
         21    1    1    2  502  503 -0.34993330258E+02  0.20433935285E+02  0.83658683801E+02  0.92956195324E+02  0.00000000000E+00 0. -1.
         21    1    1    2  503  501 -0.11099766507E+02 -0.20713827886E+02 -0.33143846331E+02  0.40629817029E+02  0.00000000000E+00 0. -1.
<scales pt_clust_5="13000.00000" pt_clust_6="13000.00000" pt_clust_7="13000.00000" pt_clust_8="13000.00000" pt_clust_9="40.49790" pt_clust_10="23.50037"></scales>
<clustering>
<clus scale="   23.500">  2 10  1 -1</clus>
<clus scale="   40.498">  1  9  2 -1</clus>
<clus scale="   92.117">  5  6 -1 -1</clus>
<clus scale="   94.071">  2  5  1 -1</clus>
<clus scale="   95.324">  7  8 -1 -1</clus>
<clus scale="   40.498">  1  5  2 -1</clus>
</clustering>
</event>
<event>
10    2  0.2445576E-006  0.1056251E+03  0.7546771E-02  0.1272873E+00
         -1   -1    0    0    0  501 -0.00000000000E+00  0.00000000000E+00  0.41892267002E+03  0.41892267002E+03  0.00000000000E+00 0.  1.
          1   -1    0    0  502    0  0.00000000000E+00 -0.00000000000E+00 -0.99984268477E+02  0.99984268477E+02  0.00000000000E+00 0. -1.
         23    2    1    2    0    0  0.25392139672E+02  0.72866195374E+02  0.25201451094E+03  0.27901913660E+03  0.91575770152E+02 0.  0.
         23    2    1    2    0    0 -0.21025163184E+02  0.26912985915E+02 -0.24553736041E+02  0.92549990681E+02  0.82439362707E+02 0.  0.
        -11    1    4    4    0    0 -0.10154829791E+01  0.52902687929E+02 -0.27474093896E+02  0.59620058967E+02  0.00000000000E+00 0.  1.
         11    1    4    4    0    0 -0.20009680205E+02 -0.25989702014E+02  0.29203578553E+01  0.32929931714E+02  0.00000000000E+00 0. -1.
        -13    1    3    3    0    0  0.25682007600E+02 -0.13642461081E+02  0.99671039917E+02  0.10382677139E+03  0.00000000000E+00 0. -1.
         13    1    3    3    0    0 -0.28986792776E+00  0.86508656455E+02  0.15234347102E+03  0.17519236521E+03  0.00000000000E+00 0.  1.
         21    1    1    2  502  503 -0.15495290647E+02 -0.80578026173E+02  0.40009929500E+02  0.91289193187E+02  0.00000000000E+00 0. -1.
         21    1    1    2  503  501  0.11128314159E+02 -0.19201155116E+02  0.51467697149E+02  0.56048618035E+02  0.00000000000E+00 0.  1.
<scales pt_clust_5="13000.00000" pt_clust_6="13000.00000" pt_clust_7="13000.00000" pt_clust_8="13000.00000" pt_clust_9="85.10670" pt_clust_10="22.19288"></scales>
<clustering>
<clus scale="   22.193">  1 10  2 -1</clus>
<clus scale="   82.439">  5  6 -1 -1</clus>
<clus scale="   85.107">  2  9  1 -1</clus>
<clus scale="   91.576">  7  8 -1 -1</clus>
<clus scale="   97.810">  2  5  1 -1</clus>
<clus scale="   85.107">  2  5  1 -1</clus>
</clustering>
</event>
<event>
10    2  0.2445576E-006  0.1258086E+03  0.7546771E-02  0.1234458E+00
          1   -1    0    0  502    0  0.00000000000E+00  0.00000000000E+00  0.26807960636E+03  0.26807960636E+03  0.00000000000E+00 0. -1.
         -1   -1    0    0    0  501 -0.00000000000E+00 -0.00000000000E+00 -0.13712624673E+03  0.13712624673E+03  0.00000000000E+00 0.  1.
         23    2    1    2    0    0  0.47394847600E+02  0.23394945808E+02 -0.94887373979E+01  0.10431847026E+03  0.89435518845E+02 0.  0.
         23    2    1    2    0    0 -0.85807333897E+02 -0.48736945011E+02  0.14872428061E+03  0.20067500453E+03  0.91724355755E+02 0.  0.
        -11    1    4    4    0    0 -0.12167774095E+02 -0.57615627582E+02  0.50389644657E+02  0.77503106755E+02  0.00000000000E+00 0.  1.
         11    1    4    4    0    0 -0.73639559802E+02  0.88786825714E+01  0.98334635954E+02  0.12317189777E+03  0.00000000000E+00 0. -1.
        -13    1    3    3    0    0 -0.13424040041E+01  0.47091981867E+02  0.71007988631E+01  0.47643238231E+02  0.00000000000E+00 0. -1.
         13    1    3    3    0    0  0.48737251604E+02 -0.23697036058E+02 -0.16589536261E+02  0.56675232026E+02  0.00000000000E+00 0.  1.
         21    1    1    2  502  503 -0.15637904038E+02  0.13985627731E+02  0.27361546121E+02  0.34478921559E+02  0.00000000000E+00 0. -1.
         21    1    1    2  503  501  0.54050390334E+02  0.11356371471E+02 -0.35643729703E+02  0.65733456743E+02  0.00000000000E+00 0.  1.
<scales pt_clust_5="13000.00000" pt_clust_6="13000.00000" pt_clust_7="13000.00000" pt_clust_8="13000.00000" pt_clust_9="20.97956" pt_clust_10="54.45268"></scales>
<clustering>
<clus scale="   20.980">  1  9  2 -1</clus>
<clus scale="   54.453">  2 10  1 -1</clus>
<clus scale="   89.436">  7  8 -1 -1</clus>
<clus scale="   91.724">  5  6 -1 -1</clus>
<clus scale="  124.150">  2  7  1 -1</clus>
<clus scale="   20.980">  1  5  2 -1</clus>
</clustering>
</event>
<event>
10    2  0.2445576E-006  0.1704390E+03  0.7546771E-02  0.1177417E+00
          1   -1    0    0  502    0  0.00000000000E+00  0.00000000000E+00  0.43323680319E+03  0.43323680319E+03  0.00000000000E+00 0. -1.
         -1   -1    0    0    0  501 -0.00000000000E+00 -0.00000000000E+00 -0.16306993527E+03  0.16306993527E+03  0.00000000000E+00 0.  1.
         23    2    1    2    0    0  0.88566549104E+02  0.81317365186E+02 -0.31393824035E+01  0.15149707318E+03  0.92113842391E+02 0.  0.
         23    2    1    2    0    0 -0.10909806596E+03 -0.12849647870E+03  0.55174392112E+02  0.19976993923E+03  0.91924327799E+02 0.  0.
        -13    1    4    4    0    0 -0.66175286581E+02 -0.81743280981E+02 -0.13758968855E+02  0.10606809965E+03  0.00000000000E+00 0.  1.
         13    1    4    4    0    0 -0.42922779381E+02 -0.46753197715E+02  0.68933360967E+02  0.93701839579E+02  0.00000000000E+00 0. -1.
        -13    1    3    3    0    0 -0.10581328444E+02  0.43999584316E+02  0.32172760852E+01  0.45368257593E+02  0.00000000000E+00 0.  1.
         13    1    3    3    0    0  0.99147877548E+02  0.37317780870E+02 -0.63566584887E+01  0.10612881559E+03  0.00000000000E+00 0. -1.
         21    1    1    2  502  503 -0.12787105908E+02  0.41798638494E+02  0.20369365586E+03  0.20833084672E+03  0.00000000000E+00 0. -1.
         21    1    1    2  503  501  0.33318622766E+02  0.53804750150E+01  0.14438202344E+02  0.36708879326E+02  0.00000000000E+00 0. -1.
<scales pt_clust_5="13000.00000" pt_clust_6="13000.00000" pt_clust_7="13000.00000" pt_clust_8="13000.00000" pt_clust_9="43.64358" pt_clust_10="33.75026"></scales>
<clustering>
<clus scale="   33.750">  2 10  1 -1</clus>
<clus scale="   43.644">  1  9  2 -1</clus>
<clus scale="   91.924">  5  6 -1 -1</clus>
<clus scale="   92.114">  7  8 -1 -1</clus>
<clus scale="  170.337">  1  5  2 -1</clus>
<clus scale="   43.644">  1  5  2 -1</clus>
</clustering>
</event>
<event>
10    2  0.2445576E-006  0.1753462E+03  0.7546771E-02  0.1173069E+00
         -2   -1    0    0    0  501 -0.00000000000E+00  0.00000000000E+00  0.58632757489E+03  0.58632757489E+03  0.00000000000E+00 0.  1.
          2   -1    0    0  502    0  0.00000000000E+00 -0.00000000000E+00 -0.23596035864E+03  0.23596035864E+03  0.00000000000E+00 0. -1.
         23    2    1    2    0    0  0.81970697431E+02 -0.11634301143E+02  0.36139758951E+03  0.38110466427E+03  0.88192943159E+02 0.  0.
         23    2    1    2    0    0 -0.10366183365E+03 -0.14905622150E+02 -0.11379993565E+03  0.18066321190E+03  0.93385317116E+02 0.  0.
        -13    1    4    4    0    0 -0.38546385189E+02 -0.49290661023E+02 -0.30917492359E+02  0.69794587247E+02  0.00000000000E+00 0.  1.
         13    1    4    4    0    0 -0.65115448463E+02  0.34385038873E+02 -0.82882443295E+02  0.11086862466E+03  0.00000000000E+00 0. -1.
        -13    1    3    3    0    0  0.83148448115E+02 -0.35124782953E+02  0.32842535275E+03  0.34060332813E+03  0.00000000000E+00 0.  1.
         13    1    3    3    0    0 -0.11777506833E+01  0.23490481811E+02  0.32972236759E+02  0.40501336142E+02  0.00000000000E+00 0. -1.
         21    1    1    2  502  503 -0.70972766642E+02  0.63343588227E+02 -0.25088573786E+02  0.98381808831E+02  0.00000000000E+00 0. -1.
         21    1    1    2  503  501  0.92663902863E+02 -0.36803664934E+02  0.12785813618E+03  0.16213824852E+03  0.00000000000E+00 0.  1.
<scales pt_clust_5="13000.00000" pt_clust_6="13000.00000" pt_clust_7="13000.00000" pt_clust_8="13000.00000" pt_clust_9="95.12909" pt_clust_10="90.97252"></scales>
<clustering>
<clus scale="   88.193">  7  8 -1 -1</clus>
<clus scale="   93.385">  5  6 -1 -1</clus>
<clus scale="   95.129">  2  9  1 -1</clus>
<clus scale="   90.973">  1 10  2 -1</clus>
<clus scale="  172.637">  1  7  2 -1</clus>
<clus scale="   95.129">  2  5  1 -1</clus>
</clustering>
</event>
<event>
10    2  0.2445576E-006  0.2037600E+03  0.7546771E-02  0.1146878E+00
          1   -1    0    0  502    0  0.00000000000E+00  0.00000000000E+00  0.21241195596E+03  0.21241195596E+03  0.00000000000E+00 0. -1.
         -1   -1    0    0    0  501 -0.00000000000E+00 -0.00000000000E+00 -0.28381838035E+03  0.28381838035E+03  0.00000000000E+00 0.  1.
         23    2    1    2    0    0  0.13396450662E+03  0.12597618859E+03 -0.57125085262E+02  0.21162509006E+03  0.87780489017E+02 0.  0.
         23    2    1    2    0    0 -0.13306812901E+03 -0.13061692391E+03 -0.39483203908E+02  0.21111506442E+03  0.90789532782E+02 0.  0.
        -11    1    4    4    0    0  0.11227233831E+02 -0.25742299749E+02  0.13628294216E+01  0.28117149213E+02  0.00000000000E+00 0.  1.
         11    1    4    4    0    0 -0.14429536284E+03 -0.10487462416E+03 -0.40846033330E+02  0.18299791520E+03  0.00000000000E+00 0. -1.
        -13    1    3    3    0    0  0.10259734904E+02  0.21750248746E+02 -0.42978014038E+02  0.49248808833E+02  0.00000000000E+00 0. -1.
         13    1    3    3    0    0  0.12370477171E+03  0.10422593985E+03 -0.14147071223E+02  0.16237628123E+03  0.00000000000E+00 0.  1.
         21    1    1    2  502  503  0.21507915495E+02  0.22152226465E+02  0.31773997363E+02  0.44304610085E+02  0.00000000000E+00 0.  1.
         21    1    1    2  503  501 -0.22404293104E+02 -0.17511491143E+02 -0.65721325764E+01  0.29185571746E+02  0.00000000000E+00 0. -1.
<scales pt_clust_5="13000.00000" pt_clust_6="13000.00000" pt_clust_7="13000.00000" pt_clust_8="13000.00000" pt_clust_9="30.21221" pt_clust_10="28.43597"></scales>
<clustering>
<clus scale="   28.436">  2 10  1 -1</clus>
<clus scale="   30.212">  1  9  2 -1</clus>
<clus scale="   87.780">  7  8 -1 -1</clus>
<clus scale="   90.790">  5  6 -1 -1</clus>
<clus scale="  202.437">  2  7  1 -1</clus>
<clus scale="   30.212">  1  5  2 -1</clus>
</clustering>
</event>
<event>
10    2  0.2445576E-006  0.1195929E+03  0.7546771E-02  0.1243983E+00
         -2   -1    0    0    0  501 -0.00000000000E+00  0.00000000000E+00  0.10449204361E+03  0.10449204361E+03  0.00000000000E+00 0.  1.
          2   -1    0    0  502    0  0.00000000000E+00 -0.00000000000E+00 -0.77144827809E+03  0.77144827809E+03  0.00000000000E+00 0. -1.
         23    2    1    2    0    0  0.35682405695E+02 -0.36955281568E+02 -0.38963562233E+02  0.11163848216E+03  0.91137613560E+02 0.  0.
         23    2    1    2    0    0 -0.22240930443E+02  0.13039962314E+03 -0.42628464082E+03  0.45568159298E+03  0.91806309621E+02 0.  0.
        -11    1    4    4    0    0  0.31395766659E+02  0.19015753794E+02 -0.80866026579E+02  0.88806572454E+02  0.00000000000E+00 0.  1.
         11    1    4    4    0    0 -0.53636697103E+02  0.11138386934E+03 -0.34541861424E+03  0.36687502053E+03  0.00000000000E+00 0. -1.
        -11    1    3    3    0    0  0.52620922407E+02 -0.56443321338E+02 -0.37447100027E+02  0.85773511640E+02  0.00000000000E+00 0.  1.
         11    1    3    3    0    0 -0.16938516712E+02  0.19488039770E+02 -0.15164622062E+01  0.25864970522E+02  0.00000000000E+00 0. -1.
         21    1    1    2  502  503  0.38689065701E+02 -0.52135401545E+02 -0.22802694944E+03  0.23708908362E+03  0.00000000000E+00 0. -1.
         21    1    1    2  503  501 -0.52130540952E+02 -0.41308940024E+02  0.26318918018E+02  0.71531162940E+02  0.00000000000E+00 0.  1.
<scales pt_clust_5="13000.00000" pt_clust_6="13000.00000" pt_clust_7="13000.00000" pt_clust_8="13000.00000" pt_clust_9="64.92260" pt_clust_10="66.65519"></scales>
<clustering>
<clus scale="   64.923">  2  9  1 -1</clus>
<clus scale="   66.655">  1 10  2 -1</clus>
<clus scale="   91.138">  7  8 -1 -1</clus>
<clus scale="   91.806">  5  6 -1 -1</clus>
<clus scale="  119.080">  1  7  2 -1</clus>
<clus scale="   64.923">  2  5  1 -1</clus>
</clustering>
</event>
<event>
10    2  0.2445576E-006  0.2191367E+03  0.7546771E-02  0.1134804E+00
          1   -1    0    0  502    0  0.00000000000E+00  0.00000000000E+00  0.58187121325E+03  0.58187121325E+03  0.00000000000E+00 0. -1.
         -1   -1    0    0    0  501 -0.00000000000E+00 -0.00000000000E+00 -0.18928983502E+03  0.18928983502E+03  0.00000000000E+00 0.  1.
         23    2    1    2    0    0 -0.12212368618E+03 -0.11860148709E+03  0.91660640499E+02  0.21357310037E+03  0.90726449956E+02 0.  0.
         23    2    1    2    0    0  0.11144705517E+03  0.19874022853E+03  0.26619574430E+03  0.36283684407E+03  0.94192762945E+02 0.  0.
        -13    1    4    4    0    0  0.12587521432E+03  0.17977629933E+03  0.21939763713E+03  0.31032146326E+03  0.00000000000E+00 0. -1.
         13    1    4    4    0    0 -0.14428159151E+02  0.18963929194E+02  0.46798107170E+02  0.52515380811E+02  0.00000000000E+00 0.  1.
        -13    1    3    3    0    0  0.11487853072E+02 -0.21343334276E+02  0.26544971745E+02  0.35946407486E+02  0.00000000000E+00 0. -1.
         13    1    3    3    0    0 -0.13361153925E+03 -0.97258152810E+02  0.65115668755E+02  0.17762669289E+03  0.00000000000E+00 0.  1.
         21    1    1    2  502  503  0.37141123660E+01 -0.23434223815E+02  0.10301674305E+03  0.10571379675E+03  0.00000000000E+00 0.  1.
         21    1    1    2  503  501  0.69625186450E+01 -0.56704517627E+02 -0.68291749616E+02  0.89037307073E+02  0.00000000000E+00 0.  1.
<scales pt_clust_5="13000.00000" pt_clust_6="13000.00000" pt_clust_7="13000.00000" pt_clust_8="13000.00000" pt_clust_9="23.72672" pt_clust_10="57.64547"></scales>
<clustering>
<clus scale="   23.727">  1  9  2 -1</clus>
<clus scale="   57.645">  2 10  1 -1</clus>
<clus scale="   90.726">  7  8 -1 -1</clus>
<clus scale="   94.193">  5  6 -1 -1</clus>
<clus scale="  217.669">  2  7  1 -1</clus>
<clus scale="   23.727">  1  5  2 -1</clus>
</clustering>
</event>
<event>
10    2  0.2445576E-006  0.9186451E+02  0.7546771E-02  0.1299137E+00
          1   -1    0    0  502    0  0.00000000000E+00  0.00000000000E+00  0.12121270230E+03  0.12121270230E+03  0.00000000000E+00 0. -1.
         -1   -1    0    0    0  501 -0.00000000000E+00 -0.00000000000E+00 -0.34843029709E+03  0.34843029709E+03  0.00000000000E+00 0.  1.
         23    2    1    2    0    0  0.15865649508E+02  0.39316924302E+02 -0.21594597538E+03  0.23736052093E+03  0.88937130854E+02 0.  0.
         23    2    1    2    0    0 -0.33001751626E+02  0.37408207873E+02  0.29841200898E+02  0.10731220817E+03  0.90204895236E+02 0.  0.
        -11    1    4    4    0    0  0.25465374297E+02  0.13454512259E+02 -0.12349251372E+02  0.31337089809E+02  0.00000000000E+00 0.  1.
         11    1    4    4    0    0 -0.58467125924E+02  0.23953695614E+02  0.42190452270E+02  0.75975118361E+02  0.00000000000E+00 0. -1.
        -11    1    3    3    0    0  0.38120440650E+02  0.53819474873E+02 -0.18591934843E+03  0.19727064655E+03  0.00000000000E+00 0.  1.
         11    1    3    3    0    0 -0.22254791142E+02 -0.14502550571E+02 -0.30026626946E+02  0.40089874377E+02  0.00000000000E+00 0. -1.
         21    1    1    2  502  503  0.20177572145E+02 -0.33670035290E+02  0.24618511040E+02  0.46334401690E+02  0.00000000000E+00 0. -1.
         21    1    1    2  503  501 -0.30414700265E+01 -0.43055096885E+02 -0.65731331355E+02  0.78635868593E+02  0.00000000000E+00 0.  1.
<scales pt_clust_5="13000.00000" pt_clust_6="13000.00000" pt_clust_7="13000.00000" pt_clust_8="13000.00000" pt_clust_9="39.25310" pt_clust_10="45.61444"></scales>
<clustering>
<clus scale="   39.253">  1  9  2 -1</clus>
<clus scale="   45.614">  2 10  1 -1</clus>
<clus scale="   88.937">  7  8 -1 -1</clus>
<clus scale="   90.205">  5  6 -1 -1</clus>
<clus scale="   90.620">  2  7  1 -1</clus>
<clus scale="   39.253">  1  5  2 -1</clus>
</clustering>
</event>
<event>
10    2  0.2445576E-006  0.9700773E+02  0.7546771E-02  0.1287914E+00
         -2   -1    0    0    0  501 -0.00000000000E+00  0.00000000000E+00  0.32271344044E+03  0.32271344044E+03  0.00000000000E+00 0.  1.
          2   -1    0    0  502    0  0.00000000000E+00 -0.00000000000E+00 -0.18656201632E+03  0.18656201632E+03  0.00000000000E+00 0. -1.
         23    2    1    2    0    0  0.57111629683E+02 -0.15957920601E+02  0.23205588620E+03  0.25703743700E+03  0.93284062016E+02 0.  0.
         23    2    1    2    0    0  0.23568398944E+01 -0.28499890091E+02 -0.78863503935E+02  0.12379358249E+03  0.91036258621E+02 0.  0.
        -11    1    4    4    0    0 -0.31831092784E+02  0.63852619099E+01 -0.65578441092E+02  0.73174599237E+02  0.00000000000E+00 0.  1.
         11    1    4    4    0    0  0.34187932678E+02 -0.34885152001E+02 -0.13285062842E+02  0.50618983254E+02  0.00000000000E+00 0. -1.
        -13    1    3    3    0    0  0.29373370560E+02 -0.48207510177E+02  0.72371744487E+02  0.91784684646E+02  0.00000000000E+00 0. -1.
         13    1    3    3    0    0  0.27738259123E+02  0.32249589576E+02  0.15968414171E+03  0.16525275235E+03  0.00000000000E+00 0.  1.
         21    1    1    2  502  503 -0.29352374423E+02  0.22918000829E+02 -0.60691273610E+02  0.71205528849E+02  0.00000000000E+00 0.  1.
         21    1    1    2  503  501 -0.30116095154E+02  0.21539809864E+02  0.43650315473E+02  0.57238908421E+02  0.00000000000E+00 0.  1.
<scales pt_clust_5="13000.00000" pt_clust_6="13000.00000" pt_clust_7="13000.00000" pt_clust_8="13000.00000" pt_clust_9="37.95402" pt_clust_10="37.02624"></scales>
<clustering>
<clus scale="   37.026">  1 10  2 -1</clus>
<clus scale="   37.954">  2  9  1 -1</clus>
<clus scale="   91.036">  5  6 -1 -1</clus>
<clus scale="   93.284">  7  8 -1 -1</clus>
<clus scale="   94.848">  2  5  1 -1</clus>
<clus scale="   37.954">  2  5  1 -1</clus>
</clustering>
</event>
<event>
10    2  0.2445576E-006  0.1235230E+03  0.7546771E-02  0.1237400E+00
         -2   -1    0    0    0  501 -0.00000000000E+00  0.00000000000E+00  0.85123087485E+02  0.85123087485E+02  0.00000000000E+00 0. -1.
          2   -1    0    0  502    0  0.00000000000E+00 -0.00000000000E+00 -0.79601550896E+03  0.79601550896E+03  0.00000000000E+00 0.  1.
         23    2    1    2    0    0  0.33939391704E+02 -0.11103045690E+03 -0.17883583309E+03  0.23174755497E+03  0.90802144066E+02 0.  0.
         23    2    1    2    0    0 -0.97879400880E+02 -0.63643748681E+01 -0.37345585255E+03  0.39665821164E+03  0.90816191670E+02 0.  0.
        -11    1    3    3    0    0  0.58887300359E+02 -0.61675534350E+02 -0.14086474315E+03  0.16466469428E+03  0.00000000000E+00 0.  1.
         11    1    3    3    0    0 -0.24947908655E+02 -0.49354922548E+02 -0.37971089944E+02  0.67082860684E+02  0.00000000000E+00 0. -1.
        -11    1    4    4    0    0 -0.75563884172E+02 -0.36834832118E+02 -0.16911105284E+03  0.18885246527E+03  0.00000000000E+00 0.  1.
         11    1    4    4    0    0 -0.22315516708E+02  0.30470457250E+02 -0.20434479972E+03  0.20780574636E+03  0.00000000000E+00 0. -1.
         21    1    1    2  502  503  0.78956947909E+02  0.96185280867E+02 -0.18016462110E+03  0.21896369237E+03  0.00000000000E+00 0.  1.
         21    1    1    2  503  501 -0.15016938733E+02  0.21209550899E+02  0.21563885266E+02  0.33769137478E+02  0.00000000000E+00 0. -1.
<scales pt_clust_5="13000.00000" pt_clust_6="13000.00000" pt_clust_7="13000.00000" pt_clust_8="13000.00000" pt_clust_9="127.04221" pt_clust_10="25.98756"></scales>
<clustering>
<clus scale="   25.988">  1 10  2 -1</clus>
<clus scale="   90.802">  5  6 -1 -1</clus>
<clus scale="   90.816">  7  8 -1 -1</clus>
<clus scale="  127.042">  1  9  2 -1</clus>
<clus scale="  123.513">  1  5  2 -1</clus>
<clus scale="  123.523">  2  5  1 -1</clus>
</clustering>
</event>
<event>
10    2  0.2445576E-006  0.1598138E+03  0.7546771E-02  0.1210712E+00
         -1   -1    0    0    0  501 -0.00000000000E+00  0.00000000000E+00  0.77246703893E+03  0.77246703893E+03  0.00000000000E+00 0.  1.
          1   -1    0    0  502    0  0.00000000000E+00 -0.00000000000E+00 -0.90314194273E+02  0.90314194273E+02  0.00000000000E+00 0. -1.
         23    2    1    2    0    0  0.11309103796E+03 -0.76615272403E+02  0.28448801498E+03  0.32921982593E+03  0.93769826076E+02 0.  0.
         23    2    1    2    0    0 -0.52691968443E+01  0.59750060754E+01  0.73348068391E+02  0.12303055922E+03  0.98453614621E+02 0.  0.
        -13    1    3    3    0    0  0.25488358492E+02 -0.40527928540E+02  0.18796845452E+03  0.19396986700E+03  0.00000000000E+00 0.  1.
         13    1    3    3    0    0  0.87602679471E+02 -0.36087343863E+02  0.96519560464E+02  0.13524995893E+03  0.00000000000E+00 0. -1.
        -13    1    4    4    0    0 -0.24349479120E+02 -0.31855608641E+02  0.21182831290E+01  0.40151762835E+02  0.00000000000E+00 0. -1.
         13    1    4    4    0    0  0.19080282275E+02  0.37830614717E+02  0.71229785262E+02  0.82878796384E+02  0.00000000000E+00 0.  1.
         21    1    1    2  502  503 -0.20719405615E+02 -0.21624060935E+02 -0.24919030613E+02  0.38959618415E+02  0.00000000000E+00 0. -1.
         21    1    1    2  503  501 -0.87102435504E+02  0.92264327262E+02  0.34923579190E+03  0.37157122964E+03  0.00000000000E+00 0.  1.
<scales pt_clust_5="13000.00000" pt_clust_6="13000.00000" pt_clust_7="13000.00000" pt_clust_8="13000.00000" pt_clust_9="29.94818" pt_clust_10="129.41275"></scales>
<clustering>
<clus scale="   29.948">  2  9  1 -1</clus>
<clus scale="   93.770">  5  6 -1 -1</clus>
<clus scale="   98.454">  7  8 -1 -1</clus>
<clus scale="   99.509">  2  7  1 -1</clus>
<clus scale="  129.413">  1 10  2 -1</clus>
<clus scale="   29.948">  2  5  1 -1</clus>
</clustering>
</event>
<event>
10    2  0.2445576E-006  0.1269502E+03  0.7546771E-02  0.1232508E+00
         -1   -1    0    0    0  501 -0.00000000000E+00  0.00000000000E+00  0.31464115738E+02  0.31464115738E+02  0.00000000000E+00 0.  1.
          1   -1    0    0  503    0  0.00000000000E+00 -0.00000000000E+00 -0.91341215254E+03  0.91341215254E+03  0.00000000000E+00 0. -1.
         23    2    1    2    0    0 -0.60810421006E+02  0.34114290061E+02 -0.18294024751E+03  0.21493386707E+03  0.88700287300E+02 0.  0.
         23    2    1    2    0    0  0.73269521244E+02 -0.84595492683E+02 -0.51646454958E+03  0.53612250167E+03  0.90370823262E+02 0.  0.
        -11    1    4    4    0    0 -0.20305392381E+02 -0.27648711921E+02 -0.12219021312E+03  0.12691417735E+03  0.00000000000E+00 0.  1.
         11    1    4    4    0    0  0.93574913625E+02 -0.56946780762E+02 -0.39427433647E+03  0.40920832432E+03  0.00000000000E+00 0. -1.
        -13    1    3    3    0    0 -0.26426620161E+02  0.50756439886E+02 -0.47996757882E+02  0.74687825046E+02  0.00000000000E+00 0.  1.
         13    1    3    3    0    0 -0.34383800845E+02 -0.16642149825E+02 -0.13494348963E+03  0.14024604203E+03  0.00000000000E+00 0. -1.
         21    1    1    2  502  501  0.63959003025E+01  0.40047700346E+02 -0.88659308572E+02  0.97494609288E+02  0.00000000000E+00 0.  1.
         21    1    1    2  503  502 -0.18855000541E+02  0.10433502276E+02 -0.93883931133E+02  0.96325290242E+02  0.00000000000E+00 0.  1.
<scales pt_clust_5="13000.00000" pt_clust_6="13000.00000" pt_clust_7="13000.00000" pt_clust_8="13000.00000" pt_clust_9="41.45301" pt_clust_10="21.54922"></scales>
<clustering>
<clus scale="   21.549">  2 10  1 -1</clus>
<clus scale="   41.453">  1  9  2 -1</clus>
<clus scale="   88.700">  7  8 -1 -1</clus>
<clus scale="   90.371">  5  6 -1 -1</clus>
<clus scale="  125.766">  1  7  2 -1</clus>
<clus scale="   21.549">  2  5  1 -1</clus>
</clustering>
</event>
<event>
10    2  0.2445576E-006  0.1389111E+03  0.7546771E-02  0.1215130E+00
          2   -1    0    0  503    0  0.00000000000E+00  0.00000000000E+00  0.75580827006E+03  0.75580827006E+03  0.00000000000E+00 0. -1.
         -2   -1    0    0    0  501 -0.00000000000E+00 -0.00000000000E+00 -0.11346398323E+03  0.11346398323E+03  0.00000000000E+00 0.  1.
         23    2    1    2    0    0 -0.63496489349E+02  0.58335543722E+02  0.83448713314E+02  0.15101166608E+03  0.91684217382E+02 0.  0.
         23    2    1    2    0    0  0.29134377775E+02 -0.10799794091E+03  0.59078700362E+03  0.60801399154E+03  0.90218418591E+02 0.  0.
        -11    1    3    3    0    0 -0.62873142986E+02 -0.15348686369E+01  0.26063926844E+02  0.68078750086E+02  0.00000000000E+00 0.  1.
         11    1    3    3    0    0 -0.62334636281E+00  0.59870412359E+02  0.57384786470E+02  0.82932915992E+02  0.00000000000E+00 0. -1.
        -11    1    4    4    0    0 -0.18908146593E+02 -0.21409830063E+02  0.44880991745E+02  0.53199645214E+02  0.00000000000E+00 0.  1.
         11    1    4    4    0    0  0.48042524368E+02 -0.86588110847E+02  0.54590601187E+03  0.55481434632E+03  0.00000000000E+00 0. -1.
         21    1    1    2  502  501 -0.41329344948E+01  0.26630505916E+02  0.25704520952E+02  0.37242279605E+02  0.00000000000E+00 0. -1.
         21    1    1    2  503  502  0.38495046069E+02  0.23031891272E+02 -0.57595951053E+02  0.73004316072E+02  0.00000000000E+00 0.  1.
<scales pt_clust_5="13000.00000" pt_clust_6="13000.00000" pt_clust_7="13000.00000" pt_clust_8="13000.00000" pt_clust_9="26.94930" pt_clust_10="53.19977"></scales>
<clustering>
<clus scale="   26.949">  2  9  1 -1</clus>
<clus scale="   53.200">  2 10  1 -1</clus>
<clus scale="   90.218">  7  8 -1 -1</clus>
<clus scale="   91.684">  5  6 -1 -1</clus>
<clus scale="  137.948">  1  7  2 -1</clus>
<clus scale="  137.948">  1  5  2 -1</clus>
</clustering>
</event>
<event>
10    2  0.2445576E-006  0.9310327E+02  0.7546771E-02  0.1296232E+00
         -1   -1    0    0    0  501 -0.00000000000E+00  0.00000000000E+00  0.15157846640E+03  0.15157846640E+03  0.00000000000E+00 0.  1.
          1   -1    0    0  502    0  0.00000000000E+00 -0.00000000000E+00 -0.27668147712E+03  0.27668147712E+03  0.00000000000E+00 0. -1.
         23    2    1    2    0    0 -0.76382954195E+01  0.55068250302E+01  0.82621583074E+02  0.12340521324E+03  0.91180326756E+02 0.  0.
         23    2    1    2    0    0 -0.13944541439E+02  0.14109930731E+02 -0.49427215331E+02  0.10668113324E+03  0.92435243243E+02 0.  0.
        -11    1    4    4    0    0 -0.47136325284E+01  0.53352222463E+02 -0.21891201150E+02  0.57861063429E+02  0.00000000000E+00 0. -1.
         11    1    4    4    0    0 -0.92309089106E+01 -0.39242291731E+02 -0.27536014181E+02  0.48820069814E+02  0.00000000000E+00 0.  1.
        -13    1    3    3    0    0 -0.10400379854E+02  0.44074209762E+02  0.68753922328E+02  0.82327429832E+02  0.00000000000E+00 0. -1.
         13    1    3    3    0    0  0.27620844348E+01 -0.38567384732E+02  0.13867660746E+02  0.41077783412E+02  0.00000000000E+00 0.  1.
         21    1    1    2  502  503  0.25690434335E+02  0.77221003850E+00 -0.17158072543E+03  0.17349507216E+03  0.00000000000E+00 0. -1.
         21    1    1    2  503  501 -0.41075974767E+01 -0.20388965800E+02  0.13283346964E+02  0.24678524874E+02  0.00000000000E+00 0. -1.
<scales pt_clust_5="13000.00000" pt_clust_6="13000.00000" pt_clust_7="13000.00000" pt_clust_8="13000.00000" pt_clust_9="25.66839" pt_clust_10="20.79861"></scales>
<clustering>
<clus scale="   20.799">  1 10  2 -1</clus>
<clus scale="   25.668">  2  9  1 -1</clus>
<clus scale="   91.180">  7  8 -1 -1</clus>
<clus scale="   91.857">  1  7  2 -1</clus>
<clus scale="   92.435">  5  6 -1 -1</clus>
<clus scale="   25.668">  2  5  1 -1</clus>
</clustering>
</event>
<event>
10    2  0.2445576E-006  0.1998413E+03  0.7546771E-02  0.1171534E+00
         -2   -1    0    0    0  501 -0.00000000000E+00  0.00000000000E+00  0.22229551713E+03  0.22229551713E+03  0.00000000000E+00 0.  1.
          2   -1    0    0  502    0  0.00000000000E+00 -0.00000000000E+00 -0.39914289166E+03  0.39914289166E+03  0.00000000000E+00 0. -1.
         23    2    1    2    0    0 -0.37646358513E+01 -0.81210828995E+02 -0.23820163424E+02  0.12657337428E+03  0.94042796973E+02 0.  0.
         23    2    1    2    0    0  0.15373120185E+03  0.25769088460E+02 -0.43046819566E+01  0.18105109331E+03  0.91998042166E+02 0.  0.
        -13    1    3    3    0    0 -0.37011221181E+02 -0.51214308075E+00 -0.61079882974E+01  0.37515334263E+02  0.00000000000E+00 0.  1.
         13    1    3    3    0    0  0.33246585329E+02 -0.80698685914E+02 -0.17712175126E+02  0.89058040019E+02  0.00000000000E+00 0. -1.
        -13    1    4    4    0    0  0.89516648455E+02 -0.82898736273E+01  0.37263701837E+02  0.97316678067E+02  0.00000000000E+00 0.  1.
         13    1    4    4    0    0  0.64214553391E+02  0.34058962087E+02 -0.41568383793E+02  0.83734415248E+02  0.00000000000E+00 0. -1.
         21    1    1    2  502  503 -0.18743379045E+03  0.35166418107E+02 -0.17899827974E+03  0.26155016137E+03  0.00000000000E+00 0. -1.
         21    1    1    2  503  501  0.37467224457E+02  0.20275322427E+02  0.30275750585E+02  0.52263779824E+02  0.00000000000E+00 0.  1.
<scales pt_clust_5="13000.00000" pt_clust_6="13000.00000" pt_clust_7="13000.00000" pt_clust_8="13000.00000" pt_clust_9="177.40602" pt_clust_10="42.60143"></scales>
<clustering>
<clus scale="   42.601">  1 10  2 -1</clus>
<clus scale="   91.998">  7  8 -1 -1</clus>
<clus scale="   94.043">  5  6 -1 -1</clus>
<clus scale="  120.768">  1  5  2 -1</clus>
<clus scale="  177.406">  2  9  1 -1</clus>
<clus scale="  177.406">  2  5  1 -1</clus>
</clustering>
</event>
<event>
10    2  0.2445576E-006  0.1198500E+03  0.7546771E-02  0.1243447E+00
         -3   -1    0    0    0  501 -0.00000000000E+00  0.00000000000E+00  0.31130344623E+03  0.31130344623E+03  0.00000000000E+00 0.  1.
          3   -1    0    0  502    0  0.00000000000E+00 -0.00000000000E+00 -0.13791057202E+03  0.13791057202E+03  0.00000000000E+00 0. -1.
         23    2    1    2    0    0 -0.31056563907E+02  0.58848331280E+02  0.73311801960E+02  0.13456592943E+03  0.91135793194E+02 0.  0.
         23    2    1    2    0    0  0.29519332760E+02 -0.92249423989E+02 -0.59146187653E+01  0.13334617281E+03  0.91459673374E+02 0.  0.
        -13    1    3    3    0    0 -0.63707213908E+01  0.46604427108E+02 -0.88882007926E+01  0.47870229062E+02  0.00000000000E+00 0. -1.
         13    1    3    3    0    0 -0.24685842517E+02  0.12243904172E+02  0.82200002752E+02  0.86695700370E+02  0.00000000000E+00 0.  1.
        -13    1    4    4    0    0  0.59768059218E+02 -0.81319035004E+02 -0.19489557176E+01  0.10093960959E+03  0.00000000000E+00 0. -1.
         13    1    4    4    0    0 -0.30248726458E+02 -0.10930388985E+02 -0.39656630476E+01  0.32406563210E+02  0.00000000000E+00 0.  1.
         21    1    1    2  502  503 -0.16147696874E+02  0.21108503025E+02 -0.32021928153E+02  0.41613950749E+02  0.00000000000E+00 0. -1.
         21    1    1    2  503  501  0.17684928022E+02  0.12292589685E+02  0.13801761916E+03  0.13968796526E+03  0.00000000000E+00 0.  1.
<scales pt_clust_5="13000.00000" pt_clust_6="13000.00000" pt_clust_7="13000.00000" pt_clust_8="13000.00000" pt_clust_9="26.55606" pt_clust_10="21.53751"></scales>
<clustering>
<clus scale="   21.538">  1 10  2 -1</clus>
<clus scale="   26.556">  2  9  1 -1</clus>
<clus scale="   91.136">  5  6 -1 -1</clus>
<clus scale="   91.460">  7  8 -1 -1</clus>
<clus scale="  119.603">  1  5  2 -1</clus>
<clus scale="   26.556">  2  5  1 -1</clus>
</clustering>
</event>
<event>
10    2  0.2445576E-006  0.1015207E+03  0.7546771E-02  0.1278909E+00
         -1   -1    0    0    0  501 -0.00000000000E+00  0.00000000000E+00  0.10027453661E+03  0.10027453661E+03  0.00000000000E+00 0.  1.
          1   -1    0    0  502    0  0.00000000000E+00 -0.00000000000E+00 -0.20969362633E+03  0.20969362633E+03  0.00000000000E+00 0. -1.
         23    2    1    2    0    0  0.26065084558E+02 -0.57190038974E+02 -0.19986049102E+02  0.11422890677E+03  0.93266884752E+02 0.  0.
         23    2    1    2    0    0 -0.31636935572E+02  0.18145231604E+01 -0.52314178903E+02  0.10845726153E+03  0.89565708160E+02 0.  0.
        -11    1    3    3    0    0  0.34540483365E+02 -0.15035528122E+02  0.30098858984E+02  0.48218807628E+02  0.00000000000E+00 0.  1.
         11    1    3    3    0    0 -0.84753988068E+01 -0.42154510852E+02 -0.50084908086E+02  0.66010099137E+02  0.00000000000E+00 0. -1.
        -13    1    4    4    0    0  0.29998799487E+02 -0.93518654304E+01 -0.10443651409E+02  0.33112765098E+02  0.00000000000E+00 0. -1.
         13    1    4    4    0    0 -0.61635735059E+02  0.11166388591E+02 -0.41870527494E+02  0.75344496435E+02  0.00000000000E+00 0.  1.
         21    1    1    2  502  503  0.13350612312E+02  0.34197907981E+02 -0.49436988595E+02  0.61577200332E+02  0.00000000000E+00 0. -1.
         21    1    1    2  503  501 -0.77787612978E+01  0.21177607832E+02  0.12318126877E+02  0.25704794311E+02  0.00000000000E+00 0.  1.
<scales pt_clust_5="13000.00000" pt_clust_6="13000.00000" pt_clust_7="13000.00000" pt_clust_8="13000.00000" pt_clust_9="37.99022" pt_clust_10="22.56103"></scales>
<clustering>
<clus scale="   22.561">  1 10  2 -1</clus>
<clus scale="   37.990">  2  9  1 -1</clus>
<clus scale="   89.566">  7  8 -1 -1</clus>
<clus scale="   93.267">  5  6 -1 -1</clus>
<clus scale="   98.131">  2  7  1 -1</clus>
<clus scale="   37.990">  2  5  1 -1</clus>
</clustering>
</event>
<event>
10    2  0.2445576E-006  0.1591331E+03  0.7546771E-02  0.1189926E+00
         -1   -1    0    0    0  501 -0.00000000000E+00  0.00000000000E+00  0.68036258370E+02  0.68036258370E+02  0.00000000000E+00 0.  1.
          1   -1    0    0  502    0  0.00000000000E+00 -0.00000000000E+00 -0.66753818582E+03  0.66753818582E+03  0.00000000000E+00 0. -1.
         23    2    1    2    0    0  0.47107890886E+02  0.14986350620E+03 -0.23771430790E+03  0.29816371354E+03  0.87836689469E+02 0.  0.
         23    2    1    2    0    0 -0.28080236035E+02 -0.10510407498E+03 -0.15808028601E+03  0.21169506135E+03  0.89387112836E+02 0.  0.
        -11    1    4    4    0    0 -0.50704786695E+02 -0.10523191702E+03 -0.14233616086E+03  0.18413124244E+03  0.00000000000E+00 0. -1.
         11    1    4    4    0    0  0.22624550660E+02  0.12784203768E+00 -0.15744125144E+02  0.27563818907E+02  0.00000000000E+00 0.  1.
        -11    1    3    3    0    0 -0.71436990525E+01  0.21485129821E+02 -0.98892782696E+02  0.10145159293E+03  0.00000000000E+00 0. -1.
         11    1    3    3    0    0  0.54251589939E+02  0.12837837638E+03 -0.13882152520E+03  0.19671212061E+03  0.00000000000E+00 0.  1.
         21    1    1    2  502  503  0.22395017486E+02 -0.10083813367E+02 -0.14022453203E+03  0.14235919178E+03  0.00000000000E+00 0.  1.
         21    1    1    2  503  501 -0.41422672337E+02 -0.34675617854E+02 -0.63482801504E+02  0.83356477516E+02  0.00000000000E+00 0.  1.
<scales pt_clust_5="13000.00000" pt_clust_6="13000.00000" pt_clust_7="13000.00000" pt_clust_8="13000.00000" pt_clust_9="24.56054" pt_clust_10="52.61842"></scales>
<clustering>
<clus scale="   24.561">  2  9  1 -1</clus>
<clus scale="   52.618">  1 10  2 -1</clus>
<clus scale="   87.837">  7  8 -1 -1</clus>
<clus scale="   89.387">  5  6 -1 -1</clus>
<clus scale="  158.267">  1  7  2 -1</clus>
<clus scale="   24.561">  2  5  1 -1</clus>
</clustering>
</event>
<event>
10    2  0.2445576E-006  0.1457819E+03  0.7546771E-02  0.1206119E+00
          1   -1    0    0  502    0  0.00000000000E+00  0.00000000000E+00  0.48047313717E+03  0.48047313717E+03  0.00000000000E+00 0. -1.
         -1   -1    0    0    0  501 -0.00000000000E+00 -0.00000000000E+00 -0.76272614367E+02  0.76272614367E+02  0.00000000000E+00 0.  1.
         23    2    1    2    0    0  0.46322982792E+02  0.12564730316E+03  0.18565623428E+03  0.24656712771E+03  0.91619035215E+02 0.  0.
         23    2    1    2    0    0 -0.42764270670E+02 -0.86776494428E+02  0.14084119244E+03  0.19302343267E+03  0.89793436512E+02 0.  0.
        -13    1    3    3    0    0  0.35984682718E+02  0.10715207441E+03  0.79189560213E+02  0.13801250265E+03  0.00000000000E+00 0.  1.
         13    1    3    3    0    0  0.10338300074E+02  0.18495228750E+02  0.10646667407E+03  0.10855462506E+03  0.00000000000E+00 0. -1.
        -13    1    4    4    0    0 -0.32824072071E+02 -0.74837762053E+01  0.31385560053E+01  0.33812381569E+02  0.00000000000E+00 0. -1.
         13    1    4    4    0    0 -0.99401985995E+01 -0.79292718222E+02  0.13770263644E+03  0.15921105110E+03  0.00000000000E+00 0.  1.
         21    1    1    2  502  503  0.26966545700E+02 -0.40206391006E+01  0.62841806275E+02  0.68501479850E+02  0.00000000000E+00 0. -1.
         21    1    1    2  503  501 -0.30525257822E+02 -0.34850169636E+02  0.14861289805E+02  0.48653711302E+02  0.00000000000E+00 0. -1.
<scales pt_clust_5="13000.00000" pt_clust_6="13000.00000" pt_clust_7="13000.00000" pt_clust_8="13000.00000" pt_clust_9="27.26463" pt_clust_10="45.23378"></scales>
<clustering>
<clus scale="   27.265">  1  9  2 -1</clus>
<clus scale="   45.234">  2 10  1 -1</clus>
<clus scale="   89.793">  7  8 -1 -1</clus>
<clus scale="   91.619">  5  6 -1 -1</clus>
<clus scale="  144.642">  1  7  2 -1</clus>
<clus scale="   27.265">  1  5  2 -1</clus>
</clustering>
</event>
<event>
10    2  0.2445576E-006  0.1037547E+03  0.7546771E-02  0.1277311E+00
          2   -1    0    0  502    0  0.00000000000E+00  0.00000000000E+00  0.53842128287E+03  0.53842128287E+03  0.00000000000E+00 0. -1.
         -2   -1    0    0    0  501 -0.00000000000E+00 -0.00000000000E+00 -0.80850860172E+02  0.80850860172E+02  0.00000000000E+00 0.  1.
         23    2    1    2    0    0  0.28818861710E+01 -0.96062945951E+01 -0.10308658801E+02  0.92248019961E+02  0.91119935122E+02 0.  0.
         23    2    1    2    0    0  0.65919650870E+02  0.19939416929E+02  0.26052565044E+03  0.28757999777E+03  0.10042738600E+03 0.  0.
        -11    1    3    3    0    0 -0.40821814387E+02 -0.21794395307E+02 -0.41634000602E+01  0.46462351390E+02  0.00000000000E+00 0.  1.
         11    1    3    3    0    0  0.43703700558E+02  0.12188100712E+02 -0.61452587411E+01  0.45785668570E+02  0.00000000000E+00 0. -1.
        -13    1    4    4    0    0  0.51182627583E+02  0.49713764635E+02  0.23525996672E+03  0.24584216828E+03  0.00000000000E+00 0. -1.
         13    1    4    4    0    0  0.14737023287E+02 -0.29774347707E+02  0.25265683721E+02  0.41737829491E+02  0.00000000000E+00 0.  1.
         21    1    1    2  502  503 -0.62383899966E+02  0.98680851715E+01  0.20885382607E+03  0.21819498332E+03  0.00000000000E+00 0.  1.
         21    1    1    2  503  501 -0.64176370750E+01 -0.20201207505E+02 -0.15003950188E+01  0.21249141994E+02  0.00000000000E+00 0.  1.
<scales pt_clust_5="13000.00000" pt_clust_6="13000.00000" pt_clust_7="13000.00000" pt_clust_8="13000.00000" pt_clust_9="63.38917" pt_clust_10="21.19610"></scales>
<clustering>
<clus scale="   21.196">  2 10  1 -1</clus>
<clus scale="   63.389">  1  9  2 -1</clus>
<clus scale="   91.120">  5  6 -1 -1</clus>
<clus scale="   94.775">  2  5  1 -1</clus>
<clus scale="  100.427">  7  8 -1 -1</clus>
<clus scale="   63.389">  1  5  2 -1</clus>
</clustering>
</event>
<event>
10    2  0.2445576E-006  0.1703712E+03  0.7546771E-02  0.1196006E+00
          1   -1    0    0  502    0  0.00000000000E+00  0.00000000000E+00  0.10799748011E+04  0.10799748011E+04  0.00000000000E+00 0. -1.
         -1   -1    0    0    0  501 -0.00000000000E+00 -0.00000000000E+00 -0.16864652952E+03  0.16864652952E+03  0.00000000000E+00 0.  1.
         23    2    1    2    0    0  0.56709244665E+02 -0.43464822886E+02  0.24321598582E+02  0.11763106695E+03  0.90224156935E+02 0.  0.
         23    2    1    2    0    0  0.75490523713E+02 -0.41387104296E+02 -0.48996889239E+02  0.13421169817E+03  0.90555912000E+02 0.  0.
        -11    1    4    4    0    0  0.44823823412E+02 -0.69784538774E+02 -0.28855539487E+02  0.87816280702E+02  0.00000000000E+00 0.  1.
         11    1    4    4    0    0  0.30666700300E+02  0.28397434478E+02 -0.20141349752E+02  0.46395417469E+02  0.00000000000E+00 0. -1.
        -11    1    3    3    0    0  0.70433893829E+02 -0.58603906422E+02  0.89530402781E+01  0.92062523201E+02  0.00000000000E+00 0.  1.
         11    1    3    3    0    0 -0.13724649163E+02  0.15139083536E+02  0.15368558304E+02  0.25568543747E+02  0.00000000000E+00 0. -1.
         21    1    1    2  502  503 -0.13460402278E+03  0.61398357188E+02  0.95506775957E+03  0.96645870402E+03  0.00000000000E+00 0. -1.
         21    1    1    2  503  501  0.24042544067E+01  0.23453569994E+02 -0.19064197285E+02  0.30319861524E+02  0.00000000000E+00 0. -1.
<scales pt_clust_5="13000.00000" pt_clust_6="13000.00000" pt_clust_7="13000.00000" pt_clust_8="13000.00000" pt_clust_9="144.31211" pt_clust_10="23.57648"></scales>
<clustering>
<clus scale="   23.576">  2 10  1 -1</clus>
<clus scale="   90.224">  7  8 -1 -1</clus>
<clus scale="   90.556">  5  6 -1 -1</clus>
<clus scale="  112.834">  2  7  1 -1</clus>
<clus scale="  144.312">  1  9  2 -1</clus>
<clus scale="  144.312">  1  5  2 -1</clus>
</clustering>
</event>
<event>
10    2  0.2445576E-006  0.1449960E+03  0.7546771E-02  0.1241265E+00
          2   -1    0    0  502    0  0.00000000000E+00  0.00000000000E+00  0.49919715278E+03  0.49919715278E+03  0.00000000000E+00 0. -1.
         -2   -1    0    0    0  501 -0.00000000000E+00 -0.00000000000E+00 -0.11374675064E+03  0.11374675064E+03  0.00000000000E+00 0.  1.
         23    2    1    2    0    0 -0.69705865534E+02  0.96667410665E+02  0.68104510102E+02  0.16457014844E+03  0.90783332654E+02 0.  0.
         23    2    1    2    0    0  0.15295963644E+02 -0.14086017879E+01  0.14667623917E+03  0.16320943373E+03  0.69910295814E+02 0.  0.
        -13    1    4    4    0    0 -0.72244059136E+01  0.21499003315E+02  0.11796363963E+03  0.12012418348E+03  0.00000000000E+00 0. -1.
         13    1    4    4    0    0  0.22520369558E+02 -0.22907605103E+02  0.28712599543E+02  0.43085250249E+02  0.00000000000E+00 0.  1.
        -13    1    3    3    0    0  0.19898928388E+02  0.26485409811E+02  0.25550538134E+01  0.33226082885E+02  0.00000000000E+00 0.  1.
         13    1    3    3    0    0 -0.89604793922E+02  0.70182000854E+02  0.65549456288E+02  0.13134406556E+03  0.00000000000E+00 0. -1.
         21    1    1    2  502  503 -0.20077820027E+02 -0.13694759417E+02  0.17298249851E+03  0.17468145318E+03  0.00000000000E+00 0.  1.
         21    1    1    2  503  501  0.74487721916E+02 -0.81564049460E+02 -0.23128456455E+01  0.11048286806E+03  0.00000000000E+00 0.  1.
<scales pt_clust_5="13000.00000" pt_clust_6="13000.00000" pt_clust_7="13000.00000" pt_clust_8="13000.00000" pt_clust_9="24.30361" pt_clust_10="113.05846"></scales>
<clustering>
<clus scale="   24.304">  1  9  2 -1</clus>
<clus scale="   69.910">  5  6 -1 -1</clus>
<clus scale="   70.592">  1  5  2 -1</clus>
<clus scale="   90.783">  7  8 -1 -1</clus>
<clus scale="  113.058">  2 10  1 -1</clus>
<clus scale="   24.304">  1  5  2 -1</clus>
</clustering>
</event>
<event>
10    2  0.2445576E-006  0.1447965E+03  0.7546771E-02  0.1227590E+00
          4   -1    0    0  502    0  0.00000000000E+00  0.00000000000E+00  0.74169302860E+03  0.74169302860E+03  0.00000000000E+00 0. -1.
         -4   -1    0    0    0  501 -0.00000000000E+00 -0.00000000000E+00 -0.10312460764E+03  0.10312460764E+03  0.00000000000E+00 0.  1.
         23    2    1    2    0    0  0.45659446203E+00 -0.82500631441E+02  0.68700018645E+00  0.12239563258E+03  0.90408275277E+02 0.  0.
         23    2    1    2    0    0  0.25760923714E+02 -0.23158956111E+00  0.14044123648E+03  0.16874243040E+03  0.89925458516E+02 0.  0.
        -11    1    4    4    0    0  0.55229161361E+02 -0.99462674744E+01  0.11730771360E+03  0.13003956387E+03  0.00000000000E+00 0. -1.
         11    1    4    4    0    0 -0.29468237648E+02  0.97146779133E+01  0.23133522884E+02  0.38702866535E+02  0.00000000000E+00 0.  1.
        -13    1    3    3    0    0  0.36953023494E+02 -0.73963526977E+02 -0.10341674042E+02  0.83325143205E+02  0.00000000000E+00 0.  1.
         13    1    3    3    0    0 -0.36496429032E+02 -0.85371044638E+01  0.11028674228E+02  0.39070489374E+02  0.00000000000E+00 0. -1.
         21    1    1    2  502  503 -0.26471459881E+02  0.12249906904E+03  0.49838456254E+03  0.51390070274E+03  0.00000000000E+00 0. -1.
         21    1    1    2  503  501  0.25394170547E+00 -0.39766848038E+02 -0.94437823614E+00  0.39778870516E+02  0.00000000000E+00 0. -1.
<scales pt_clust_5="13000.00000" pt_clust_6="13000.00000" pt_clust_7="13000.00000" pt_clust_8="13000.00000" pt_clust_9="113.10334" pt_clust_10="39.76766"></scales>
<clustering>
<clus scale="   39.768">  2 10  1 -1</clus>
<clus scale="   89.925">  5  6 -1 -1</clus>
<clus scale="   90.408">  7  8 -1 -1</clus>
<clus scale="   93.818">  1  5  2 -1</clus>
<clus scale="  113.103">  1  9  2 -1</clus>
<clus scale="   93.818">  1  5  2 -1</clus>
</clustering>
</event>
<event>
10    2  0.2445576E-006  0.1005520E+03  0.7546771E-02  0.1280164E+00
         -1   -1    0    0    0  501 -0.00000000000E+00  0.00000000000E+00  0.21311448978E+03  0.21311448978E+03  0.00000000000E+00 0.  1.
          1   -1    0    0  502    0  0.00000000000E+00 -0.00000000000E+00 -0.12172296350E+03  0.12172296350E+03  0.00000000000E+00 0. -1.
         23    2    1    2    0    0  0.36039972492E+02 -0.15294644769E+02  0.11221111229E+03  0.14992205780E+03  0.91391924795E+02 0.  0.
         23    2    1    2    0    0 -0.49888821153E+02  0.10034151912E+02 -0.14871391429E+02  0.10380920993E+03  0.89250294689E+02 0.  0.
        -11    1    3    3    0    0 -0.19690294378E+02  0.16012099787E+02  0.66949629615E+02  0.71598519104E+02  0.00000000000E+00 0. -1.
         11    1    3    3    0    0  0.55730266869E+02 -0.31306744556E+02  0.45261482678E+02  0.78323538698E+02  0.00000000000E+00 0.  1.
        -11    1    4    4    0    0 -0.33098675022E+01 -0.24772679123E+02  0.23367482267E+02  0.34215202488E+02  0.00000000000E+00 0.  1.
         11    1    4    4    0    0 -0.46578953651E+02  0.34806831035E+02 -0.38238873697E+02  0.69594007440E+02  0.00000000000E+00 0. -1.
         21    1    1    2  502  503  0.95748178282E+01 -0.24218848411E+02 -0.32191778987E+02  0.41407008938E+02  0.00000000000E+00 0.  1.
         21    1    1    2  503  501  0.42740308335E+01  0.29479341268E+02  0.26243584403E+02  0.39699176610E+02  0.00000000000E+00 0.  1.
<scales pt_clust_5="13000.00000" pt_clust_6="13000.00000" pt_clust_7="13000.00000" pt_clust_8="13000.00000" pt_clust_9="26.04284" pt_clust_10="28.01639"></scales>
<clustering>
<clus scale="   26.043">  2  9  1 -1</clus>
<clus scale="   28.016">  1 10  2 -1</clus>
<clus scale="   89.250">  7  8 -1 -1</clus>
<clus scale="   91.392">  5  6 -1 -1</clus>
<clus scale="   98.610">  2  7  1 -1</clus>
<clus scale="   26.043">  2  5  1 -1</clus>
</clustering>
</event>
<event>
10    2  0.2445576E-006  0.2238498E+03  0.7546771E-02  0.1160220E+00
         -2   -1    0    0    0  501 -0.00000000000E+00  0.00000000000E+00  0.18607143401E+03  0.18607143401E+03  0.00000000000E+00 0.  1.
          2   -1    0    0  502    0  0.00000000000E+00 -0.00000000000E+00 -0.13075566823E+04  0.13075566823E+04  0.00000000000E+00 0. -1.
         23    2    1    2    0    0 -0.15781762683E+02  0.63573444281E+02 -0.60804234512E+02  0.12701611645E+03  0.90251271755E+02 0.  0.
         23    2    1    2    0    0  0.25000545292E+03  0.25201068455E+02 -0.54961184258E+03  0.61112390365E+03  0.90892396615E+02 0.  0.
        -11    1    4    4    0    0  0.23654423681E+03  0.75372209293E+00 -0.45983520335E+03  0.51710942586E+03  0.00000000000E+00 0.  1.
         11    1    4    4    0    0  0.13461216106E+02  0.24447346362E+02 -0.89776639227E+02  0.94014477790E+02  0.00000000000E+00 0. -1.
        -13    1    3    3    0    0  0.66458357349E+01  0.81436725805E+02 -0.52670383828E+02  0.97212534043E+02  0.00000000000E+00 0.  1.
         13    1    3    3    0    0 -0.22427598418E+02 -0.17863281523E+02 -0.81338506837E+01  0.29803582411E+02  0.00000000000E+00 0. -1.
         21    1    1    2  502  503 -0.13732791528E+03 -0.14491642770E+03 -0.58710909211E+03  0.62012644951E+03  0.00000000000E+00 0. -1.
         21    1    1    2  503  501 -0.96895774952E+02  0.56141914968E+02  0.76039920927E+02  0.13536164669E+03  0.00000000000E+00 0.  1.
<scales pt_clust_5="13000.00000" pt_clust_6="13000.00000" pt_clust_7="13000.00000" pt_clust_8="13000.00000" pt_clust_9="204.56613" pt_clust_10="147.08997"></scales>
<clustering>
<clus scale="   90.251">  7  8 -1 -1</clus>
<clus scale="   90.892">  5  6 -1 -1</clus>
<clus scale="  111.517">  1  7  2 -1</clus>
<clus scale="  147.090">  1 10  2 -1</clus>
<clus scale="  204.566">  2  9  1 -1</clus>
<clus scale="  204.566">  2  5  1 -1</clus>
</clustering>
</event>
<event>
10    2  0.2445576E-006  0.3006085E+03  0.7546771E-02  0.1084974E+00
         -2   -1    0    0    0  501 -0.00000000000E+00  0.00000000000E+00  0.22333324947E+03  0.22333324947E+03  0.00000000000E+00 0.  1.
          2   -1    0    0  502    0  0.00000000000E+00 -0.00000000000E+00 -0.14653308295E+04  0.14653308295E+04  0.00000000000E+00 0. -1.
         23    2    1    2    0    0 -0.27469276522E+03 -0.10153744622E+03 -0.35760417141E+03  0.47126784698E+03  0.91905777490E+02 0.  0.
         23    2    1    2    0    0  0.23047998156E+03  0.12006886813E+03 -0.83046770008E+03  0.87491744458E+03  0.90919629181E+02 0.  0.
        -11    1    3    3    0    0 -0.15533016217E+03 -0.10092141059E+03 -0.18851827871E+03  0.26429478202E+03  0.00000000000E+00 0.  1.
         11    1    3    3    0    0 -0.11936260305E+03 -0.61603562195E+00 -0.16908589270E+03  0.20697306496E+03  0.00000000000E+00 0. -1.
        -11    1    4    4    0    0  0.18621275934E+03  0.68262660765E+02 -0.50831014652E+03  0.54563191590E+03  0.00000000000E+00 0.  1.
         11    1    4    4    0    0  0.44267222218E+02  0.51806207367E+02 -0.32215755356E+03  0.32928552869E+03  0.00000000000E+00 0. -1.
         21    1    1    2  502  503  0.65295341531E+02 -0.29295028309E+02 -0.19069208224E+03  0.20367903805E+03  0.00000000000E+00 0.  1.
         21    1    1    2  503  501 -0.21082557868E+02  0.10763606392E+02  0.13676637367E+03  0.13879974940E+03  0.00000000000E+00 0.  1.
<scales pt_clust_5="13000.00000" pt_clust_6="13000.00000" pt_clust_7="13000.00000" pt_clust_8="13000.00000" pt_clust_9="69.77154" pt_clust_10="23.67128"></scales>
<clustering>
<clus scale="   23.671">  1 10  2 -1</clus>
<clus scale="   69.772">  2  9  1 -1</clus>
<clus scale="   90.920">  7  8 -1 -1</clus>
<clus scale="   91.906">  5  6 -1 -1</clus>
<clus scale="  300.309">  2  7  1 -1</clus>
<clus scale="   69.772">  2  5  1 -1</clus>
</clustering>
</event>
<event>
10    2  0.2445576E-006  0.4726084E+03  0.7546771E-02  0.1077918E+00
          1   -1    0    0  503    0  0.00000000000E+00  0.00000000000E+00  0.14912706561E+03  0.14912706561E+03  0.00000000000E+00 0. -1.
         -1   -1    0    0    0  501 -0.00000000000E+00 -0.00000000000E+00 -0.19406626218E+04  0.19406626218E+04  0.00000000000E+00 0.  1.
         23    2    1    2    0    0  0.24613839355E+03 -0.38336807851E+03 -0.64822390667E+03  0.79768622551E+03  0.92487235809E+02 0.  0.
         23    2    1    2    0    0  0.14507706132E+02  0.18818852307E+02 -0.13826991906E+03  0.16690162691E+03  0.90404423621E+02 0.  0.
        -11    1    4    4    0    0 -0.38478703580E+02  0.78722258695E+01 -0.54484322625E+02  0.67164901409E+02  0.00000000000E+00 0. -1.
         11    1    4    4    0    0  0.52986409712E+02  0.10946626438E+02 -0.83785596436E+02  0.99736725506E+02  0.00000000000E+00 0.  1.
        -11    1    3    3    0    0  0.25161504488E+03 -0.34998533336E+03 -0.60056983590E+03  0.73924555607E+03  0.00000000000E+00 0.  1.
         11    1    3    3    0    0 -0.54766513266E+01 -0.33382745154E+02 -0.47654070766E+02  0.58440669438E+02  0.00000000000E+00 0. -1.
         21    1    1    2  502  501  0.19860144644E+02 -0.21120629734E+02 -0.61463283520E+02  0.67957645388E+02  0.00000000000E+00 0.  1.
         21    1    1    2  503  502 -0.28050624433E+03  0.38566985594E+03 -0.94357844694E+03  0.10572441896E+04  0.00000000000E+00 0. -1.
<scales pt_clust_5="13000.00000" pt_clust_6="13000.00000" pt_clust_7="13000.00000" pt_clust_8="13000.00000" pt_clust_9="28.99149" pt_clust_10="463.47041"></scales>
<clustering>
<clus scale="   28.991">  2  9  1 -1</clus>
<clus scale="   90.404">  5  6 -1 -1</clus>
<clus scale="   92.487">  7  8 -1 -1</clus>
<clus scale="   93.410">  1  5  2 -1</clus>
<clus scale="  463.470">  2 10  1 -1</clus>
<clus scale="   93.410">  1  5  2 -1</clus>
</clustering>
</event>
<event>
10    2  0.2445576E-006  0.1659762E+03  0.7546771E-02  0.1182957E+00
          1   -1    0    0  502    0  0.00000000000E+00  0.00000000000E+00  0.64693489794E+03  0.64693489794E+03  0.00000000000E+00 0. -1.
         -1   -1    0    0    0  501 -0.00000000000E+00 -0.00000000000E+00 -0.11032458566E+03  0.11032458566E+03  0.00000000000E+00 0.  1.
         23    2    1    2    0    0  0.30416563052E+02  0.16660048262E+03  0.49117435159E+02  0.19590245529E+03  0.85348470598E+02 0.  0.
         23    2    1    2    0    0  0.14158489886E+02 -0.95045629469E+02  0.18793277116E+03  0.22991818184E+03  0.91156510187E+02 0.  0.
        -11    1    3    3    0    0  0.31376648145E+02  0.15000115198E+02 -0.45629994407E+01  0.35075895835E+02  0.00000000000E+00 0. -1.
         11    1    3    3    0    0 -0.96008509280E+00  0.15160036743E+03  0.53680434600E+02  0.16082655945E+03  0.00000000000E+00 0.  1.
        -13    1    4    4    0    0  0.44268322570E+02 -0.18572678280E+02  0.90555175548E+02  0.10249326115E+03  0.00000000000E+00 0.  1.
         13    1    4    4    0    0 -0.30109832684E+02 -0.76472951189E+02  0.97377595609E+02  0.12742492070E+03  0.00000000000E+00 0. -1.
         21    1    1    2  502  503 -0.13263747405E+02 -0.69413479655E+02  0.29021106271E+03  0.29869151155E+03  0.00000000000E+00 0. -1.
         21    1    1    2  503  501 -0.31311305533E+02 -0.21413734999E+01  0.93490432571E+01  0.32747334921E+02  0.00000000000E+00 0.  1.
<scales pt_clust_5="13000.00000" pt_clust_6="13000.00000" pt_clust_7="13000.00000" pt_clust_8="13000.00000" pt_clust_9="71.02444" pt_clust_10="31.38444"></scales>
<clustering>
<clus scale="   31.384">  2 10  1 -1</clus>
<clus scale="   71.024">  1  9  2 -1</clus>
<clus scale="   85.348">  5  6 -1 -1</clus>
<clus scale="   91.157">  7  8 -1 -1</clus>
<clus scale="  162.859">  2  5  1 -1</clus>
<clus scale="   71.024">  1  5  2 -1</clus>
</clustering>
</event>
<event>
10    2  0.2445576E-006  0.1240935E+03  0.7546771E-02  0.1237102E+00
         -3   -1    0    0    0  501 -0.00000000000E+00  0.00000000000E+00  0.45073027231E+02  0.45073027231E+02  0.00000000000E+00 0.  1.
          3   -1    0    0  502    0  0.00000000000E+00 -0.00000000000E+00 -0.73053699270E+03  0.73053699270E+03  0.00000000000E+00 0. -1.
         23    2    1    2    0    0  0.46140083999E+02  0.46886654280E+02 -0.14797269016E+03  0.18597504922E+03  0.91452371202E+02 0.  0.
         23    2    1    2    0    0 -0.64627440501E+02 -0.44892685575E+02 -0.45686890382E+03  0.47293016016E+03  0.93496961613E+02 0.  0.
        -13    1    3    3    0    0  0.28016709710E+02 -0.55373551857E+01 -0.12094735081E+03  0.12427332776E+03  0.00000000000E+00 0. -1.
         13    1    3    3    0    0  0.18123374289E+02  0.52424009466E+02 -0.27025339355E+02  0.61701721462E+02  0.00000000000E+00 0.  1.
        -13    1    4    4    0    0 -0.49245379481E+02 -0.60510333487E+02 -0.43509132038E+03  0.44203061538E+03  0.00000000000E+00 0. -1.
         13    1    4    4    0    0 -0.15382061021E+02  0.15617647913E+02 -0.21777583436E+02  0.30899544784E+02  0.00000000000E+00 0.  1.
         21    1    1    2  502  503 -0.13233222959E+02 -0.18517193042E+02 -0.77534186701E+02  0.80805660294E+02  0.00000000000E+00 0.  1.
         21    1    1    2  503  501  0.31720579462E+02  0.16523224337E+02 -0.30881847923E+01  0.35899150257E+02  0.00000000000E+00 0.  1.
<scales pt_clust_5="13000.00000" pt_clust_6="13000.00000" pt_clust_7="13000.00000" pt_clust_8="13000.00000" pt_clust_9="22.75972" pt_clust_10="35.16017"></scales>
<clustering>
<clus scale="   22.760">  2  9  1 -1</clus>
<clus scale="   35.160">  1 10  2 -1</clus>
<clus scale="   91.452">  5  6 -1 -1</clus>
<clus scale="   93.497">  7  8 -1 -1</clus>
<clus scale="  122.560">  1  5  2 -1</clus>
<clus scale="   22.760">  2  5  1 -1</clus>
</clustering>
</event>
<event>
10    2  0.2445576E-006  0.1363406E+03  0.7546771E-02  0.1218619E+00
         -1   -1    0    0    0  501 -0.00000000000E+00  0.00000000000E+00  0.37450647744E+03  0.37450647744E+03  0.00000000000E+00 0.  1.
          1   -1    0    0  502    0  0.00000000000E+00 -0.00000000000E+00 -0.10446767529E+04  0.10446767529E+04  0.00000000000E+00 0. -1.
         23    2    1    2    0    0  0.30513032207E+02 -0.76230802033E+02 -0.12189338648E+01  0.12206112749E+03  0.90306437931E+02 0.  0.
         23    2    1    2    0    0 -0.10964979509E+03  0.10948390494E+02 -0.21233727650E+03  0.25528036399E+03  0.89095456842E+02 0.  0.
        -11    1    4    4    0    0 -0.13562578781E+02 -0.33090737792E+02 -0.60405757158E+02  0.70198261864E+02  0.00000000000E+00 0.  1.
         11    1    4    4    0    0 -0.96087216305E+02  0.44039128287E+02 -0.15193151934E+03  0.18508210213E+03  0.00000000000E+00 0. -1.
        -13    1    3    3    0    0 -0.96602760410E+01 -0.72240053277E+02  0.21172653981E+02  0.75896162665E+02  0.00000000000E+00 0. -1.
         13    1    3    3    0    0  0.40173308248E+02 -0.39907487560E+01 -0.22391587846E+02  0.46164964827E+02  0.00000000000E+00 0.  1.
         21    1    1    2  502  503  0.33643225163E+02  0.10494298866E+03 -0.74200225254E+03  0.75014148015E+03  0.00000000000E+00 0. -1.
         21    1    1    2  503  501  0.45493537716E+02 -0.39660577118E+02  0.28538818748E+03  0.29170025867E+03  0.00000000000E+00 0.  1.
<scales pt_clust_5="13000.00000" pt_clust_6="13000.00000" pt_clust_7="13000.00000" pt_clust_8="13000.00000" pt_clust_9="109.10498" pt_clust_10="60.35415"></scales>
<clustering>
<clus scale="   60.354">  1 10  2 -1</clus>
<clus scale="   89.095">  5  6 -1 -1</clus>
<clus scale="   90.306">  7  8 -1 -1</clus>
<clus scale="  109.105">  2  9  1 -1</clus>
<clus scale="  135.542">  2  5  1 -1</clus>
<clus scale="  109.105">  2  5  1 -1</clus>
</clustering>
</event>
<event>
10    2  0.2445576E-006  0.2328416E+03  0.7546771E-02  0.1153676E+00
         -1   -1    0    0    0  501 -0.00000000000E+00  0.00000000000E+00  0.23092834257E+03  0.23092834257E+03  0.00000000000E+00 0.  1.
          1   -1    0    0  502    0  0.00000000000E+00 -0.00000000000E+00 -0.13293325346E+04  0.13293325346E+04  0.00000000000E+00 0. -1.
         23    2    1    2    0    0  0.41111985269E+02 -0.38047312132E+02 -0.63504979495E+02  0.12392690586E+03  0.90483160214E+02 0.  0.
         23    2    1    2    0    0  0.16144053487E+03  0.12030697002E+03 -0.22834355774E+03  0.31753026003E+03  0.90265565613E+02 0.  0.
        -11    1    3    3    0    0  0.72506673744E+01 -0.20528487243E+02  0.21602628401E+02  0.30670254640E+02  0.00000000000E+00 0.  1.
         11    1    3    3    0    0  0.33861317894E+02 -0.17518824889E+02 -0.85107607896E+02  0.93256651220E+02  0.00000000000E+00 0. -1.
        -11    1    4    4    0    0  0.11092486889E+03  0.27132966533E+02 -0.10812605556E+03  0.15726337241E+03  0.00000000000E+00 0.  1.
         11    1    4    4    0    0  0.50515665983E+02  0.93174003486E+02 -0.12021750218E+03  0.16026688761E+03  0.00000000000E+00 0. -1.
         21    1    1    2  502  503 -0.22086600432E+03 -0.36190847556E+02 -0.94531802879E+03  0.97145136001E+03  0.00000000000E+00 0. -1.
         21    1    1    2  503  501  0.18313484174E+02 -0.46068810330E+02  0.13876237400E+03  0.14735235128E+03  0.00000000000E+00 0.  1.
<scales pt_clust_5="13000.00000" pt_clust_6="13000.00000" pt_clust_7="13000.00000" pt_clust_8="13000.00000" pt_clust_9="214.63302" pt_clust_10="49.57539"></scales>
<clustering>
<clus scale="   49.575">  1 10  2 -1</clus>
<clus scale="   90.266">  7  8 -1 -1</clus>
<clus scale="   90.483">  5  6 -1 -1</clus>
<clus scale="  115.492">  1  5  2 -1</clus>
<clus scale="  214.633">  2  9  1 -1</clus>
<clus scale="  214.633">  2  5  1 -1</clus>
</clustering>
</event>
<event>
10    2  0.2445576E-006  0.2512104E+03  0.7546771E-02  0.1113324E+00
          2   -1    0    0  502    0  0.00000000000E+00  0.00000000000E+00  0.56861653724E+03  0.56861653724E+03  0.00000000000E+00 0. -1.
         -2   -1    0    0    0  501 -0.00000000000E+00 -0.00000000000E+00 -0.14976001232E+03  0.14976001232E+03  0.00000000000E+00 0.  1.
         23    2    1    2    0    0  0.15111492629E+02  0.23686683668E+03  0.16299399806E+03  0.30420756647E+03  0.98188311733E+02 0.  0.
         23    2    1    2    0    0  0.29283132497E+02 -0.22593636700E+03  0.15611782870E+03  0.28890971474E+03  0.84801550978E+02 0.  0.
        -11    1    4    4    0    0  0.36530979556E+02 -0.10947380182E+03  0.12062955222E+03  0.16694464538E+03  0.00000000000E+00 0. -1.
         11    1    4    4    0    0 -0.72478470594E+01 -0.11646256518E+03  0.35488276482E+02  0.12196506936E+03  0.00000000000E+00 0.  1.
        -11    1    3    3    0    0 -0.22907780054E+02  0.28525457586E+02  0.56106921263E+02  0.66981002762E+02  0.00000000000E+00 0.  1.
         11    1    3    3    0    0  0.38019272683E+02  0.20834137910E+03  0.10688707680E+03  0.23722656370E+03  0.00000000000E+00 0. -1.
         21    1    1    2  502  503 -0.29781587175E+02  0.40548331920E+01  0.99904496860E+02  0.10432781556E+03  0.00000000000E+00 0. -1.
         21    1    1    2  503  501 -0.14613037950E+02 -0.14985302872E+02 -0.15979870398E+00  0.20931452791E+02  0.00000000000E+00 0. -1.
<scales pt_clust_5="13000.00000" pt_clust_6="13000.00000" pt_clust_7="13000.00000" pt_clust_8="13000.00000" pt_clust_9="30.25545" pt_clust_10="20.93084"></scales>
<clustering>
<clus scale="   20.931">  2 10  1 -1</clus>
<clus scale="   30.255">  1  9  2 -1</clus>
<clus scale="   84.802">  5  6 -1 -1</clus>
<clus scale="   98.188">  7  8 -1 -1</clus>
<clus scale="  246.287">  1  5  2 -1</clus>
<clus scale="   30.255">  1  5  2 -1</clus>
</clustering>
</event>
<event>
10    2  0.2445576E-006  0.1130197E+03  0.7546771E-02  0.1256207E+00
         -1   -1    0    0    0  501 -0.00000000000E+00  0.00000000000E+00  0.87398606084E+02  0.87398606084E+02  0.00000000000E+00 0.  1.
          1   -1    0    0  502    0  0.00000000000E+00 -0.00000000000E+00 -0.51033469358E+03  0.51033469358E+03  0.00000000000E+00 0. -1.
         23    2    1    2    0    0 -0.40186895949E+02  0.58044769465E+02 -0.22078679238E+02  0.11572208438E+03  0.88994105805E+02 0.  0.
         23    2    1    2    0    0  0.31318549764E+02 -0.34379687123E+02 -0.13221019951E+03  0.16769271119E+03  0.92078738499E+02 0.  0.
        -11    1    3    3    0    0 -0.19741829795E+02  0.54773879464E+02 -0.52850697593E+02  0.78632779114E+02  0.00000000000E+00 0. -1.
         11    1    3    3    0    0 -0.20445066154E+02  0.32708900011E+01  0.30772018355E+02  0.37089305265E+02  0.00000000000E+00 0.  1.
        -11    1    4    4    0    0 -0.29328319538E+01  0.27471655163E+02 -0.62826988629E+02  0.68633256085E+02  0.00000000000E+00 0. -1.
         11    1    4    4    0    0  0.34251381718E+02 -0.61851342287E+02 -0.69383210885E+02  0.99059455101E+02  0.00000000000E+00 0.  1.
         21    1    1    2  502  503 -0.19638253157E+02 -0.54820450462E+02 -0.26567853952E+03  0.27198534729E+03  0.00000000000E+00 0.  1.
         21    1    1    2  503  501  0.28506599343E+02  0.31155368120E+02 -0.29686692233E+01  0.42333156813E+02  0.00000000000E+00 0. -1.
<scales pt_clust_5="13000.00000" pt_clust_6="13000.00000" pt_clust_7="13000.00000" pt_clust_8="13000.00000" pt_clust_9="56.42340" pt_clust_10="42.22894"></scales>
<clustering>
<clus scale="   42.229">  1 10  2 -1</clus>
<clus scale="   56.423">  2  9  1 -1</clus>
<clus scale="   88.994">  5  6 -1 -1</clus>
<clus scale="   92.079">  7  8 -1 -1</clus>
<clus scale="  110.521">  1  5  2 -1</clus>
<clus scale="   56.423">  2  5  1 -1</clus>
</clustering>
</event>
<event>
10    2  0.2445576E-006  0.1032597E+03  0.7546771E-02  0.1274693E+00
          1   -1    0    0  502    0  0.00000000000E+00  0.00000000000E+00  0.13748101270E+03  0.13748101270E+03  0.00000000000E+00 0. -1.
         -1   -1    0    0    0  501 -0.00000000000E+00 -0.00000000000E+00 -0.22303447347E+03  0.22303447347E+03  0.00000000000E+00 0.  1.
         23    2    1    2    0    0  0.65277442625E+01 -0.27511799834E+02 -0.86304595584E+02  0.13043479144E+03  0.93622865924E+02 0.  0.
         23    2    1    2    0    0 -0.10844299259E+02  0.66868847734E+02 -0.30948745921E+02  0.11776493608E+03  0.91223427214E+02 0.  0.
        -13    1    4    4    0    0  0.34114100356E+02  0.58739796214E+02 -0.17711609489E+02  0.70198551360E+02  0.00000000000E+00 0.  1.
         13    1    4    4    0    0 -0.44958399616E+02  0.81290515208E+01 -0.13237136432E+02  0.47566384722E+02  0.00000000000E+00 0. -1.
        -13    1    3    3    0    0  0.72766125129E+01  0.34739485466E+02 -0.33362840698E+02  0.48712011656E+02  0.00000000000E+00 0.  1.
         13    1    3    3    0    0 -0.74886825039E+00 -0.62251285300E+02 -0.52941754885E+02  0.81722779783E+02  0.00000000000E+00 0. -1.
         21    1    1    2  502  503  0.29727056518E+02 -0.32592690741E+02  0.59487271548E+02  0.74058874250E+02  0.00000000000E+00 0.  1.
         21    1    1    2  503  501 -0.25410501521E+02 -0.67643571597E+01 -0.27787390810E+02  0.38256884392E+02  0.00000000000E+00 0.  1.
<scales pt_clust_5="13000.00000" pt_clust_6="13000.00000" pt_clust_7="13000.00000" pt_clust_8="13000.00000" pt_clust_9="43.65750" pt_clust_10="26.29544"></scales>
<clustering>
<clus scale="   26.295">  2 10  1 -1</clus>
<clus scale="   43.657">  1  9  2 -1</clus>
<clus scale="   91.223">  5  6 -1 -1</clus>
<clus scale="   93.623">  7  8 -1 -1</clus>
<clus scale="  101.089">  1  5  2 -1</clus>
<clus scale="   43.657">  1  5  2 -1</clus>
</clustering>
</event>
<event>
10    2  0.2445576E-006  0.3961276E+03  0.7546771E-02  0.1045257E+00
         -2   -1    0    0    0  501 -0.00000000000E+00  0.00000000000E+00  0.26259041540E+03  0.26259041540E+03  0.00000000000E+00 0.  1.
          2   -1    0    0  502    0  0.00000000000E+00 -0.00000000000E+00 -0.12535101654E+04  0.12535101654E+04  0.00000000000E+00 0. -1.
         23    2    1    2    0    0  0.35221533333E+03  0.26208425161E+03 -0.41209475598E+02  0.45114979859E+03  0.95363116132E+02 0.  0.
         23    2    1    2    0    0 -0.26371681543E+03 -0.13831975231E+03 -0.61228901634E+03  0.68666771555E+03  0.89083104024E+02 0.  0.
        -11    1    3    3    0    0  0.34996460852E+03  0.23861382815E+03 -0.28908072250E+02  0.42455560630E+03  0.00000000000E+00 0.  1.
         11    1    3    3    0    0  0.22507248131E+01  0.23470423458E+02 -0.12301403347E+02  0.26594192295E+02  0.00000000000E+00 0. -1.
        -11    1    4    4    0    0 -0.25647332529E+02  0.91778127381E+01 -0.29945216933E+02  0.40481278756E+02  0.00000000000E+00 0.  1.
         11    1    4    4    0    0 -0.23806948290E+03 -0.14749756505E+03 -0.58234379941E+03  0.64618643679E+03  0.00000000000E+00 0. -1.
         21    1    1    2  502  503 -0.74973309540E+02 -0.91844710098E+02 -0.31605475528E+03  0.33756044829E+03  0.00000000000E+00 0. -1.
         21    1    1    2  503  501 -0.13525208357E+02 -0.31919789196E+02 -0.21366502742E+02  0.40722618320E+02  0.00000000000E+00 0. -1.
<scales pt_clust_5="13000.00000" pt_clust_6="13000.00000" pt_clust_7="13000.00000" pt_clust_8="13000.00000" pt_clust_9="119.97554" pt_clust_10="34.66705"></scales>
<clustering>
<clus scale="   34.667">  1 10  2 -1</clus>
<clus scale="   89.083">  7  8 -1 -1</clus>
<clus scale="   95.363">  5  6 -1 -1</clus>
<clus scale="  119.976">  2  9  1 -1</clus>
<clus scale="  394.663">  2  7  1 -1</clus>
<clus scale="  119.976">  2  5  1 -1</clus>
</clustering>
</event>
<event>
10    2  0.2445576E-006  0.1018933E+03  0.7546771E-02  0.1276416E+00
         -2   -1    0    0    0  501 -0.00000000000E+00  0.00000000000E+00  0.65008834031E+02  0.65008834031E+02  0.00000000000E+00 0.  1.
          2   -1    0    0  502    0  0.00000000000E+00 -0.00000000000E+00 -0.57434747053E+03  0.57434747053E+03  0.00000000000E+00 0. -1.
         23    2    1    2    0    0  0.53680727212E+02 -0.19722859343E+02 -0.74006715589E+02  0.13100578024E+03  0.91732812290E+02 0.  0.
         23    2    1    2    0    0 -0.16543374388E+02 -0.82825395346E+02 -0.13638184497E+03  0.18484906782E+03  0.91844656277E+02 0.  0.
        -13    1    4    4    0    0  0.81478006489E+01 -0.25374185589E+02 -0.11608552310E+03  0.11910535094E+03  0.00000000000E+00 0.  1.
         13    1    4    4    0    0 -0.24691175036E+02 -0.57451209757E+02 -0.20296321864E+02  0.65743716874E+02  0.00000000000E+00 0. -1.
        -13    1    3    3    0    0  0.56823814501E+02  0.43490790442E+01 -0.86590538813E+02  0.10366186278E+03  0.00000000000E+00 0. -1.
         13    1    3    3    0    0 -0.31430872895E+01 -0.24071938387E+02  0.12583823224E+02  0.27343917466E+02  0.00000000000E+00 0.  1.
         21    1    1    2  502  503  0.78148366422E+01  0.28340503487E+02 -0.13332594688E+03  0.13652861942E+03  0.00000000000E+00 0.  1.
         21    1    1    2  503  501 -0.44952189466E+02  0.74207751202E+02 -0.16562412907E+03  0.18697283708E+03  0.00000000000E+00 0. -1.
<scales pt_clust_5="13000.00000" pt_clust_6="13000.00000" pt_clust_7="13000.00000" pt_clust_8="13000.00000" pt_clust_9="29.39823" pt_clust_10="95.24846"></scales>
<clustering>
<clus scale="   29.398">  2  9  1 -1</clus>
<clus scale="   91.733">  7  8 -1 -1</clus>
<clus scale="   91.845">  5  6 -1 -1</clus>
<clus scale="   95.248">  2 10  1 -1</clus>
<clus scale="  101.793">  1  7  2 -1</clus>
<clus scale="   29.398">  2  5  1 -1</clus>
</clustering>
</event>
<event>
10    2  0.2445576E-006  0.2916910E+03  0.7546771E-02  0.1089566E+00
          1   -1    0    0  502    0  0.00000000000E+00  0.00000000000E+00  0.21588069851E+04  0.21588069851E+04  0.00000000000E+00 0. -1.
         -1   -1    0    0    0  501 -0.00000000000E+00 -0.00000000000E+00 -0.63364239165E+02  0.63364239165E+02  0.00000000000E+00 0.  1.
         23    2    1    2    0    0 -0.26204893027E+03  0.14713654589E+03  0.69412669637E+03  0.76175419764E+03  0.90215198390E+02 0.  0.
         23    2    1    2    0    0  0.25225371096E+03 -0.83977296476E+02  0.11015220268E+04  0.11369293983E+04  0.92593521494E+02 0.  0.
        -11    1    4    4    0    0  0.16763690906E+03 -0.23936486146E+02  0.54090006838E+03  0.56678741396E+03  0.00000000000E+00 0. -1.
         11    1    4    4    0    0  0.84616801897E+02 -0.60040810330E+02  0.56062195842E+03  0.57014198436E+03  0.00000000000E+00 0.  1.
        -13    1    3    3    0    0 -0.99601446768E+02  0.64183492240E+02  0.38504633146E+03  0.40286554363E+03  0.00000000000E+00 0. -1.
         13    1    3    3    0    0 -0.16244748350E+03  0.82953053646E+02  0.30908036492E+03  0.35888865402E+03  0.00000000000E+00 0.  1.
         21    1    1    2  502  503 -0.36975342386E+02 -0.63576284610E+02  0.20474608626E+03  0.21755477413E+03  0.00000000000E+00 0.  1.
         21    1    1    2  503  501  0.46770561693E+02  0.41703520053E+00  0.95047936535E+02  0.10593285420E+03  0.00000000000E+00 0.  1.
<scales pt_clust_5="13000.00000" pt_clust_6="13000.00000" pt_clust_7="13000.00000" pt_clust_8="13000.00000" pt_clust_9="71.04629" pt_clust_10="46.77242"></scales>
<clustering>
<clus scale="   46.772">  2 10  1 -1</clus>
<clus scale="   71.046">  2  9  1 -1</clus>
<clus scale="   90.215">  7  8 -1 -1</clus>
<clus scale="   92.594">  5  6 -1 -1</clus>
<clus scale="  290.945">  2  7  1 -1</clus>
<clus scale="  291.691">  1  5  2 -1</clus>
</clustering>
</event>
<event>
10    2  0.2445576E-006  0.1123920E+03  0.7546771E-02  0.1261497E+00
          2   -1    0    0  502    0  0.00000000000E+00  0.00000000000E+00  0.14138067575E+03  0.14138067575E+03  0.00000000000E+00 0. -1.
         -2   -1    0    0    0  501 -0.00000000000E+00 -0.00000000000E+00 -0.22625496546E+03  0.22625496546E+03  0.00000000000E+00 0.  1.
         23    2    1    2    0    0  0.60177245300E+01 -0.52025092568E+02 -0.11486452208E+03  0.15414645245E+03  0.88455904860E+02 0.  0.
         23    2    1    2    0    0 -0.10722711787E+02  0.95999558912E+02  0.44743947379E+02  0.12953847453E+03  0.73805851378E+02 0.  0.
        -11    1    4    4    0    0 -0.19747819128E+02  0.36620931608E+02 -0.15566802403E+02  0.44422903205E+02  0.00000000000E+00 0.  1.
         11    1    4    4    0    0  0.90251073407E+01  0.59378627304E+02  0.60310749782E+02  0.85115571326E+02  0.00000000000E+00 0. -1.
        -13    1    3    3    0    0 -0.18814908077E+02  0.19428722244E+02 -0.33383395778E+02  0.42964254068E+02  0.00000000000E+00 0. -1.
         13    1    3    3    0    0  0.24832632606E+02 -0.71453814812E+02 -0.81481126306E+02  0.11118219838E+03  0.00000000000E+00 0.  1.
         21    1    1    2  502  503 -0.13649150545E+02 -0.33194977054E+02  0.21552122981E+02  0.41865257878E+02  0.00000000000E+00 0.  1.
         21    1    1    2  503  501  0.18354137801E+02 -0.10779489289E+02 -0.36305837991E+02  0.42085456348E+02  0.00000000000E+00 0. -1.
<scales pt_clust_5="13000.00000" pt_clust_6="13000.00000" pt_clust_7="13000.00000" pt_clust_8="13000.00000" pt_clust_9="36.07207" pt_clust_10="21.28548"></scales>
<clustering>
<clus scale="   21.285">  2 10  1 -1</clus>
<clus scale="   36.072">  1  9  2 -1</clus>
<clus scale="   73.806">  5  6 -1 -1</clus>
<clus scale="   88.456">  7  8 -1 -1</clus>
<clus scale="  101.266">  1  5  2 -1</clus>
<clus scale="   36.072">  1  5  2 -1</clus>
</clustering>
</event>
<event>
10    2  0.2445576E-006  0.2443764E+03  0.7546771E-02  0.1117008E+00
         -2   -1    0    0    0  501 -0.00000000000E+00  0.00000000000E+00  0.79401662445E+02  0.79401662445E+02  0.00000000000E+00 0.  1.
          2   -1    0    0  502    0  0.00000000000E+00 -0.00000000000E+00 -0.11662541202E+04  0.11662541202E+04  0.00000000000E+00 0. -1.
         23    2    1    2    0    0 -0.13669600912E+03 -0.21738944230E+03 -0.30288976073E+03  0.40795800508E+03  0.93506995577E+02 0.  0.
         23    2    1    2    0    0  0.89549496818E+02  0.17953643716E+03 -0.61690916714E+03  0.65563923851E+03  0.95044441845E+02 0.  0.
        -11    1    4    4    0    0  0.65073891183E+02  0.12901269976E+03 -0.54813701513E+03  0.56686248365E+03  0.00000000000E+00 0. -1.
         11    1    4    4    0    0  0.24475605635E+02  0.50523737394E+02 -0.68772152008E+02  0.88776754859E+02  0.00000000000E+00 0.  1.
        -13    1    3    3    0    0 -0.11238854790E+03 -0.91489473989E+02 -0.16734961335E+03  0.22137615643E+03  0.00000000000E+00 0. -1.
         13    1    3    3    0    0 -0.24307461214E+02 -0.12589996831E+03 -0.13554014739E+03  0.18658184865E+03  0.00000000000E+00 0.  1.
         21    1    1    2  502  503  0.20754260520E+02  0.14937428422E+02 -0.12397149116E+03  0.12658118627E+03  0.00000000000E+00 0. -1.
         21    1    1    2  503  501  0.26392251777E+02  0.22915576721E+02 -0.43082038687E+02  0.55477352747E+02  0.00000000000E+00 0. -1.
<scales pt_clust_5="13000.00000" pt_clust_6="13000.00000" pt_clust_7="13000.00000" pt_clust_8="13000.00000" pt_clust_9="25.57081" pt_clust_10="36.15812"></scales>
<clustering>
<clus scale="   25.571">  2  9  1 -1</clus>
<clus scale="   36.158">  1 10  2 -1</clus>
<clus scale="   93.507">  7  8 -1 -1</clus>
<clus scale="   95.044">  5  6 -1 -1</clus>
<clus scale="  243.783">  1  7  2 -1</clus>
<clus scale="   25.571">  2  5  1 -1</clus>
</clustering>
</event>
<event>
10    2  0.2445576E-006  0.1630590E+03  0.7546771E-02  0.1186028E+00
         -1   -1    0    0    0  501 -0.00000000000E+00  0.00000000000E+00  0.42839684653E+03  0.42839684653E+03  0.00000000000E+00 0.  1.
          1   -1    0    0  502    0  0.00000000000E+00 -0.00000000000E+00 -0.11502589698E+03  0.11502589698E+03  0.00000000000E+00 0. -1.
         23    2    1    2    0    0 -0.91916301340E+02  0.62603540834E+02  0.21499883777E+03  0.25741285088E+03  0.87573202401E+02 0.  0.
         23    2    1    2    0    0  0.13886293534E+03 -0.35871838950E+02  0.15951055704E+02  0.17134020839E+03  0.92376009825E+02 0.  0.
        -11    1    3    3    0    0 -0.45540606622E+02  0.16634593734E+02  0.17325723127E+03  0.17991310333E+03  0.00000000000E+00 0.  1.
         11    1    3    3    0    0 -0.46375694719E+02  0.45968947100E+02  0.41741606501E+02  0.77499747557E+02  0.00000000000E+00 0. -1.
        -13    1    4    4    0    0  0.25801415339E+02 -0.39776926016E+02  0.31825068390E+02  0.57102993396E+02  0.00000000000E+00 0.  1.
         13    1    4    4    0    0  0.11306152000E+03  0.39050870659E+01 -0.15874012687E+02  0.11423721499E+03  0.00000000000E+00 0. -1.
         21    1    1    2  502  503 -0.46738963287E+01 -0.28020031407E+02  0.87534812169E+01  0.29725256943E+02  0.00000000000E+00 0. -1.
         21    1    1    2  503  501 -0.42272737673E+02  0.12883295223E+01  0.73667574854E+02  0.84944427293E+02  0.00000000000E+00 0. -1.
<scales pt_clust_5="13000.00000" pt_clust_6="13000.00000" pt_clust_7="13000.00000" pt_clust_8="13000.00000" pt_clust_9="28.40717" pt_clust_10="42.52541"></scales>
<clustering>
<clus scale="   28.407">  2  9  1 -1</clus>
<clus scale="   42.525">  1 10  2 -1</clus>
<clus scale="   87.573">  5  6 -1 -1</clus>
<clus scale="   92.376">  7  8 -1 -1</clus>
<clus scale="  160.387">  1  5  2 -1</clus>
<clus scale="   28.407">  2  5  1 -1</clus>
</clustering>
</event>
<event>
10    2  0.2445576E-006  0.1214125E+03  0.7546771E-02  0.1247619E+00
          2   -1    0    0  502    0  0.00000000000E+00  0.00000000000E+00  0.51459150102E+03  0.51459150102E+03  0.00000000000E+00 0. -1.
         -2   -1    0    0    0  501 -0.00000000000E+00 -0.00000000000E+00 -0.64989928531E+02  0.64989928531E+02  0.00000000000E+00 0.  1.
         23    2    1    2    0    0  0.49456587513E+02  0.33467080392E+02  0.13570841070E+03  0.17398741794E+03  0.91043118061E+02 0.  0.
         23    2    1    2    0    0  0.49371748614E+02  0.36857847257E+02  0.18152721593E+03  0.21144702277E+03  0.89228038467E+02 0.  0.
        -11    1    3    3    0    0  0.29870976989E+02  0.40566214715E+01 -0.35154750698E+01  0.30349464724E+02  0.00000000000E+00 0.  1.
         11    1    3    3    0    0  0.19585610524E+02  0.29410458920E+02  0.13922388577E+03  0.14363795321E+03  0.00000000000E+00 0. -1.
        -11    1    4    4    0    0  0.62583252921E+01 -0.21486195194E+02  0.99308798954E+02  0.10179911969E+03  0.00000000000E+00 0. -1.
         11    1    4    4    0    0  0.43113423321E+02  0.58344042451E+02  0.82218416974E+02  0.10964790308E+03  0.00000000000E+00 0.  1.
         21    1    1    2  502  503 -0.92409364891E+02 -0.50423181797E+02  0.13695436334E+03  0.17273819965E+03  0.00000000000E+00 0. -1.
         21    1    1    2  503  501 -0.64189712356E+01 -0.19901745852E+02 -0.45884174825E+01  0.21408789192E+02  0.00000000000E+00 0. -1.
<scales pt_clust_5="13000.00000" pt_clust_6="13000.00000" pt_clust_7="13000.00000" pt_clust_8="13000.00000" pt_clust_9="80.32523" pt_clust_10="20.91131"></scales>
<clustering>
<clus scale="   20.911">  2 10  1 -1</clus>
<clus scale="   89.228">  7  8 -1 -1</clus>
<clus scale="   91.043">  5  6 -1 -1</clus>
<clus scale="  105.780">  1  7  2 -1</clus>
<clus scale="   80.325">  1  9  2 -1</clus>
<clus scale="  105.780">  1  5  2 -1</clus>
</clustering>
</event>
<event>
10    2  0.2445576E-006  0.1241512E+03  0.7546771E-02  0.1237811E+00
          1   -1    0    0  502    0  0.00000000000E+00  0.00000000000E+00  0.70702967303E+03  0.70702967303E+03  0.00000000000E+00 0. -1.
         -1   -1    0    0    0  501 -0.00000000000E+00 -0.00000000000E+00 -0.11223418812E+03  0.11223418812E+03  0.00000000000E+00 0.  1.
         23    2    1    2    0    0  0.22783504941E+02 -0.16088243104E+02  0.66282770778E+02  0.11663815453E+03  0.91832095292E+02 0.  0.
         23    2    1    2    0    0 -0.12265367503E+03  0.13273725265E+02  0.46137993699E+03  0.48722269235E+03  0.96407416223E+02 0.  0.
        -11    1    4    4    0    0 -0.20548093637E+02  0.11670904834E+02  0.12226337274E+02  0.26606718981E+02  0.00000000000E+00 0.  1.
         11    1    4    4    0    0 -0.10210558139E+03  0.16028204316E+01  0.44915359971E+03  0.46061597336E+03  0.00000000000E+00 0. -1.
        -13    1    3    3    0    0 -0.11137043349E+02 -0.44171515519E+02  0.12719617497E+02  0.47296354902E+02  0.00000000000E+00 0.  1.
         13    1    3    3    0    0  0.33920548290E+02  0.28083272414E+02  0.53563153281E+02  0.69341799624E+02  0.00000000000E+00 0. -1.
         21    1    1    2  502  503  0.26480146960E+02 -0.18784275003E+02  0.11875499884E+03  0.12311294375E+03  0.00000000000E+00 0. -1.
         21    1    1    2  503  501  0.73390023127E+02  0.21598792842E+02 -0.51622221691E+02  0.92290070534E+02  0.00000000000E+00 0.  1.
<scales pt_clust_5="13000.00000" pt_clust_6="13000.00000" pt_clust_7="13000.00000" pt_clust_8="13000.00000" pt_clust_9="32.46609" pt_clust_10="77.20471"></scales>
<clustering>
<clus scale="   32.466">  1  9  2 -1</clus>
<clus scale="   77.205">  2 10  1 -1</clus>
<clus scale="   91.832">  7  8 -1 -1</clus>
<clus scale="   96.407">  5  6 -1 -1</clus>
<clus scale="  120.633">  2  7  1 -1</clus>
<clus scale="   32.466">  1  5  2 -1</clus>
</clustering>
</event>
<event>
10    2  0.2445576E-006  0.1223853E+03  0.7546771E-02  0.1239341E+00
         -1   -1    0    0    0  501 -0.00000000000E+00  0.00000000000E+00  0.64559170349E+02  0.64559170349E+02  0.00000000000E+00 0.  1.
          1   -1    0    0  502    0  0.00000000000E+00 -0.00000000000E+00 -0.62359234114E+03  0.62359234114E+03  0.00000000000E+00 0. -1.
         23    2    1    2    0    0  0.98878514380E+02 -0.38435845858E+02 -0.77838992976E+02  0.15866578734E+03  0.88665937040E+02 0.  0.
         23    2    1    2    0    0 -0.60361205001E+02  0.26040882093E+02 -0.21210414915E+03  0.23894238601E+03  0.88225229574E+02 0.  0.
        -13    1    4    4    0    0 -0.43139830295E+02 -0.28744525757E+02 -0.11467037459E+03  0.12584350411E+03  0.00000000000E+00 0.  1.
         13    1    4    4    0    0 -0.17221374706E+02  0.54785407850E+02 -0.97433774568E+02  0.11309888190E+03  0.00000000000E+00 0. -1.
        -13    1    3    3    0    0  0.47452891751E+02 -0.63741423371E+02 -0.56516513135E+02  0.97513395212E+02  0.00000000000E+00 0.  1.
         13    1    3    3    0    0  0.51425622629E+02  0.25305577513E+02 -0.21322479841E+02  0.61152392125E+02  0.00000000000E+00 0. -1.
         21    1    1    2  502  503 -0.28412141518E+02 -0.21415562612E+02 -0.24557246182E+03  0.24813647477E+03  0.00000000000E+00 0. -1.
         21    1    1    2  503  501 -0.10105167861E+02  0.33810526376E+02 -0.23517566849E+02  0.42406863381E+02  0.00000000000E+00 0. -1.
<scales pt_clust_5="13000.00000" pt_clust_6="13000.00000" pt_clust_7="13000.00000" pt_clust_8="13000.00000" pt_clust_9="35.30187" pt_clust_10="35.28833"></scales>
<clustering>
<clus scale="   35.288">  1 10  2 -1</clus>
<clus scale="   35.302">  2  9  1 -1</clus>
<clus scale="   88.225">  5  6 -1 -1</clus>
<clus scale="   88.666">  7  8 -1 -1</clus>
<clus scale="  122.066">  2  5  1 -1</clus>
<clus scale="   35.302">  2  5  1 -1</clus>
</clustering>
</event>
<event>
10    2  0.2445576E-006  0.1669691E+03  0.7546771E-02  0.1205847E+00
          3   -1    0    0  502    0  0.00000000000E+00  0.00000000000E+00  0.54516379588E+03  0.54516379588E+03  0.00000000000E+00 0. -1.
         -3   -1    0    0    0  501 -0.00000000000E+00 -0.00000000000E+00 -0.13483623860E+03  0.13483623860E+03  0.00000000000E+00 0.  1.
         23    2    1    2    0    0 -0.16631180008E+03 -0.60771805430E+02  0.96702520219E+02  0.22069578683E+03  0.89456278299E+02 0.  0.
         23    2    1    2    0    0 -0.44829383541E+01  0.20504085323E+02  0.13257339486E+03  0.16318927697E+03  0.92814443072E+02 0.  0.
        -11    1    3    3    0    0 -0.15929283913E+02  0.21343655383E+02  0.83173750086E+01  0.27901118940E+02  0.00000000000E+00 0.  1.
         11    1    3    3    0    0 -0.15038251617E+03 -0.82115460812E+02  0.88385145210E+02  0.19279466789E+03  0.00000000000E+00 0. -1.
        -13    1    4    4    0    0  0.31915413795E+02 -0.20269851744E+02  0.35912354975E+02  0.52145544079E+02  0.00000000000E+00 0.  1.
         13    1    4    4    0    0 -0.36398352149E+02  0.40773937068E+02  0.96661039885E+02  0.11104373289E+03  0.00000000000E+00 0. -1.
         21    1    1    2  502  503  0.50889871880E+02  0.62558963580E+01  0.16213895026E+03  0.17005279912E+03  0.00000000000E+00 0.  1.
         21    1    1    2  503  501  0.11990486656E+03  0.34011823749E+02  0.18912691949E+02  0.12606217155E+03  0.00000000000E+00 0.  1.
<scales pt_clust_5="13000.00000" pt_clust_6="13000.00000" pt_clust_7="13000.00000" pt_clust_8="13000.00000" pt_clust_9="51.27295" pt_clust_10="140.98314"></scales>
<clustering>
<clus scale="   51.273">  1  9  2 -1</clus>
<clus scale="   89.456">  5  6 -1 -1</clus>
<clus scale="   92.814">  7  8 -1 -1</clus>
<clus scale="   96.836">  1  7  2 -1</clus>
<clus scale="  140.983">  2 10  1 -1</clus>
<clus scale="   51.273">  1  5  2 -1</clus>
</clustering>
</event>
<event>
10    2  0.2445576E-006  0.1197268E+03  0.7546771E-02  0.1244279E+00
          2   -1    0    0  502    0  0.00000000000E+00  0.00000000000E+00  0.17199929306E+03  0.17199929306E+03  0.00000000000E+00 0. -1.
         -2   -1    0    0    0  501 -0.00000000000E+00 -0.00000000000E+00 -0.40727919146E+03  0.40727919146E+03  0.00000000000E+00 0.  1.
         23    2    1    2    0    0 -0.24108634771E+02 -0.84086478050E+02 -0.12301321451E+03  0.17638862810E+03  0.91262999721E+02 0.  0.
         23    2    1    2    0    0 -0.27514194751E+02  0.72451441442E+02 -0.59509813028E+02  0.13213621180E+03  0.88951213265E+02 0.  0.
        -11    1    4    4    0    0  0.25825016103E+02  0.52582582627E+02 -0.16704150653E+02  0.60917059199E+02  0.00000000000E+00 0.  1.
         11    1    4    4    0    0 -0.53339210855E+02  0.19868858815E+02 -0.42805662376E+02  0.71219152597E+02  0.00000000000E+00 0. -1.
        -11    1    3    3    0    0 -0.23951616886E+02 -0.29741073805E+02  0.38451113620E+01  0.38379633973E+02  0.00000000000E+00 0. -1.
         11    1    3    3    0    0 -0.15701788526E+00 -0.54345404245E+02 -0.12685832587E+03  0.13800899413E+03  0.00000000000E+00 0.  1.
         21    1    1    2  502  503  0.22534715138E+02  0.21943257212E+01  0.10635050361E+03  0.10873388648E+03  0.00000000000E+00 0. -1.
         21    1    1    2  503  501  0.29088114384E+02  0.94407108872E+01 -0.15910737446E+03  0.16201975814E+03  0.00000000000E+00 0. -1.
<scales pt_clust_5="13000.00000" pt_clust_6="13000.00000" pt_clust_7="13000.00000" pt_clust_8="13000.00000" pt_clust_9="22.64130" pt_clust_10="31.08151"></scales>
<clustering>
<clus scale="   22.641">  1  9  2 -1</clus>
<clus scale="   31.082">  2 10  1 -1</clus>
<clus scale="   88.951">  5  6 -1 -1</clus>
<clus scale="   91.263">  7  8 -1 -1</clus>
<clus scale="  117.974">  1  5  2 -1</clus>
<clus scale="   22.641">  1  5  2 -1</clus>
</clustering>
</event>
<event>
10    2  0.2445576E-006  0.1839062E+03  0.7546771E-02  0.1164147E+00
          4   -1    0    0  502    0  0.00000000000E+00  0.00000000000E+00  0.37360178176E+03  0.37360178176E+03  0.00000000000E+00 0. -1.
         -4   -1    0    0    0  501 -0.00000000000E+00 -0.00000000000E+00 -0.23581462406E+03  0.23581462406E+03  0.00000000000E+00 0.  1.
         23    2    1    2    0    0  0.90936118767E+02  0.50905058392E+02 -0.68917157003E+02  0.15460557338E+03  0.91063747587E+02 0.  0.
         23    2    1    2    0    0 -0.13307967422E+03 -0.10995920596E+03  0.16266930702E+03  0.25385778812E+03  0.90450243099E+02 0.  0.
        -11    1    4    4    0    0 -0.45965333957E+02 -0.95804315979E+02  0.81011204648E+02  0.13361921331E+03  0.00000000000E+00 0. -1.
         11    1    4    4    0    0 -0.87114340263E+02 -0.14154889976E+02  0.81658102373E+02  0.12023857481E+03  0.00000000000E+00 0.  1.
        -13    1    3    3    0    0  0.69722084823E+02 -0.12237604167E+02 -0.26235298432E+02  0.75493171557E+02  0.00000000000E+00 0.  1.
         13    1    3    3    0    0  0.21214033943E+02  0.63142662559E+02 -0.42681858571E+02  0.79112401823E+02  0.00000000000E+00 0. -1.
         21    1    1    2  502  503 -0.33064151014E+02  0.39080032571E+01  0.90737769263E+02  0.96653263486E+02  0.00000000000E+00 0.  1.
         21    1    1    2  503  501  0.75207706466E+02  0.55146144307E+02 -0.46702761581E+02  0.10429978084E+03  0.00000000000E+00 0.  1.
<scales pt_clust_5="13000.00000" pt_clust_6="13000.00000" pt_clust_7="13000.00000" pt_clust_8="13000.00000" pt_clust_9="33.29430" pt_clust_10="90.78374"></scales>
<clustering>
<clus scale="   33.294">  1  9  2 -1</clus>
<clus scale="   90.450">  5  6 -1 -1</clus>
<clus scale="   90.784">  2 10  1 -1</clus>
<clus scale="   91.064">  7  8 -1 -1</clus>
<clus scale="  183.603">  1  5  2 -1</clus>
<clus scale="   33.294">  1  5  2 -1</clus>
</clustering>
</event>
<event>
10    2  0.2445576E-006  0.2553288E+03  0.7546771E-02  0.1110880E+00
         -1   -1    0    0    0  501 -0.00000000000E+00  0.00000000000E+00  0.25577718933E+03  0.25577718933E+03  0.00000000000E+00 0.  1.
          1   -1    0    0  502    0  0.00000000000E+00 -0.00000000000E+00 -0.33155406780E+03  0.33155406780E+03  0.00000000000E+00 0. -1.
         23    2    1    2    0    0  0.52566846426E+02 -0.22152835409E+03  0.15720258663E+02  0.24560184883E+03  0.90747212679E+02 0.  0.
         23    2    1    2    0    0 -0.37823815625E+02  0.23147126616E+03 -0.61293650945E+02  0.26441037144E+03  0.10557625109E+03 0.  0.
        -11    1    3    3    0    0  0.54930008922E+01 -0.12315546343E+03 -0.30754451720E+02  0.12705619832E+03  0.00000000000E+00 0. -1.
         11    1    3    3    0    0  0.47073845533E+02 -0.98372890661E+02  0.46474710383E+02  0.11854565051E+03  0.00000000000E+00 0.  1.
        -13    1    4    4    0    0  0.31645866344E+02  0.28551782943E+02 -0.73807629978E+01  0.43256685360E+02  0.00000000000E+00 0. -1.
         13    1    4    4    0    0 -0.69469681969E+02  0.20291948322E+03 -0.53912887947E+02  0.22115368608E+03  0.00000000000E+00 0.  1.
         21    1    1    2  502  503 -0.36574713083E+02  0.25840984405E+01 -0.36113330819E+02  0.51464160974E+02  0.00000000000E+00 0. -1.
         21    1    1    2  503  501  0.21831682282E+02 -0.12527010512E+02  0.59098446298E+01  0.25854875888E+02  0.00000000000E+00 0. -1.
<scales pt_clust_5="13000.00000" pt_clust_6="13000.00000" pt_clust_7="13000.00000" pt_clust_8="13000.00000" pt_clust_9="35.94258" pt_clust_10="25.17039"></scales>
<clustering>
<clus scale="   25.170">  1 10  2 -1</clus>
<clus scale="   35.943">  2  9  1 -1</clus>
<clus scale="   90.747">  5  6 -1 -1</clus>
<clus scale="  105.576">  7  8 -1 -1</clus>
<clus scale="  249.563">  1  5  2 -1</clus>
<clus scale="   35.943">  2  5  1 -1</clus>
</clustering>
</event>
<event>
10    2  0.2445576E-006  0.9967443E+02  0.7546771E-02  0.1280991E+00
         -1   -1    0    0    0  501 -0.00000000000E+00  0.00000000000E+00  0.53627991072E+02  0.53627991072E+02  0.00000000000E+00 0.  1.
          1   -1    0    0  502    0  0.00000000000E+00 -0.00000000000E+00 -0.57858314533E+03  0.57858314533E+03  0.00000000000E+00 0. -1.
         23    2    1    2    0    0 -0.19149261666E+02  0.41652158821E+02 -0.28680470983E+02  0.10488322353E+03  0.89868373772E+02 0.  0.
         23    2    1    2    0    0  0.88162512526E+01 -0.60236776894E+01 -0.26377029986E+03  0.27887002520E+03  0.89887200920E+02 0.  0.
        -11    1    4    4    0    0 -0.14492560563E+02  0.37853819504E+02 -0.12991004660E+03  0.13608661275E+03  0.00000000000E+00 0.  1.
         11    1    4    4    0    0  0.23308811816E+02 -0.43877497193E+02 -0.13386025326E+03  0.14278341245E+03  0.00000000000E+00 0. -1.
        -11    1    3    3    0    0 -0.42321985699E+02 -0.86823763151E+01 -0.16636086185E+01  0.43235422117E+02  0.00000000000E+00 0. -1.
         11    1    3    3    0    0  0.23172724033E+02  0.50334535136E+02 -0.27016862365E+02  0.61647801409E+02  0.00000000000E+00 0.  1.
         21    1    1    2  502  503  0.38841253921E+02 -0.32125663800E+02 -0.19387561396E+03  0.20032088001E+03  0.00000000000E+00 0. -1.
         21    1    1    2  503  501 -0.28508243507E+02 -0.35028173321E+01 -0.38628769463E+02  0.48137007669E+02  0.00000000000E+00 0.  1.
<scales pt_clust_5="13000.00000" pt_clust_6="13000.00000" pt_clust_7="13000.00000" pt_clust_8="13000.00000" pt_clust_9="49.12334" pt_clust_10="28.72263"></scales>
<clustering>
<clus scale="   28.723">  1 10  2 -1</clus>
<clus scale="   49.123">  2  9  1 -1</clus>
<clus scale="   89.868">  7  8 -1 -1</clus>
<clus scale="   89.887">  5  6 -1 -1</clus>
<clus scale="   99.657">  1  7  2 -1</clus>
<clus scale="   49.123">  2  5  1 -1</clus>
</clustering>
</event>
<event>
10    2  0.2445576E-006  0.1090558E+03  0.7546771E-02  0.1265878E+00
         -1   -1    0    0    0  501 -0.00000000000E+00  0.00000000000E+00  0.35168203435E+03  0.35168203435E+03  0.00000000000E+00 0.  1.
          1   -1    0    0  502    0  0.00000000000E+00 -0.00000000000E+00 -0.16928595382E+03  0.16928595382E+03  0.00000000000E+00 0. -1.
         23    2    1    2    0    0  0.15149164205E+02 -0.62714456536E+02  0.25472752654E+03  0.27727443815E+03  0.88500853298E+02 0.  0.
         23    2    1    2    0    0  0.25105545975E+02  0.45901381837E+01 -0.10183157330E+03  0.14280325678E+03  0.96807763215E+02 0.  0.
        -11    1    4    4    0    0 -0.12176738692E+02 -0.40091548360E+02 -0.44125798025E+02  0.60849743356E+02  0.00000000000E+00 0.  1.
         11    1    4    4    0    0  0.37282284667E+02  0.44681686544E+02 -0.57705775278E+02  0.81953513426E+02  0.00000000000E+00 0. -1.
        -13    1    3    3    0    0 -0.26367620546E+02 -0.67241578036E+01  0.24119180888E+02  0.36362076373E+02  0.00000000000E+00 0. -1.
         13    1    3    3    0    0  0.41516784751E+02 -0.55990298732E+02  0.23060834566E+03  0.24091236177E+03  0.00000000000E+00 0.  1.
         21    1    1    2  502  503 -0.15329014862E+02  0.48803824925E+02 -0.11101085500E+02  0.52345258842E+02  0.00000000000E+00 0. -1.
         21    1    1    2  503  501 -0.24925695318E+02  0.93204934277E+01  0.40601212786E+02  0.48545034396E+02  0.00000000000E+00 0. -1.
<scales pt_clust_5="13000.00000" pt_clust_6="13000.00000" pt_clust_7="13000.00000" pt_clust_8="13000.00000" pt_clust_9="52.27225" pt_clust_10="26.61131"></scales>
<clustering>
<clus scale="   26.611">  1 10  2 -1</clus>
<clus scale="   52.272">  2  9  1 -1</clus>
<clus scale="   88.501">  7  8 -1 -1</clus>
<clus scale="   96.808">  5  6 -1 -1</clus>
<clus scale="  101.754">  1  7  2 -1</clus>
<clus scale="   52.272">  2  5  1 -1</clus>
</clustering>
</event>
<event>
10    2  0.2445576E-006  0.3136131E+03  0.7546771E-02  0.1078778E+00
         -2   -1    0    0    0  501 -0.00000000000E+00  0.00000000000E+00  0.48248165586E+03  0.48248165586E+03  0.00000000000E+00 0.  1.
          2   -1    0    0  502    0  0.00000000000E+00 -0.00000000000E+00 -0.17131586360E+04  0.17131586360E+04  0.00000000000E+00 0. -1.
         23    2    1    2    0    0 -0.21707484623E+03  0.19862635980E+03  0.27137748001E+03  0.40995092985E+03  0.88544387485E+02 0.  0.
         23    2    1    2    0    0  0.23775751863E+03 -0.25725582344E+03 -0.15193996219E+04  0.15615144180E+04  0.83921808963E+02 0.  0.
        -11    1    3    3    0    0 -0.15639172209E+03  0.13575315952E+03  0.24026042211E+03  0.31719451680E+03  0.00000000000E+00 0.  1.
         11    1    3    3    0    0 -0.60683124148E+02  0.62873200278E+02  0.31117057902E+02  0.92756413051E+02  0.00000000000E+00 0. -1.
        -13    1    4    4    0    0  0.23192527935E+03 -0.21310162989E+03 -0.13612912294E+04  0.13972528229E+04  0.00000000000E+00 0. -1.
         13    1    4    4    0    0  0.58322392794E+01 -0.44154193550E+02 -0.15810839251E+03  0.16426159504E+03  0.00000000000E+00 0.  1.
         21    1    1    2  502  503 -0.42525270026E+02  0.30812216059E+02 -0.93820937589E+02  0.10751818255E+03  0.00000000000E+00 0.  1.
         21    1    1    2  503  501  0.21842597631E+02  0.27817247583E+02  0.11116609941E+03  0.11665676145E+03  0.00000000000E+00 0.  1.
<scales pt_clust_5="13000.00000" pt_clust_6="13000.00000" pt_clust_7="13000.00000" pt_clust_8="13000.00000" pt_clust_9="52.49340" pt_clust_10="35.36804"></scales>
<clustering>
<clus scale="   35.368">  1 10  2 -1</clus>
<clus scale="   52.493">  2  9  1 -1</clus>
<clus scale="   83.922">  7  8 -1 -1</clus>
<clus scale="   88.544">  5  6 -1 -1</clus>
<clus scale="  312.339">  2  7  1 -1</clus>
<clus scale="   52.493">  2  5  1 -1</clus>
</clustering>
</event>
<event>
10    2  0.2445576E-006  0.1280298E+03  0.7546771E-02  0.1231183E+00
          1   -1    0    0  502    0  0.00000000000E+00  0.00000000000E+00  0.11964515082E+04  0.11964515082E+04  0.00000000000E+00 0. -1.
         -1   -1    0    0    0  501 -0.00000000000E+00 -0.00000000000E+00 -0.98629422822E+02  0.98629422822E+02  0.00000000000E+00 0.  1.
         23    2    1    2    0    0  0.15609088507E+02 -0.11223235394E+03 -0.87915032076E+01  0.14461133724E+03  0.89417019725E+02 0.  0.
         23    2    1    2    0    0 -0.77678067880E+02  0.12326317340E+02  0.59314480481E+03  0.60540647704E+03  0.92251951951E+02 0.  0.
        -13    1    4    4    0    0 -0.93137461249E+02  0.26824077848E+02  0.53028826175E+03  0.53907305478E+03  0.00000000000E+00 0.  1.
         13    1    4    4    0    0  0.15459393369E+02 -0.14497760508E+02  0.62856543059E+02  0.66333422258E+02  0.00000000000E+00 0. -1.
        -13    1    3    3    0    0  0.44373495311E+02 -0.26565685281E+02 -0.15514228318E+02  0.53994759012E+02  0.00000000000E+00 0. -1.
         13    1    3    3    0    0 -0.28764406804E+02 -0.85666668658E+02  0.67227251099E+01  0.90616578233E+02  0.00000000000E+00 0.  1.
         21    1    1    2  502  503  0.60532146930E+02  0.78601692171E+02  0.51420765911E+03  0.52369063722E+03  0.00000000000E+00 0. -1.
         21    1    1    2  503  501  0.15368324436E+01  0.21304344428E+02 -0.73887530102E+00  0.21372479551E+02  0.00000000000E+00 0. -1.
<scales pt_clust_5="13000.00000" pt_clust_6="13000.00000" pt_clust_7="13000.00000" pt_clust_8="13000.00000" pt_clust_9="100.17539" pt_clust_10="21.35970"></scales>
<clustering>
<clus scale="   21.360">  2 10  1 -1</clus>
<clus scale="   89.417">  7  8 -1 -1</clus>
<clus scale="   92.252">  5  6 -1 -1</clus>
<clus scale="  100.175">  1  9  2 -1</clus>
<clus scale="  126.002">  2  7  1 -1</clus>
<clus scale="  100.175">  1  5  2 -1</clus>
</clustering>
</event>
<event>
10    2  0.2445576E-006  0.1156470E+03  0.7546771E-02  0.1250641E+00
          1   -1    0    0  502    0  0.00000000000E+00  0.00000000000E+00  0.84597740722E+03  0.84597740722E+03  0.00000000000E+00 0. -1.
         -1   -1    0    0    0  501 -0.00000000000E+00 -0.00000000000E+00 -0.10281556566E+03  0.10281556566E+03  0.00000000000E+00 0.  1.
         23    2    1    2    0    0 -0.31359257710E+02  0.41545293141E+02 -0.37524947373E+02  0.11212694146E+03  0.91950611199E+02 0.  0.
         23    2    1    2    0    0 -0.49735656038E+02 -0.43971308719E+02  0.47261748848E+03  0.48593301170E+03  0.91413839088E+02 0.  0.
        -11    1    3    3    0    0 -0.24908664564E+02 -0.47038322043E+01 -0.56341705520E+02  0.61781513324E+02  0.00000000000E+00 0.  1.
         11    1    3    3    0    0 -0.64505931455E+01  0.46249125345E+02  0.18816758147E+02  0.50345428137E+02  0.00000000000E+00 0. -1.
        -13    1    4    4    0    0 -0.63420407035E+02  0.11449599538E+01  0.31893480356E+03  0.32518128465E+03  0.00000000000E+00 0.  1.
         13    1    4    4    0    0  0.13684750997E+02 -0.45116268673E+02  0.15368268491E+03  0.16075172706E+03  0.00000000000E+00 0. -1.
         21    1    1    2  502  503  0.33278416653E+02 -0.33234843882E+02  0.28155426701E+03  0.28545544860E+03  0.00000000000E+00 0. -1.
         21    1    1    2  503  501  0.47816497095E+02  0.35660859460E+02  0.26515033439E+02  0.65277571111E+02  0.00000000000E+00 0.  1.
<scales pt_clust_5="13000.00000" pt_clust_6="13000.00000" pt_clust_7="13000.00000" pt_clust_8="13000.00000" pt_clust_9="47.03199" pt_clust_10="60.32505"></scales>
<clustering>
<clus scale="   47.032">  1  9  2 -1</clus>
<clus scale="   60.325">  2 10  1 -1</clus>
<clus scale="   91.414">  7  8 -1 -1</clus>
<clus scale="   91.951">  5  6 -1 -1</clus>
<clus scale="  115.221">  1  7  2 -1</clus>
<clus scale="   47.032">  1  5  2 -1</clus>
</clustering>
</event>
<event>
10    2  0.2445576E-006  0.2211704E+03  0.7546771E-02  0.1133487E+00
         -1   -1    0    0    0  501 -0.00000000000E+00  0.00000000000E+00  0.69174266814E+03  0.69174266814E+03  0.00000000000E+00 0.  1.
          1   -1    0    0  502    0  0.00000000000E+00 -0.00000000000E+00 -0.15710025438E+03  0.15710025438E+03  0.00000000000E+00 0. -1.
         23    2    1    2    0    0  0.11770738346E+03  0.13885579949E+03  0.41582862474E+03  0.46205789297E+03  0.86302318230E+02 0.  0.
         23    2    1    2    0    0 -0.14666311505E+03 -0.17602740794E+03  0.54200742652E+01  0.24259935406E+03  0.79557222949E+02 0.  0.
        -11    1    3    3    0    0  0.15440810410E+02  0.73986225391E+02  0.11336234625E+03  0.13624757510E+03  0.00000000000E+00 0.  1.
         11    1    3    3    0    0  0.10226657305E+03  0.64869574099E+02  0.30246627849E+03  0.32581031787E+03  0.00000000000E+00 0. -1.
        -13    1    4    4    0    0 -0.12986690240E+03 -0.10915069449E+03 -0.15994497807E+02  0.17039692017E+03  0.00000000000E+00 0. -1.
         13    1    4    4    0    0 -0.16796212651E+02 -0.66876713456E+02  0.21414572072E+02  0.72202433886E+02  0.00000000000E+00 0.  1.
         21    1    1    2  502  503  0.14294546333E+02  0.21159720195E+02 -0.30665803003E+01  0.25719092681E+02  0.00000000000E+00 0. -1.
         21    1    1    2  503  501  0.14661185251E+02  0.16011888257E+02  0.11646029505E+03  0.11846658281E+03  0.00000000000E+00 0.  1.
<scales pt_clust_5="13000.00000" pt_clust_6="13000.00000" pt_clust_7="13000.00000" pt_clust_8="13000.00000" pt_clust_9="25.95924" pt_clust_10="21.71016"></scales>
<clustering>
<clus scale="   21.710">  1 10  2 -1</clus>
<clus scale="   25.959">  2  9  1 -1</clus>
<clus scale="   79.557">  7  8 -1 -1</clus>
<clus scale="   86.302">  5  6 -1 -1</clus>
<clus scale="  218.627">  2  7  1 -1</clus>
<clus scale="   25.959">  2  5  1 -1</clus>
</clustering>
</event>
<event>
10    2  0.2445576E-006  0.1137947E+03  0.7546771E-02  0.1255185E+00
          2   -1    0    0  502    0  0.00000000000E+00  0.00000000000E+00  0.12564319383E+03  0.12564319383E+03  0.00000000000E+00 0. -1.
         -2   -1    0    0    0  501 -0.00000000000E+00 -0.00000000000E+00 -0.36968087562E+03  0.36968087562E+03  0.00000000000E+00 0.  1.
         23    2    1    2    0    0  0.14136159722E+02  0.74997929889E+02 -0.21791650706E+03  0.24820580777E+03  0.91071392111E+02 0.  0.
         23    2    1    2    0    0  0.38029806906E+02 -0.54963646926E+02  0.63094830365E+02  0.13222281496E+03  0.95050757388E+02 0.  0.
        -11    1    4    4    0    0 -0.25031952464E+02 -0.46049013386E+02  0.25812846742E+02  0.58424424130E+02  0.00000000000E+00 0.  1.
         11    1    4    4    0    0  0.63061759370E+02 -0.89146335404E+01  0.37281983623E+02  0.73798390829E+02  0.00000000000E+00 0. -1.
        -11    1    3    3    0    0  0.90500938020E+01  0.49550319417E+02 -0.21642817264E+03  0.22221226848E+03  0.00000000000E+00 0.  1.
         11    1    3    3    0    0  0.50860659202E+01  0.25447610472E+02 -0.14883344219E+01  0.25993539287E+02  0.00000000000E+00 0. -1.
         21    1    1    2  502  503 -0.20826314033E+02 -0.36215259717E+01 -0.25563719651E+01  0.21292858995E+02  0.00000000000E+00 0. -1.
         21    1    1    2  503  501 -0.31339652595E+02 -0.16412756991E+02 -0.86659633127E+02  0.93602587734E+02  0.00000000000E+00 0. -1.
<scales pt_clust_5="13000.00000" pt_clust_6="13000.00000" pt_clust_7="13000.00000" pt_clust_8="13000.00000" pt_clust_9="21.13885" pt_clust_10="35.97879"></scales>
<clustering>
<clus scale="   21.139">  1  9  2 -1</clus>
<clus scale="   35.979">  2 10  1 -1</clus>
<clus scale="   91.071">  7  8 -1 -1</clus>
<clus scale="   95.051">  5  6 -1 -1</clus>
<clus scale="  110.493">  2  7  1 -1</clus>
<clus scale="   21.139">  1  5  2 -1</clus>
</clustering>
</event>
<event>
10    2  0.2445576E-006  0.1691757E+03  0.7546771E-02  0.1179419E+00
         -1   -1    0    0    0  501 -0.00000000000E+00  0.00000000000E+00  0.33780851892E+03  0.33780851892E+03  0.00000000000E+00 0.  1.
          1   -1    0    0  502    0  0.00000000000E+00 -0.00000000000E+00 -0.39925329267E+03  0.39925329267E+03  0.00000000000E+00 0. -1.
         23    2    1    2    0    0  0.12250639057E+03  0.80298359279E+02 -0.18208875564E+03  0.25025291365E+03  0.89524095228E+02 0.  0.
         23    2    1    2    0    0 -0.11616008147E+03 -0.63972295091E+02 -0.12779162590E+03  0.20695261864E+03  0.94409044309E+02 0.  0.
        -11    1    4    4    0    0 -0.12783725560E+03 -0.37476218063E+02 -0.11155012341E+03  0.17375344852E+03  0.00000000000E+00 0. -1.
         11    1    4    4    0    0  0.11677174134E+02 -0.26496077029E+02 -0.16241502484E+02  0.33199170119E+02  0.00000000000E+00 0.  1.
        -11    1    3    3    0    0  0.82318378622E+02  0.87331836499E+02 -0.16924959561E+03  0.20748154313E+03  0.00000000000E+00 0. -1.
         11    1    3    3    0    0  0.40188011945E+02 -0.70334772203E+01 -0.12839160033E+02  0.42771370521E+02  0.00000000000E+00 0.  1.
         21    1    1    2  502  503  0.19227610613E+02  0.60565158781E+01 -0.76230561846E+01  0.21552108483E+02  0.00000000000E+00 0. -1.
         21    1    1    2  503  501 -0.25573919710E+02 -0.22382580065E+02  0.25605866398E+03  0.25830417081E+03  0.00000000000E+00 0.  1.
<scales pt_clust_5="13000.00000" pt_clust_6="13000.00000" pt_clust_7="13000.00000" pt_clust_8="13000.00000" pt_clust_9="20.15893" pt_clust_10="33.93150"></scales>
<clustering>
<clus scale="   20.159">  2  9  1 -1</clus>
<clus scale="   33.932">  1 10  2 -1</clus>
<clus scale="   89.524">  7  8 -1 -1</clus>
<clus scale="   94.409">  5  6 -1 -1</clus>
<clus scale="  166.499">  1  7  2 -1</clus>
<clus scale="   20.159">  2  5  1 -1</clus>
</clustering>
</event>
<event>
10    2  0.2445576E-006  0.1370584E+03  0.7546771E-02  0.1217472E+00
          1   -1    0    0  502    0  0.00000000000E+00  0.00000000000E+00  0.10483022667E+03  0.10483022667E+03  0.00000000000E+00 0. -1.
         -1   -1    0    0    0  501 -0.00000000000E+00 -0.00000000000E+00 -0.49271225649E+03  0.49271225649E+03  0.00000000000E+00 0.  1.
         23    2    1    2    0    0  0.10063069943E+03 -0.98096371222E+01 -0.38580752468E+03  0.40999997032E+03  0.95025064697E+02 0.  0.
         23    2    1    2    0    0 -0.79173334355E+02  0.17608804488E+02  0.22262973815E+02  0.12730363467E+03  0.95561961729E+02 0.  0.
        -11    1    4    4    0    0 -0.75224777670E+02  0.48111508379E+02  0.32289930617E+02  0.94953272894E+02  0.00000000000E+00 0.  1.
         11    1    4    4    0    0 -0.39485566854E+01 -0.30502703891E+02 -0.10026956802E+02  0.32350361779E+02  0.00000000000E+00 0. -1.
        -13    1    3    3    0    0  0.10616747114E+03  0.12354164643E+02 -0.36000927637E+03  0.37554072534E+03  0.00000000000E+00 0.  1.
         13    1    3    3    0    0 -0.55367717062E+01 -0.22163801765E+02 -0.25798248304E+02  0.34459244988E+02  0.00000000000E+00 0. -1.
         21    1    1    2  502  503  0.56725472767E+01 -0.21638762523E+02 -0.19795358806E+01  0.22457346202E+02  0.00000000000E+00 0.  1.
         21    1    1    2  503  501 -0.27129912352E+02  0.13839595157E+02 -0.22357943080E+02  0.37781531958E+02  0.00000000000E+00 0.  1.
<scales pt_clust_5="13000.00000" pt_clust_6="13000.00000" pt_clust_7="13000.00000" pt_clust_8="13000.00000" pt_clust_9="22.36993" pt_clust_10="29.27403"></scales>
<clustering>
<clus scale="   22.370">  1  9  2 -1</clus>
<clus scale="   29.274">  1 10  2 -1</clus>
<clus scale="   95.025">  7  8 -1 -1</clus>
<clus scale="   95.562">  5  6 -1 -1</clus>
<clus scale="  136.685">  2  7  1 -1</clus>
<clus scale="   22.370">  1  5  2 -1</clus>
</clustering>
</event>
<event>
10    2  0.2445576E-006  0.1136217E+03  0.7546771E-02  0.1258785E+00
          1   -1    0    0  502    0  0.00000000000E+00  0.00000000000E+00  0.14347191773E+03  0.14347191773E+03  0.00000000000E+00 0. -1.
         -1   -1    0    0    0  501 -0.00000000000E+00 -0.00000000000E+00 -0.65281328353E+03  0.65281328353E+03  0.00000000000E+00 0.  1.
         23    2    1    2    0    0  0.39785008133E+02 -0.29264220662E+02 -0.14204081765E+03  0.17585535405E+03  0.91160683330E+02 0.  0.
         23    2    1    2    0    0  0.48368322020E+02 -0.35278135290E+02  0.71144624975E+02  0.13313216208E+03  0.95281548653E+02 0.  0.
        -11    1    3    3    0    0 -0.18625178947E+01  0.30610787369E+02 -0.45189031225E+02  0.54612615935E+02  0.00000000000E+00 0.  1.
         11    1    3    3    0    0  0.41647526027E+02 -0.59875008031E+02 -0.96851786427E+02  0.12124273811E+03  0.00000000000E+00 0. -1.
        -13    1    4    4    0    0 -0.14250339067E+01 -0.57047954720E+02  0.27065822545E+02  0.63158994683E+02  0.00000000000E+00 0.  1.
         13    1    4    4    0    0  0.49793355927E+02  0.21769819429E+02  0.44078802430E+02  0.69973167401E+02  0.00000000000E+00 0. -1.
         21    1    1    2  502  503 -0.17628700619E+02 -0.14823149791E+02  0.10969888685E+02  0.25511474144E+02  0.00000000000E+00 0. -1.
         21    1    1    2  503  501 -0.70524629534E+02  0.79365505744E+02 -0.44941506181E+03  0.46178621098E+03  0.00000000000E+00 0.  1.
<scales pt_clust_5="13000.00000" pt_clust_6="13000.00000" pt_clust_7="13000.00000" pt_clust_8="13000.00000" pt_clust_9="23.03252" pt_clust_10="61.89763"></scales>
<clustering>
<clus scale="   23.033">  1  9  2 -1</clus>
<clus scale="   91.161">  5  6 -1 -1</clus>
<clus scale="   95.282">  7  8 -1 -1</clus>
<clus scale="  103.378">  2  5  1 -1</clus>
<clus scale="   61.898">  2 10  1 -1</clus>
<clus scale="   23.033">  1  5  2 -1</clus>
</clustering>
</event>
<event>
10    2  0.2445576E-006  0.1073578E+03  0.7546771E-02  0.1268515E+00
         -1   -1    0    0    0  501 -0.00000000000E+00  0.00000000000E+00  0.77021419402E+02  0.77021419402E+02  0.00000000000E+00 0.  1.
          1   -1    0    0  502    0  0.00000000000E+00 -0.00000000000E+00 -0.44923356622E+03  0.44923356622E+03  0.00000000000E+00 0. -1.
         23    2    1    2    0    0 -0.55770267987E+02 -0.26090278191E+00 -0.31110955568E+02  0.11297533719E+03  0.93194122110E+02 0.  0.
         23    2    1    2    0    0  0.41784136209E+02 -0.24181802931E+02 -0.24467291285E+03  0.26858547065E+03  0.99712823283E+02 0.  0.
        -13    1    4    4    0    0  0.72152232356E+02 -0.20985153057E+02 -0.20621586860E+03  0.21947962490E+03  0.00000000000E+00 0.  1.
         13    1    4    4    0    0 -0.30368096147E+02 -0.31966498742E+01 -0.38457044249E+02  0.49105845745E+02  0.00000000000E+00 0. -1.
        -13    1    3    3    0    0  0.16596004839E+01  0.37116754665E+02  0.12957665989E+01  0.37176427501E+02  0.00000000000E+00 0.  1.
         13    1    3    3    0    0 -0.57429868471E+02 -0.37377657447E+02 -0.32406722167E+02  0.75798909692E+02  0.00000000000E+00 0. -1.
         21    1    1    2  502  503 -0.10751003554E+02  0.37654681553E+02 -0.10760181202E+03  0.11450593465E+03  0.00000000000E+00 0. -1.
         21    1    1    2  503  501  0.24737135332E+02 -0.13211975840E+02  0.11173533619E+02  0.30188243135E+02  0.00000000000E+00 0.  1.
<scales pt_clust_5="13000.00000" pt_clust_6="13000.00000" pt_clust_7="13000.00000" pt_clust_8="13000.00000" pt_clust_9="37.98496" pt_clust_10="28.04429"></scales>
<clustering>
<clus scale="   28.044">  1 10  2 -1</clus>
<clus scale="   37.985">  2  9  1 -1</clus>
<clus scale="   93.194">  7  8 -1 -1</clus>
<clus scale="   99.713">  5  6 -1 -1</clus>
<clus scale="  101.332">  1  7  2 -1</clus>
<clus scale="   37.985">  2  5  1 -1</clus>
</clustering>
</event>
<event>
10    2  0.2445576E-006  0.9947242E+02  0.7546771E-02  0.1284396E+00
         -1   -1    0    0    0  501 -0.00000000000E+00  0.00000000000E+00  0.23011389276E+03  0.23011389276E+03  0.00000000000E+00 0.  1.
          1   -1    0    0  502    0  0.00000000000E+00 -0.00000000000E+00 -0.15048882634E+03  0.15048882634E+03  0.00000000000E+00 0. -1.
         23    2    1    2    0    0 -0.82731427907E+01  0.47486907341E+02  0.15724995379E+03  0.18786639570E+03  0.90789775887E+02 0.  0.
         23    2    1    2    0    0 -0.16474395491E+02 -0.18548004914E+02 -0.88280311323E+01  0.88755719818E+02  0.84759716101E+02 0.  0.
        -13    1    3    3    0    0 -0.90972043627E+01 -0.21537349666E+02  0.10374397673E+02  0.25578207227E+02  0.00000000000E+00 0. -1.
         13    1    3    3    0    0  0.82406157205E+00  0.69024257007E+02  0.14687555612E+03  0.16228818848E+03  0.00000000000E+00 0.  1.
        -13    1    4    4    0    0 -0.52949518530E+01  0.26994919120E+02  0.19726649730E+02  0.33851187320E+02  0.00000000000E+00 0.  1.
         13    1    4    4    0    0 -0.11179443638E+02 -0.45542924035E+02 -0.28554680862E+02  0.54904532498E+02  0.00000000000E+00 0. -1.
         21    1    1    2  502  503 -0.25886953486E+00 -0.23140654037E+02 -0.74219945837E+02  0.77744178192E+02  0.00000000000E+00 0.  1.
         21    1    1    2  503  501  0.25006407816E+02 -0.57982483896E+01  0.54230896022E+01  0.26236425387E+02  0.00000000000E+00 0. -1.
<scales pt_clust_5="13000.00000" pt_clust_6="13000.00000" pt_clust_7="13000.00000" pt_clust_8="13000.00000" pt_clust_9="23.14210" pt_clust_10="26.55299"></scales>
<clustering>
<clus scale="   23.142">  2  9  1 -1</clus>
<clus scale="   26.553">  2 10  1 -1</clus>
<clus scale="   84.760">  7  8 -1 -1</clus>
<clus scale="   90.790">  5  6 -1 -1</clus>
<clus scale="   94.001">  2  7  1 -1</clus>
<clus scale="   23.142">  2  5  1 -1</clus>
</clustering>
</event>
<event>
10    2  0.2445576E-006  0.1462000E+03  0.7546771E-02  0.1205643E+00
          1   -1    0    0  503    0  0.00000000000E+00  0.00000000000E+00  0.62408996037E+03  0.62408996037E+03  0.00000000000E+00 0. -1.
         -1   -1    0    0    0  501 -0.00000000000E+00 -0.00000000000E+00 -0.59722109183E+03  0.59722109183E+03  0.00000000000E+00 0.  1.
         23    2    1    2    0    0  0.96564463954E+02 -0.69208189865E+02 -0.52776342682E+03  0.54853137214E+03  0.90763221014E+02 0.  0.
         23    2    1    2    0    0  0.48528839321E+01  0.73518857303E+02  0.10112809075E+03  0.15581379988E+03  0.92857291755E+02 0.  0.
        -11    1    3    3    0    0  0.30151999101E+02  0.10846331152E+01 -0.34299856032E+02  0.45681501755E+02  0.00000000000E+00 0. -1.
         11    1    3    3    0    0  0.66412464853E+02 -0.70292822980E+02 -0.49346357079E+03  0.50284987038E+03  0.00000000000E+00 0.  1.
        -13    1    4    4    0    0 -0.42052948132E+02  0.48304604514E+02  0.43933034467E+02  0.77665286850E+02  0.00000000000E+00 0.  1.
         13    1    4    4    0    0  0.46905832064E+02  0.25214252789E+02  0.57195056286E+02  0.78148513031E+02  0.00000000000E+00 0. -1.
         21    1    1    2  502  501 -0.56814715922E+02  0.74780278516E+02  0.40147873085E+03  0.41231683609E+03  0.00000000000E+00 0. -1.
         21    1    1    2  503  502 -0.44602631964E+02 -0.79090945954E+02  0.52025473759E+02  0.10464904409E+03  0.00000000000E+00 0.  1.
<scales pt_clust_5="13000.00000" pt_clust_6="13000.00000" pt_clust_7="13000.00000" pt_clust_8="13000.00000" pt_clust_9="91.44663" pt_clust_10="90.80073"></scales>
<clustering>
<clus scale="   90.763">  5  6 -1 -1</clus>
<clus scale="   90.801">  1 10  2 -1</clus>
<clus scale="   91.447">  1  9  2 -1</clus>
<clus scale="   92.857">  7  8 -1 -1</clus>
<clus scale="  144.879">  2  5  1 -1</clus>
<clus scale="   90.801">  1  5  2 -1</clus>
</clustering>
</event>
<event>
10    2  0.2445576E-006  0.1778639E+03  0.7546771E-02  0.1170717E+00
         -3   -1    0    0    0  501 -0.00000000000E+00  0.00000000000E+00  0.88424124201E+03  0.88424124201E+03  0.00000000000E+00 0.  1.
          3   -1    0    0  502    0  0.00000000000E+00 -0.00000000000E+00 -0.66098273576E+02  0.66098273576E+02  0.00000000000E+00 0. -1.
         23    2    1    2    0    0  0.11788887762E+03 -0.96803056956E+02  0.38075946011E+03  0.42033119188E+03  0.91825514430E+02 0.  0.
         23    2    1    2    0    0 -0.13986391708E+03  0.64887920628E+02  0.25335465251E+03  0.31236473247E+03  0.98034629600E+02 0.  0.
        -13    1    3    3    0    0  0.11528998793E+03 -0.42179126156E+02  0.24703524494E+03  0.27585734038E+03  0.00000000000E+00 0. -1.
         13    1    3    3    0    0  0.25988896911E+01 -0.54623930800E+02  0.13372421517E+03  0.14447385150E+03  0.00000000000E+00 0.  1.
        -13    1    4    4    0    0 -0.65259154269E+02 -0.50863259770E+01  0.16387578747E+03  0.17646501536E+03  0.00000000000E+00 0.  1.
         13    1    4    4    0    0 -0.74604762814E+02  0.69974246605E+02  0.89478865038E+02  0.13589971711E+03  0.00000000000E+00 0. -1.
         21    1    1    2  502  503  0.12402058409E+02 -0.17068376216E+02 -0.53765409714E+01  0.21772636778E+02  0.00000000000E+00 0. -1.
         21    1    1    2  503  501  0.95729810565E+01  0.48983512544E+02  0.18940539679E+03  0.19587095446E+03  0.00000000000E+00 0.  1.
<scales pt_clust_5="13000.00000" pt_clust_6="13000.00000" pt_clust_7="13000.00000" pt_clust_8="13000.00000" pt_clust_9="21.09835" pt_clust_10="49.03478"></scales>
<clustering>
<clus scale="   21.098">  2  9  1 -1</clus>
<clus scale="   49.035">  1 10  2 -1</clus>
<clus scale="   91.826">  5  6 -1 -1</clus>
<clus scale="   98.035">  7  8 -1 -1</clus>
<clus scale="  174.519">  1  5  2 -1</clus>
<clus scale="   21.098">  2  5  1 -1</clus>
</clustering>
</event>
<event>
10    2  0.2445576E-006  0.1305618E+03  0.7546771E-02  0.1226757E+00
          1   -1    0    0  502    0  0.00000000000E+00  0.00000000000E+00  0.54866105752E+03  0.54866105752E+03  0.00000000000E+00 0. -1.
         -1   -1    0    0    0  501 -0.00000000000E+00 -0.00000000000E+00 -0.15142553096E+03  0.15142553096E+03  0.00000000000E+00 0.  1.
         23    2    1    2    0    0  0.53806955318E+02 -0.55977472855E+02 -0.80418582719E+02  0.14487756001E+03  0.92161233936E+02 0.  0.
         23    2    1    2    0    0 -0.92425786104E+02  0.15289770301E+02  0.23562895397E+03  0.26962532386E+03  0.91654286907E+02 0.  0.
        -11    1    4    4    0    0  0.96135222536E+01  0.22384613668E+02  0.78016138077E+02  0.81731319209E+02  0.00000000000E+00 0.  1.
         11    1    4    4    0    0 -0.10203930836E+03 -0.70948433669E+01  0.15761281589E+03  0.18789400465E+03  0.00000000000E+00 0. -1.
        -11    1    3    3    0    0  0.65340305747E+02 -0.33734050570E+02 -0.91579501449E+02  0.11744848577E+03  0.00000000000E+00 0.  1.
         11    1    3    3    0    0 -0.11533350429E+02 -0.22243422285E+02  0.11160918731E+02  0.27429074246E+02  0.00000000000E+00 0. -1.
         21    1    1    2  502  503  0.13910646380E+02  0.42636514872E+02  0.25409044329E+03  0.25801808435E+03  0.00000000000E+00 0. -1.
         21    1    1    2  503  501  0.24708184406E+02 -0.19488123179E+01 -0.12065287979E+02  0.27565620257E+02  0.00000000000E+00 0.  1.
<scales pt_clust_5="13000.00000" pt_clust_6="13000.00000" pt_clust_7="13000.00000" pt_clust_8="13000.00000" pt_clust_9="44.93654" pt_clust_10="24.78492"></scales>
<clustering>
<clus scale="   24.785">  2 10  1 -1</clus>
<clus scale="   44.937">  1  9  2 -1</clus>
<clus scale="   91.654">  5  6 -1 -1</clus>
<clus scale="   92.161">  7  8 -1 -1</clus>
<clus scale="  130.204">  1  5  2 -1</clus>
<clus scale="   44.937">  1  5  2 -1</clus>
</clustering>
</event>
<event>
10    2  0.2445576E-006  0.1426533E+03  0.7546771E-02  0.1220094E+00
         -1   -1    0    0    0  501 -0.00000000000E+00  0.00000000000E+00  0.83760387601E+03  0.83760387601E+03  0.00000000000E+00 0.  1.
          1   -1    0    0  502    0  0.00000000000E+00 -0.00000000000E+00 -0.20003623643E+03  0.20003623643E+03  0.00000000000E+00 0. -1.
         23    2    1    2    0    0  0.10682489712E+03  0.52189908649E+02  0.40354603835E+03  0.43042660359E+03  0.91007201903E+02 0.  0.
         23    2    1    2    0    0 -0.16403398983E+02 -0.53109625431E+02 -0.99771154120E+02  0.13137888617E+03  0.64934002834E+02 0.  0.
        -11    1    3    3    0    0  0.42645225196E+02  0.51073968396E+02  0.30944460622E+03  0.31651718721E+03  0.00000000000E+00 0.  1.
         11    1    3    3    0    0  0.64179671925E+02  0.11159402532E+01  0.94101432135E+02  0.11390941638E+03  0.00000000000E+00 0. -1.
        -13    1    4    4    0    0  0.74726995774E+01 -0.25585857825E+02 -0.16441757355E+01  0.26705442769E+02  0.00000000000E+00 0.  1.
         13    1    4    4    0    0 -0.23876098561E+02 -0.27523767605E+02 -0.98126978384E+02  0.10467344340E+03  0.00000000000E+00 0. -1.
         21    1    1    2  502  503  0.21090183522E+02 -0.49699206024E+02 -0.49627130885E+02  0.73332523755E+02  0.00000000000E+00 0. -1.
         21    1    1    2  503  501 -0.11151168166E+03  0.50618922805E+02  0.38341988623E+03  0.40250209893E+03  0.00000000000E+00 0. -1.
<scales pt_clust_5="13000.00000" pt_clust_6="13000.00000" pt_clust_7="13000.00000" pt_clust_8="13000.00000" pt_clust_9="53.98895" pt_clust_10="109.85293"></scales>
<clustering>
<clus scale="   53.989">  2  9  1 -1</clus>
<clus scale="   64.934">  7  8 -1 -1</clus>
<clus scale="   91.007">  5  6 -1 -1</clus>
<clus scale="  114.719">  2  7  1 -1</clus>
<clus scale="  109.853">  1 10  2 -1</clus>
<clus scale="   53.989">  2  5  1 -1</clus>
</clustering>
</event>
<event>
10    2  0.2445576E-006  0.1240412E+03  0.7546771E-02  0.1236815E+00
          1   -1    0    0  502    0  0.00000000000E+00  0.00000000000E+00  0.44370016781E+03  0.44370016781E+03  0.00000000000E+00 0. -1.
         -1   -1    0    0    0  501 -0.00000000000E+00 -0.00000000000E+00 -0.92422556769E+02  0.92422556769E+02  0.00000000000E+00 0.  1.
         23    2    1    2    0    0  0.45542350467E+02 -0.62106265748E+02  0.49643183375E+02  0.13249288893E+03  0.95700710709E+02 0.  0.
         23    2    1    2    0    0 -0.60172052463E+02  0.52624036825E+02  0.28995508594E+03  0.31539316315E+03  0.94915385197E+02 0.  0.
        -11    1    4    4    0    0 -0.22804360980E+02 -0.38828640432E+01  0.66047865330E+01  0.24056988964E+02  0.00000000000E+00 0.  1.
         11    1    4    4    0    0 -0.37367691483E+02  0.56506900868E+02  0.28335029941E+03  0.29133617418E+03  0.00000000000E+00 0. -1.
        -13    1    3    3    0    0  0.47547442610E+02 -0.26380371853E+02 -0.16898380067E+02  0.56940658292E+02  0.00000000000E+00 0.  1.
         13    1    3    3    0    0 -0.20050921435E+01 -0.35725893895E+02  0.66541563441E+02  0.75552230637E+02  0.00000000000E+00 0. -1.
         21    1    1    2  502  503  0.10547836104E+02  0.30666047408E+02  0.40722589707E+02  0.52057589481E+02  0.00000000000E+00 0.  1.
         21    1    1    2  503  501  0.40818658920E+01 -0.21183818485E+02 -0.29043247983E+02  0.36179083020E+02  0.00000000000E+00 0. -1.
<scales pt_clust_5="13000.00000" pt_clust_6="13000.00000" pt_clust_7="13000.00000" pt_clust_8="13000.00000" pt_clust_9="30.67393" pt_clust_10="21.57350"></scales>
<clustering>
<clus scale="   21.573">  2 10  1 -1</clus>
<clus scale="   30.674">  2  9  1 -1</clus>
<clus scale="   94.915">  5  6 -1 -1</clus>
<clus scale="   95.701">  7  8 -1 -1</clus>
<clus scale="  123.436">  1  5  2 -1</clus>
<clus scale="  123.436">  1  5  2 -1</clus>
</clustering>
</event>
<event>
10    2  0.2445576E-006  0.1298061E+03  0.7546771E-02  0.1243977E+00
         -1   -1    0    0    0  501 -0.00000000000E+00  0.00000000000E+00  0.10190750794E+03  0.10190750794E+03  0.00000000000E+00 0.  1.
          1   -1    0    0  502    0  0.00000000000E+00 -0.00000000000E+00 -0.54133044407E+03  0.54133044407E+03  0.00000000000E+00 0. -1.
         23    2    1    2    0    0 -0.28111259122E+02  0.14492189220E+03 -0.20595816795E+03  0.26824991619E+03  0.88015071786E+02 0.  0.
         23    2    1    2    0    0  0.24346938104E+02  0.16420559380E+02 -0.14373797421E+03  0.17160696530E+03  0.89027732445E+02 0.  0.
        -13    1    4    4    0    0  0.24971239568E+02 -0.34199238917E+02 -0.54594690075E+02  0.69092191544E+02  0.00000000000E+00 0.  1.
         13    1    4    4    0    0 -0.62430146375E+00  0.50619798297E+02 -0.89143284135E+02  0.10251477376E+03  0.00000000000E+00 0. -1.
        -13    1    3    3    0    0  0.14281034770E+02  0.78264506949E+02 -0.51522304881E+02  0.94783062318E+02  0.00000000000E+00 0. -1.
         13    1    3    3    0    0 -0.42392293892E+02  0.66657385252E+02 -0.15443586307E+03  0.17346685387E+03  0.00000000000E+00 0.  1.
         21    1    1    2  502  503  0.23959344030E+01 -0.75110186102E+02 -0.89855416958E+02  0.11713785261E+03  0.00000000000E+00 0.  1.
         21    1    1    2  503  501  0.13683866150E+01 -0.86232265479E+02  0.12862298354E+00  0.86243217910E+02  0.00000000000E+00 0.  1.
<scales pt_clust_5="13000.00000" pt_clust_6="13000.00000" pt_clust_7="13000.00000" pt_clust_8="13000.00000" pt_clust_9="75.14839" pt_clust_10="95.40954"></scales>
<clustering>
<clus scale="   75.148">  2  9  1 -1</clus>
<clus scale="   88.015">  7  8 -1 -1</clus>
<clus scale="   89.028">  5  6 -1 -1</clus>
<clus scale="   93.137">  2  5  1 -1</clus>
<clus scale="   95.410">  1 10  2 -1</clus>
<clus scale="   75.148">  2  5  1 -1</clus>
</clustering>
</event>
<event>
10    2  0.2445576E-006  0.9614972E+02  0.7546771E-02  0.1291261E+00
          3   -1    0    0  503    0  0.00000000000E+00  0.00000000000E+00  0.33315584549E+03  0.33315584549E+03  0.00000000000E+00 0. -1.
         -3   -1    0    0    0  501 -0.00000000000E+00 -0.00000000000E+00 -0.62474543448E+02  0.62474543448E+02  0.00000000000E+00 0.  1.
         23    2    1    2    0    0  0.40936916509E+02  0.29203890327E+02  0.22673047019E+02  0.10578374213E+03  0.90263141393E+02 0.  0.
         23    2    1    2    0    0  0.87729439133E+01  0.14288486252E+01  0.14159803963E+03  0.16553434531E+03  0.85279590157E+02 0.  0.
        -11    1    4    4    0    0  0.51613099073E+01 -0.41652338685E+02  0.60504660768E+02  0.73636746347E+02  0.00000000000E+00 0.  1.
         11    1    4    4    0    0  0.36116340060E+01  0.43081187310E+02  0.81093378861E+02  0.91897598964E+02  0.00000000000E+00 0. -1.
        -13    1    3    3    0    0  0.66019810904E+02  0.23787121089E+02 -0.19755814226E+01  0.70202175774E+02  0.00000000000E+00 0.  1.
         13    1    3    3    0    0 -0.25082894395E+02  0.54167692377E+01  0.24648628442E+02  0.35581566355E+02  0.00000000000E+00 0. -1.
         21    1    1    2  502  501 -0.22055485436E+02 -0.25356934776E+02  0.74677281778E+02  0.81890872463E+02  0.00000000000E+00 0. -1.
         21    1    1    2  503  502 -0.27654374985E+02 -0.52758041763E+01  0.31732933615E+02  0.42421429035E+02  0.00000000000E+00 0. -1.
<scales pt_clust_5="13000.00000" pt_clust_6="13000.00000" pt_clust_7="13000.00000" pt_clust_8="13000.00000" pt_clust_9="64.26830" pt_clust_10="24.57599"></scales>
<clustering>
<clus scale="   24.576">  9 10 -1 -1</clus>
<clus scale="   64.268">  1  9  2 -1</clus>
<clus scale="   85.280">  5  6 -1 -1</clus>
<clus scale="   90.263">  7  8 -1 -1</clus>
<clus scale="   91.487">  1  5  2 -1</clus>
<clus scale="   64.268">  1  5  2 -1</clus>
</clustering>
</event>
<event>
10    2  0.2445576E-006  0.1214084E+03  0.7546771E-02  0.1240929E+00
          2   -1    0    0  502    0  0.00000000000E+00  0.00000000000E+00  0.70700677862E+03  0.70700677862E+03  0.00000000000E+00 0. -1.
         -2   -1    0    0    0  501 -0.00000000000E+00 -0.00000000000E+00 -0.48727896457E+02  0.48727896457E+02  0.00000000000E+00 0.  1.
         23    2    1    2    0    0 -0.79711375020E+01 -0.80386293312E+02  0.19819791738E+03  0.23265317248E+03  0.91211781186E+02 0.  0.
         23    2    1    2    0    0 -0.43636222258E+02  0.73250716011E+02  0.26354009510E+03  0.29147995850E+03  0.90760107949E+02 0.  0.
        -11    1    4    4    0    0 -0.61001873145E+02  0.26465223722E+02  0.96851360324E+02  0.11748115845E+03  0.00000000000E+00 0.  1.
         11    1    4    4    0    0  0.17365650887E+02  0.46785492289E+02  0.16668873477E+03  0.17399880005E+03  0.00000000000E+00 0. -1.
        -13    1    3    3    0    0  0.22044011477E+02  0.11679013627E+02  0.43583702079E+02  0.50218292366E+02  0.00000000000E+00 0. -1.
         13    1    3    3    0    0 -0.30015148978E+02 -0.92065306939E+02  0.15461421530E+03  0.18243488012E+03  0.00000000000E+00 0.  1.
         21    1    1    2  502  503  0.19448112707E+02  0.25383968233E+02  0.19165471141E+03  0.19430415162E+03  0.00000000000E+00 0.  1.
         21    1    1    2  503  501  0.32159247054E+02 -0.18248390932E+02  0.48861582774E+01  0.37297392474E+02  0.00000000000E+00 0. -1.
<scales pt_clust_5="13000.00000" pt_clust_6="13000.00000" pt_clust_7="13000.00000" pt_clust_8="13000.00000" pt_clust_9="31.97773" pt_clust_10="37.17869"></scales>
<clustering>
<clus scale="   31.978">  1  9  2 -1</clus>
<clus scale="   37.179">  2 10  1 -1</clus>
<clus scale="   90.760">  5  6 -1 -1</clus>
<clus scale="   91.212">  7  8 -1 -1</clus>
<clus scale="  121.069">  1  5  2 -1</clus>
<clus scale="   31.978">  1  5  2 -1</clus>
</clustering>
</event>
<event>
10    2  0.2445576E-006  0.3595480E+03  0.7546771E-02  0.1058814E+00
         -1   -1    0    0    0  501 -0.00000000000E+00  0.00000000000E+00  0.81435629865E+03  0.81435629865E+03  0.00000000000E+00 0.  1.
          1   -1    0    0  502    0  0.00000000000E+00 -0.00000000000E+00 -0.28866605996E+03  0.28866605996E+03  0.00000000000E+00 0. -1.
         23    2    1    2    0    0  0.23708052468E+03  0.27164846220E+03  0.44174606484E+03  0.57718751213E+03  0.89475002987E+02 0.  0.
         23    2    1    2    0    0 -0.24347662440E+03 -0.21851438683E+03  0.11994136509E+03  0.36026958858E+03  0.91536012140E+02 0.  0.
        -11    1    4    4    0    0 -0.20987952648E+03 -0.20636958945E+03  0.13197032370E+03  0.32257400612E+03  0.00000000000E+00 0. -1.
         11    1    4    4    0    0 -0.33597097918E+02 -0.12144797379E+02 -0.12028958615E+02  0.37695582463E+02  0.00000000000E+00 0.  1.
        -13    1    3    3    0    0  0.48722195029E+01  0.29107860101E+02  0.71539434826E+02  0.77387962745E+02  0.00000000000E+00 0. -1.
         13    1    3    3    0    0  0.23220830518E+03  0.24254060210E+03  0.37020663001E+03  0.49979954938E+03  0.00000000000E+00 0.  1.
         21    1    1    2  502  503 -0.83303050557E+01 -0.38190885632E+02 -0.95115632393E+02  0.10283443613E+03  0.00000000000E+00 0. -1.
         21    1    1    2  503  501  0.14726404769E+02 -0.14943189735E+02  0.59118441155E+02  0.62730821782E+02  0.00000000000E+00 0.  1.
<scales pt_clust_5="13000.00000" pt_clust_6="13000.00000" pt_clust_7="13000.00000" pt_clust_8="13000.00000" pt_clust_9="39.14766" pt_clust_10="20.98013"></scales>
<clustering>
<clus scale="   20.980">  1 10  2 -1</clus>
<clus scale="   39.148">  2  9  1 -1</clus>
<clus scale="   89.475">  7  8 -1 -1</clus>
<clus scale="   91.536">  5  6 -1 -1</clus>
<clus scale="  359.029">  1  7  2 -1</clus>
<clus scale="   39.148">  2  5  1 -1</clus>
</clustering>
</event>
<event>
10    2  0.2445576E-006  0.1154704E+03  0.7546771E-02  0.1254684E+00
          3   -1    0    0  502    0  0.00000000000E+00  0.00000000000E+00  0.36349362506E+03  0.36349362506E+03  0.00000000000E+00 0. -1.
         -3   -1    0    0    0  501 -0.00000000000E+00 -0.00000000000E+00 -0.86794831390E+02  0.86794831390E+02  0.00000000000E+00 0.  1.
         23    2    1    2    0    0 -0.24927025224E+02 -0.28690408910E+02  0.55828227266E+02  0.10806844807E+03  0.84365291202E+02 0.  0.
         23    2    1    2    0    0  0.88121228293E+02  0.53016644939E+02  0.60337796058E+02  0.15251269001E+03  0.95096558643E+02 0.  0.
        -11    1    3    3    0    0 -0.37134782558E+02 -0.10281254627E+02 -0.90097328974E+01  0.39571094996E+02  0.00000000000E+00 0. -1.
         11    1    3    3    0    0  0.12207757334E+02 -0.18409154283E+02  0.64837960163E+02  0.68497353078E+02  0.00000000000E+00 0.  1.
        -13    1    4    4    0    0  0.16445234241E+02 -0.26435445787E+02  0.34449411666E+01  0.31323252431E+02  0.00000000000E+00 0. -1.
         13    1    4    4    0    0  0.71675994052E+02  0.79452090726E+02  0.56892854892E+02  0.12118943758E+03  0.00000000000E+00 0.  1.
         21    1    1    2  502  503 -0.22351104193E+02  0.10264478429E+02  0.12019681032E+03  0.12268742636E+03  0.00000000000E+00 0. -1.
         21    1    1    2  503  501 -0.40843098876E+02 -0.34590714458E+02  0.40335960027E+02  0.67019892001E+02  0.00000000000E+00 0. -1.
<scales pt_clust_5="13000.00000" pt_clust_6="13000.00000" pt_clust_7="13000.00000" pt_clust_8="13000.00000" pt_clust_9="24.59535" pt_clust_10="56.05211"></scales>
<clustering>
<clus scale="   24.595">  1  9  2 -1</clus>
<clus scale="   56.052">  1 10  2 -1</clus>
<clus scale="   84.365">  5  6 -1 -1</clus>
<clus scale="   95.097">  7  8 -1 -1</clus>
<clus scale="  106.806">  2  5  1 -1</clus>
<clus scale="   24.595">  1  5  2 -1</clus>
</clustering>
</event>
<event>
10    2  0.5396455E-006  0.3021947E+03  0.7546771E-02  0.1084352E+00
          1   -1    0    0  502    0  0.00000000000E+00  0.00000000000E+00  0.97171761834E+03  0.97171761834E+03  0.00000000000E+00 0. -1.
         -1   -1    0    0    0  501 -0.00000000000E+00 -0.00000000000E+00 -0.27176671035E+03  0.27176671035E+03  0.00000000000E+00 0.  1.
         23    2    1    2    0    0  0.17418283104E+03  0.22928864848E+03 -0.12019712022E+03  0.32720656260E+03  0.98508090795E+02 0.  0.
         23    2    1    2    0    0 -0.18537314129E+03 -0.22758394236E+03  0.72196133088E+03  0.78492324844E+03  0.93373927490E+02 0.  0.
        -13    1    4    4    0    0 -0.15294466801E+03 -0.22849313123E+03  0.62924927936E+03  0.68669923407E+03  0.00000000000E+00 0. -1.
         13    1    4    4    0    0 -0.32428473276E+02  0.90918887787E+00  0.92712051517E+02  0.98224014375E+02  0.00000000000E+00 0.  1.
        -13    1    3    3    0    0  0.11186605562E+03  0.21046202594E+03 -0.83951422695E+02  0.25269768526E+03  0.00000000000E+00 0.  1.
         13    1    3    3    0    0  0.62316775412E+02  0.18826622543E+02 -0.36245697527E+02  0.74508877346E+02  0.00000000000E+00 0. -1.
         21    1    1    2  502  503 -0.80851799991E+01  0.19405328036E+02  0.10049961433E+03  0.10267477476E+03  0.00000000000E+00 0. -1.
         21    1    1    2  503  501  0.19275490251E+02 -0.21110034161E+02 -0.23129169872E+01  0.28679742881E+02  0.00000000000E+00 0.  1.
<scales pt_clust_5="13000.00000" pt_clust_6="13000.00000" pt_clust_7="13000.00000" pt_clust_8="13000.00000" pt_clust_9="21.02230" pt_clust_10="28.28681"></scales>
<clustering>
<clus scale="   21.022">  1  9  2 -1</clus>
<clus scale="   28.287">  2 10  1 -1</clus>
<clus scale="   93.374">  5  6 -1 -1</clus>
<clus scale="   98.508">  7  8 -1 -1</clus>
<clus scale="  300.560">  1  5  2 -1</clus>
<clus scale="   21.022">  1  5  2 -1</clus>
</clustering>
</event>
<event>
10    2  0.2445576E-006  0.3007214E+03  0.7546771E-02  0.1084963E+00
          1   -1    0    0  502    0  0.00000000000E+00  0.00000000000E+00  0.75508147973E+03  0.75508147973E+03  0.00000000000E+00 0. -1.
         -1   -1    0    0    0  501 -0.00000000000E+00 -0.00000000000E+00 -0.19044882655E+03  0.19044882655E+03  0.00000000000E+00 0.  1.
         23    2    1    2    0    0 -0.20642709948E+03 -0.18101781573E+03  0.16453317597E+03  0.33255123945E+03  0.90219531454E+02 0.  0.
         23    2    1    2    0    0  0.24484947373E+03  0.17953565337E+03  0.42361280396E+03  0.52855794383E+03  0.87985093546E+02 0.  0.
        -11    1    3    3    0    0 -0.36906274287E+02 -0.55487517881E+02  0.27186108006E+01  0.66695791224E+02  0.00000000000E+00 0. -1.
         11    1    3    3    0    0 -0.16952082520E+03 -0.12553029784E+03  0.16181456517E+03  0.26585544823E+03  0.00000000000E+00 0.  1.
        -11    1    4    4    0    0  0.89189203409E+02  0.11913376501E+03  0.18777008479E+03  0.23959376601E+03  0.00000000000E+00 0. -1.
         11    1    4    4    0    0  0.15566027033E+03  0.60401888363E+02  0.23584271917E+03  0.28896417782E+03  0.00000000000E+00 0.  1.
         21    1    1    2  502  503 -0.16791490730E+02 -0.11521740719E+02  0.23478983253E+02  0.31080014877E+02  0.00000000000E+00 0.  1.
         21    1    1    2  503  501 -0.21630883520E+02  0.13003903070E+02 -0.46992310000E+02  0.53341108125E+02  0.00000000000E+00 0.  1.
<scales pt_clust_5="13000.00000" pt_clust_6="13000.00000" pt_clust_7="13000.00000" pt_clust_8="13000.00000" pt_clust_9="20.36430" pt_clust_10="25.27580"></scales>
<clustering>
<clus scale="   20.364">  1  9  2 -1</clus>
<clus scale="   25.276">  2 10  1 -1</clus>
<clus scale="   87.985">  7  8 -1 -1</clus>
<clus scale="   90.220">  5  6 -1 -1</clus>
<clus scale="  300.059">  1  7  2 -1</clus>
<clus scale="   20.364">  1  5  2 -1</clus>
</clustering>
</event>
<event>
10    2  0.2445576E-006  0.1239740E+03  0.7546771E-02  0.1236894E+00
         -2   -1    0    0    0  501 -0.00000000000E+00  0.00000000000E+00  0.24156022190E+03  0.24156022190E+03  0.00000000000E+00 0.  1.
          2   -1    0    0  502    0  0.00000000000E+00 -0.00000000000E+00 -0.74523596931E+03  0.74523596931E+03  0.00000000000E+00 0. -1.
         23    2    1    2    0    0 -0.88626033177E+01 -0.66024381548E+02  0.18241909634E+03  0.21455729793E+03  0.91215912472E+02 0.  0.
         23    2    1    2    0    0  0.47214811570E+02  0.98441012580E+02 -0.65821281433E+03  0.67351108905E+03  0.91941322235E+02 0.  0.
        -11    1    4    4    0    0 -0.11742119655E+02  0.80115585213E+02 -0.37949685601E+03  0.38803897754E+03  0.00000000000E+00 0. -1.
         11    1    4    4    0    0  0.58956931225E+02  0.18325427367E+02 -0.27871595833E+03  0.28547211152E+03  0.00000000000E+00 0.  1.
        -11    1    3    3    0    0 -0.33586899019E+02 -0.44092289651E+02  0.17072853208E+03  0.17950053331E+03  0.00000000000E+00 0.  1.
         11    1    3    3    0    0  0.24724295702E+02 -0.21932091896E+02  0.11690564264E+02  0.35056764621E+02  0.00000000000E+00 0. -1.
         21    1    1    2  502  503 -0.20071044249E+02 -0.19753528866E+02 -0.56116968341E+02  0.62786645520E+02  0.00000000000E+00 0.  1.
         21    1    1    2  503  501 -0.18281164003E+02 -0.12663102166E+02  0.28234938918E+02  0.35941158711E+02  0.00000000000E+00 0. -1.
<scales pt_clust_5="13000.00000" pt_clust_6="13000.00000" pt_clust_7="13000.00000" pt_clust_8="13000.00000" pt_clust_9="28.51003" pt_clust_10="22.23860"></scales>
<clustering>
<clus scale="   22.239">  1 10  2 -1</clus>
<clus scale="   28.510">  2  9  1 -1</clus>
<clus scale="   91.216">  7  8 -1 -1</clus>
<clus scale="   91.941">  5  6 -1 -1</clus>
<clus scale="  123.437">  1  7  2 -1</clus>
<clus scale="   28.510">  2  5  1 -1</clus>
</clustering>
</event>
<event>
10    2  0.2445576E-006  0.1042838E+03  0.7546771E-02  0.1271653E+00
          1   -1    0    0  502    0  0.00000000000E+00  0.00000000000E+00  0.50309244629E+02  0.50309244629E+02  0.00000000000E+00 0. -1.
         -1   -1    0    0    0  501 -0.00000000000E+00 -0.00000000000E+00 -0.69127292249E+03  0.69127292249E+03  0.00000000000E+00 0.  1.
         23    2    1    2    0    0 -0.34867503777E+02 -0.19837933171E+02 -0.43882602357E+03  0.45022974809E+03  0.92353996625E+02 0.  0.
         23    2    1    2    0    0  0.88471868832E+02  0.94576433626E+01 -0.14348119007E+03  0.19231355937E+03  0.92091989988E+02 0.  0.
        -11    1    4    4    0    0  0.18091309326E+02  0.39619790321E+02 -0.22208068436E+02  0.48889892226E+02  0.00000000000E+00 0. -1.
         11    1    4    4    0    0  0.70380559505E+02 -0.30162146958E+02 -0.12127312163E+03  0.14342366714E+03  0.00000000000E+00 0.  1.
        -13    1    3    3    0    0  0.30255482482E+02  0.52029446120E+01 -0.14814522985E+03  0.15129267656E+03  0.00000000000E+00 0.  1.
         13    1    3    3    0    0 -0.65122986259E+02 -0.25040877783E+02 -0.29068079372E+03  0.29893707153E+03  0.00000000000E+00 0. -1.
         21    1    1    2  502  503 -0.19662348326E+02  0.21693620956E+02  0.12020169029E+01  0.29303002859E+02  0.00000000000E+00 0. -1.
         21    1    1    2  503  501 -0.33942016729E+02 -0.11313331148E+02 -0.59858481123E+02  0.69735856800E+02  0.00000000000E+00 0. -1.
<scales pt_clust_5="13000.00000" pt_clust_6="13000.00000" pt_clust_7="13000.00000" pt_clust_8="13000.00000" pt_clust_9="29.27834" pt_clust_10="37.62913"></scales>
<clustering>
<clus scale="   29.278">  1  9  2 -1</clus>
<clus scale="   37.629">  1 10  2 -1</clus>
<clus scale="   92.092">  5  6 -1 -1</clus>
<clus scale="   92.354">  7  8 -1 -1</clus>
<clus scale="  104.052">  1  5  2 -1</clus>
<clus scale="   29.278">  1  5  2 -1</clus>
</clustering>
</event>
<event>
10    2  0.2445576E-006  0.9059150E+02  0.7546771E-02  0.1302396E+00
         -1   -1    0    0    0  501 -0.00000000000E+00  0.00000000000E+00  0.23948803184E+03  0.23948803184E+03  0.00000000000E+00 0.  1.
          1   -1    0    0  502    0  0.00000000000E+00 -0.00000000000E+00 -0.16598032646E+03  0.16598032646E+03  0.00000000000E+00 0. -1.
         23    2    1    2    0    0 -0.10237537352E+02  0.77096760165E+01 -0.16844346098E+02  0.92599513471E+02  0.90148164841E+02 0.  0.
         23    2    1    2    0    0 -0.20992530621E+02  0.12870554960E+01 -0.39149798517E+02  0.99066122843E+02  0.88538393466E+02 0.  0.
        -11    1    4    4    0    0 -0.48825813176E+02 -0.57383888051E+00  0.25504646127E+01  0.48895748211E+02  0.00000000000E+00 0. -1.
         11    1    4    4    0    0  0.27833282555E+02  0.18608943765E+01 -0.41700263130E+02  0.50170374632E+02  0.00000000000E+00 0.  1.
        -13    1    3    3    0    0 -0.19488643589E+02 -0.18451702244E+02  0.28683813580E+02  0.39281467719E+02  0.00000000000E+00 0.  1.
         13    1    3    3    0    0  0.92511062362E+01  0.26161378261E+02 -0.45528159678E+02  0.53318045752E+02  0.00000000000E+00 0. -1.
         21    1    1    2  502  503 -0.18527591309E+02  0.79945341966E+01 -0.35385762666E+02  0.40734953248E+02  0.00000000000E+00 0. -1.
         21    1    1    2  503  501  0.49757659282E+02 -0.16991265709E+02  0.16488761266E+03  0.17306776873E+03  0.00000000000E+00 0.  1.
<scales pt_clust_5="13000.00000" pt_clust_6="13000.00000" pt_clust_7="13000.00000" pt_clust_8="13000.00000" pt_clust_9="20.17881" pt_clust_10="51.93559"></scales>
<clustering>
<clus scale="   20.179">  2  9  1 -1</clus>
<clus scale="   51.936">  1 10  2 -1</clus>
<clus scale="   88.538">  5  6 -1 -1</clus>
<clus scale="   88.990">  2  5  1 -1</clus>
<clus scale="   90.148">  7  8 -1 -1</clus>
<clus scale="   20.179">  2  5  1 -1</clus>
</clustering>
</event>
<event>
10    2  0.2445576E-006  0.1139309E+03  0.7546771E-02  0.1253869E+00
          1   -1    0    0  502    0  0.00000000000E+00  0.00000000000E+00  0.23698824799E+03  0.23698824799E+03  0.00000000000E+00 0. -1.
         -1   -1    0    0    0  501 -0.00000000000E+00 -0.00000000000E+00 -0.13079639437E+03  0.13079639437E+03  0.00000000000E+00 0.  1.
         23    2    1    2    0    0  0.40073397876E+02  0.74009812398E+02 -0.55487245398E+02  0.13740581715E+03  0.93371273074E+02 0.  0.
         23    2    1    2    0    0  0.56712805704E+00 -0.58013241329E+02  0.12157778815E+03  0.16326466303E+03  0.92240629989E+02 0.  0.
        -11    1    4    4    0    0  0.18176552417E+02 -0.78847191344E+02  0.98954831020E+02  0.12782537003E+03  0.00000000000E+00 0. -1.
         11    1    4    4    0    0 -0.17609424360E+02  0.20833950015E+02  0.22622957130E+02  0.35439293007E+02  0.00000000000E+00 0.  1.
        -13    1    3    3    0    0  0.37989490718E+02  0.32569572691E+02 -0.76097907824E+02  0.91076177156E+02  0.00000000000E+00 0.  1.
         13    1    3    3    0    0  0.20839071581E+01  0.41440239707E+02  0.20610662426E+02  0.46329639991E+02  0.00000000000E+00 0. -1.
         21    1    1    2  502  503 -0.22181209362E+02 -0.18534700910E+01  0.37641183151E+02  0.43729853294E+02  0.00000000000E+00 0.  1.
         21    1    1    2  503  501 -0.18459316571E+02 -0.14143100978E+02  0.24601277200E+01  0.23384308883E+02  0.00000000000E+00 0.  1.
<scales pt_clust_5="13000.00000" pt_clust_6="13000.00000" pt_clust_7="13000.00000" pt_clust_8="13000.00000" pt_clust_9="22.25851" pt_clust_10="24.50058"></scales>
<clustering>
<clus scale="   22.259">  1  9  2 -1</clus>
<clus scale="   24.501">  2 10  1 -1</clus>
<clus scale="   92.241">  5  6 -1 -1</clus>
<clus scale="   93.371">  7  8 -1 -1</clus>
<clus scale="  113.006">  1  5  2 -1</clus>
<clus scale="   22.259">  1  5  2 -1</clus>
</clustering>
</event>
<event>
10    2  0.2445576E-006  0.2195377E+03  0.7546771E-02  0.1135565E+00
         -1   -1    0    0    0  501 -0.00000000000E+00  0.00000000000E+00  0.13997455180E+03  0.13997455180E+03  0.00000000000E+00 0.  1.
          1   -1    0    0  502    0  0.00000000000E+00 -0.00000000000E+00 -0.95556524410E+03  0.95556524410E+03  0.00000000000E+00 0. -1.
         23    2    1    2    0    0  0.23660465531E+03  0.98731058642E+01 -0.83581418606E+02  0.26793361939E+03  0.93398767272E+02 0.  0.
         23    2    1    2    0    0 -0.17440434918E+03  0.46707611298E+02 -0.50894320434E+03  0.55080163164E+03  0.10844710329E+03 0.  0.
        -11    1    3    3    0    0  0.14162362534E+03 -0.37410074424E+02 -0.31891825997E+02  0.14991281962E+03  0.00000000000E+00 0.  1.
         11    1    3    3    0    0  0.94981029977E+02  0.47283180288E+02 -0.51689592609E+02  0.11802079977E+03  0.00000000000E+00 0. -1.
        -13    1    4    4    0    0 -0.12183496871E+03  0.67774368318E+01 -0.19529934215E+03  0.23028574922E+03  0.00000000000E+00 0. -1.
         13    1    4    4    0    0 -0.52569380476E+02  0.39930174466E+02 -0.31364386219E+03  0.32051588243E+03  0.00000000000E+00 0.  1.
         21    1    1    2  502  503  0.30830659540E+01  0.23882919687E+02 -0.14522212921E+03  0.14720518320E+03  0.00000000000E+00 0.  1.
         21    1    1    2  503  501 -0.65283372083E+02 -0.80463636849E+02 -0.77843940155E+02  0.12959936167E+03  0.00000000000E+00 0. -1.
<scales pt_clust_5="13000.00000" pt_clust_6="13000.00000" pt_clust_7="13000.00000" pt_clust_8="13000.00000" pt_clust_9="24.08110" pt_clust_10="101.00348"></scales>
<clustering>
<clus scale="   24.081">  2  9  1 -1</clus>
<clus scale="   93.399">  5  6 -1 -1</clus>
<clus scale="  101.003">  1 10  2 -1</clus>
<clus scale="  108.447">  7  8 -1 -1</clus>
<clus scale="  212.507">  1  5  2 -1</clus>
<clus scale="   24.081">  2  5  1 -1</clus>
</clustering>
</event>
<event>
10    2  0.2445576E-006  0.1004936E+03  0.7546771E-02  0.1279827E+00
          3   -1    0    0  502    0  0.00000000000E+00  0.00000000000E+00  0.14957333938E+03  0.14957333938E+03  0.00000000000E+00 0. -1.
         -3   -1    0    0    0  501 -0.00000000000E+00 -0.00000000000E+00 -0.46447137714E+03  0.46447137714E+03  0.00000000000E+00 0.  1.
         23    2    1    2    0    0 -0.35427196091E+01 -0.12160890325E+02 -0.38302312644E+03  0.39424759799E+03  0.92541963555E+02 0.  0.
         23    2    1    2    0    0 -0.20899552704E+02  0.49929515051E+02  0.10943381815E+03  0.15249376307E+03  0.91371983918E+02 0.  0.
        -13    1    3    3    0    0  0.22326572379E+02  0.31261714486E+02 -0.10825214474E+03  0.11486643316E+03  0.00000000000E+00 0. -1.
         13    1    3    3    0    0 -0.25869291988E+02 -0.43422604812E+02 -0.27477098170E+03  0.27938116483E+03  0.00000000000E+00 0.  1.
        -13    1    4    4    0    0  0.32863958705E+02  0.12067667846E+02  0.16640058151E+02  0.38762867854E+02  0.00000000000E+00 0.  1.
         13    1    4    4    0    0 -0.53763511409E+02  0.37861847205E+02  0.92793759997E+02  0.11373089522E+03  0.00000000000E+00 0. -1.
         21    1    1    2  502  503  0.20290872349E+02 -0.91029262906E+01 -0.92176272413E+01  0.24073791137E+02  0.00000000000E+00 0.  1.
         21    1    1    2  503  501  0.41513999644E+01 -0.28665698435E+02 -0.32091102234E+02  0.43229564317E+02  0.00000000000E+00 0.  1.
<scales pt_clust_5="13000.00000" pt_clust_6="13000.00000" pt_clust_7="13000.00000" pt_clust_8="13000.00000" pt_clust_9="22.23922" pt_clust_10="29.44085"></scales>
<clustering>
<clus scale="   22.239">  1  9  2 -1</clus>
<clus scale="   29.441">  2 10  1 -1</clus>
<clus scale="   91.372">  7  8 -1 -1</clus>
<clus scale="   92.542">  5  6 -1 -1</clus>
<clus scale="   99.417">  1  7  2 -1</clus>
<clus scale="   22.239">  1  5  2 -1</clus>
</clustering>
</event>
<event>
10    2  0.2445576E-006  0.1266649E+03  0.7546771E-02  0.1232559E+00
          1   -1    0    0  502    0  0.00000000000E+00  0.00000000000E+00  0.69572857868E+02  0.69572857868E+02  0.00000000000E+00 0. -1.
         -1   -1    0    0    0  501 -0.00000000000E+00 -0.00000000000E+00 -0.96867996461E+03  0.96867996461E+03  0.00000000000E+00 0.  1.
         23    2    1    2    0    0 -0.13014999916E+03 -0.29016354398E+02 -0.67640198049E+03  0.69538861327E+03  0.90910467801E+02 0.  0.
         23    2    1    2    0    0  0.79872628405E+02  0.58562898353E+02 -0.74929419366E+02  0.15376210728E+03  0.90659350959E+02 0.  0.
        -13    1    3    3    0    0 -0.12719559819E+03 -0.52568046917E+02 -0.58073527025E+03  0.59682122438E+03  0.00000000000E+00 0.  1.
         13    1    3    3    0    0 -0.29544009717E+01  0.23551692520E+02 -0.95666710239E+02  0.98567388895E+02  0.00000000000E+00 0. -1.
        -13    1    4    4    0    0  0.33171676762E+02 -0.19112891412E+02 -0.36510624914E+01  0.38457678228E+02  0.00000000000E+00 0.  1.
         13    1    4    4    0    0  0.46700951643E+02  0.77675789765E+02 -0.71278356874E+02  0.11530442905E+03  0.00000000000E+00 0. -1.
         21    1    1    2  502  503 -0.14449429867E+02 -0.22380366147E+02  0.10414592724E+01  0.26659922164E+02  0.00000000000E+00 0.  1.
         21    1    1    2  503  501  0.64726800619E+02 -0.71661778084E+01 -0.14881716616E+03  0.16244217976E+03  0.00000000000E+00 0. -1.
<scales pt_clust_5="13000.00000" pt_clust_6="13000.00000" pt_clust_7="13000.00000" pt_clust_8="13000.00000" pt_clust_9="26.63957" pt_clust_10="63.73420"></scales>
<clustering>
<clus scale="   26.640">  1  9  2 -1</clus>
<clus scale="   63.734">  2 10  1 -1</clus>
<clus scale="   90.659">  7  8 -1 -1</clus>
<clus scale="   90.910">  5  6 -1 -1</clus>
<clus scale="  126.485">  1  7  2 -1</clus>
<clus scale="   26.640">  1  5  2 -1</clus>
</clustering>
</event>
<event>
10    2  0.2445576E-006  0.9002355E+02  0.7546771E-02  0.1308108E+00
          2   -1    0    0  502    0  0.00000000000E+00  0.00000000000E+00  0.16518308010E+03  0.16518308010E+03  0.00000000000E+00 0. -1.
         -2   -1    0    0    0  501 -0.00000000000E+00 -0.00000000000E+00 -0.18505114901E+03  0.18505114901E+03  0.00000000000E+00 0.  1.
         23    2    1    2    0    0 -0.35590640733E+01 -0.41696380736E+01 -0.49270531172E+02  0.93521441794E+02  0.79300832370E+02 0.  0.
         23    2    1    2    0    0  0.47998830522E+01  0.36659841428E+02 -0.58403912048E+02  0.11179127184E+03  0.87859482502E+02 0.  0.
        -13    1    3    3    0    0 -0.26764021259E+02 -0.16250044395E+02  0.64470044875E+01  0.31967806363E+02  0.00000000000E+00 0.  1.
         13    1    3    3    0    0  0.23204957186E+02  0.12080406321E+02 -0.55717535659E+02  0.61553635431E+02  0.00000000000E+00 0. -1.
        -13    1    4    4    0    0  0.27131503182E+02  0.15593394751E+02  0.13138885835E+02  0.33939692777E+02  0.00000000000E+00 0. -1.
         13    1    4    4    0    0 -0.22331620130E+02  0.21066446677E+02 -0.71542797883E+02  0.77851579061E+02  0.00000000000E+00 0.  1.
         21    1    1    2  502  503  0.19450538927E+02 -0.30486108985E+02  0.10923562246E+03  0.11506583993E+03  0.00000000000E+00 0.  1.
         21    1    1    2  503  501 -0.20691357906E+02 -0.20040943700E+01 -0.21429248152E+02  0.29855675551E+02  0.00000000000E+00 0. -1.
<scales pt_clust_5="13000.00000" pt_clust_6="13000.00000" pt_clust_7="13000.00000" pt_clust_8="13000.00000" pt_clust_9="35.99147" pt_clust_10="20.78819"></scales>
<clustering>
<clus scale="   20.788">  2 10  1 -1</clus>
<clus scale="   35.991">  1  9  2 -1</clus>
<clus scale="   79.301">  5  6 -1 -1</clus>
<clus scale="   81.692">  2  5  1 -1</clus>
<clus scale="   87.859">  7  8 -1 -1</clus>
<clus scale="   35.991">  1  5  2 -1</clus>
</clustering>
</event>
<event>
10    2  0.2445576E-006  0.1024199E+03  0.7546771E-02  0.1275642E+00
          3   -1    0    0  502    0  0.00000000000E+00  0.00000000000E+00  0.33339573200E+02  0.33339573200E+02  0.00000000000E+00 0. -1.
         -3   -1    0    0    0  501 -0.00000000000E+00 -0.00000000000E+00 -0.74828477743E+03  0.74828477743E+03  0.00000000000E+00 0.  1.
         23    2    1    2    0    0  0.63540663713E+00  0.68012226762E+02 -0.39317601951E+03  0.40959190115E+03  0.92477437466E+02 0.  0.
         23    2    1    2    0    0  0.40634060506E+01 -0.18821390218E+02 -0.18721345294E+03  0.21003134178E+03  0.93239109644E+02 0.  0.
        -11    1    4    4    0    0 -0.19189944090E+02  0.29631767425E+02 -0.40192715284E+02  0.53495326495E+02  0.00000000000E+00 0. -1.
         11    1    4    4    0    0  0.23253350141E+02 -0.48453157643E+02 -0.14702073766E+03  0.15653601528E+03  0.00000000000E+00 0.  1.
        -13    1    3    3    0    0  0.26830027574E+02 -0.11523230867E+02 -0.72410579231E+02  0.78076419064E+02  0.00000000000E+00 0.  1.
         13    1    3    3    0    0 -0.26194620937E+02  0.79535457629E+02 -0.32076544028E+03  0.33151548209E+03  0.00000000000E+00 0. -1.
         21    1    1    2  502  503 -0.17954689440E+02 -0.25473010528E+02 -0.74757446310E+01  0.32048898516E+02  0.00000000000E+00 0. -1.
         21    1    1    2  503  501  0.13255876753E+02 -0.23717826016E+02 -0.12707998714E+03  0.12995220918E+03  0.00000000000E+00 0.  1.
<scales pt_clust_5="13000.00000" pt_clust_6="13000.00000" pt_clust_7="13000.00000" pt_clust_8="13000.00000" pt_clust_9="31.54912" pt_clust_10="27.17082"></scales>
<clustering>
<clus scale="   27.171">  2 10  1 -1</clus>
<clus scale="   31.549">  1  9  2 -1</clus>
<clus scale="   92.477">  7  8 -1 -1</clus>
<clus scale="   93.239">  5  6 -1 -1</clus>
<clus scale="  101.727">  2  7  1 -1</clus>
<clus scale="   31.549">  1  5  2 -1</clus>
</clustering>
</event>
<event>
10    2  0.2445576E-006  0.1036775E+03  0.7546771E-02  0.1273912E+00
         -3   -1    0    0    0  501 -0.00000000000E+00  0.00000000000E+00  0.93695728744E+02  0.93695728744E+02  0.00000000000E+00 0.  1.
          3   -1    0    0  502    0  0.00000000000E+00 -0.00000000000E+00 -0.27456425032E+03  0.27456425032E+03  0.00000000000E+00 0. -1.
         23    2    1    2    0    0 -0.29662279455E+02  0.68396959109E+02  0.78051817687E+01  0.11824124691E+03  0.91444391685E+02 0.  0.
         23    2    1    2    0    0  0.20477341024E+02 -0.21790007577E+02 -0.14589738917E+03  0.17341031205E+03  0.88831088213E+02 0.  0.
        -11    1    4    4    0    0 -0.10605738102E+02 -0.21165633970E+02  0.56872581880E+00  0.23680987967E+02  0.00000000000E+00 0.  1.
         11    1    4    4    0    0  0.31083079126E+02 -0.62437360727E+00 -0.14646611499E+03  0.14972932408E+03  0.00000000000E+00 0. -1.
        -13    1    3    3    0    0 -0.58723958518E+02  0.61909991388E+02  0.17140490753E+02  0.87035319043E+02  0.00000000000E+00 0.  1.
         13    1    3    3    0    0  0.29061679064E+02  0.64869677216E+01 -0.93353089841E+01  0.31205927867E+02  0.00000000000E+00 0. -1.
         21    1    1    2  502  503  0.62390689895E+01 -0.19292631551E+02 -0.44684302085E+02  0.49069526865E+02  0.00000000000E+00 0. -1.
         21    1    1    2  503  501  0.29458694407E+01 -0.27314319981E+02  0.19079879124E+01  0.27538893236E+02  0.00000000000E+00 0.  1.
<scales pt_clust_5="13000.00000" pt_clust_6="13000.00000" pt_clust_7="13000.00000" pt_clust_8="13000.00000" pt_clust_9="20.27638" pt_clust_10="28.59095"></scales>
<clustering>
<clus scale="   20.276">  2  9  1 -1</clus>
<clus scale="   28.591">  1 10  2 -1</clus>
<clus scale="   88.831">  5  6 -1 -1</clus>
<clus scale="   91.444">  7  8 -1 -1</clus>
<clus scale="  101.380">  2  5  1 -1</clus>
<clus scale="   20.276">  2  5  1 -1</clus>
</clustering>
</event>
<event>
10    2  0.2445576E-006  0.9581957E+02  0.7546771E-02  0.1290330E+00
         -2   -1    0    0    0  501 -0.00000000000E+00  0.00000000000E+00  0.72791002996E+02  0.72791002996E+02  0.00000000000E+00 0.  1.
          2   -1    0    0  502    0  0.00000000000E+00 -0.00000000000E+00 -0.42723345236E+03  0.42723345236E+03  0.00000000000E+00 0. -1.
         23    2    1    2    0    0 -0.10749148856E+02 -0.23125219061E+02 -0.99665728144E+01  0.95380926554E+02  0.91366671269E+02 0.  0.
         23    2    1    2    0    0  0.12585074755E+02  0.17848464602E+02 -0.29086656080E+03  0.30620643458E+03  0.93177639980E+02 0.  0.
        -11    1    4    4    0    0 -0.43572894258E+01 -0.37523442194E+02 -0.11800872870E+03  0.12390744422E+03  0.00000000000E+00 0.  1.
         11    1    4    4    0    0  0.16942364180E+02  0.55371906796E+02 -0.17285783210E+03  0.18229899035E+03  0.00000000000E+00 0. -1.
        -11    1    3    3    0    0  0.38303604759E+02  0.35343688732E+01 -0.91780149924E+01  0.39546097912E+02  0.00000000000E+00 0. -1.
         11    1    3    3    0    0 -0.49052753615E+02 -0.26659587935E+02 -0.78855782198E+00  0.55834828642E+02  0.00000000000E+00 0.  1.
         21    1    1    2  502  503  0.19165342252E+01  0.39492557144E+02 -0.50121852844E+02  0.63839919374E+02  0.00000000000E+00 0. -1.
         21    1    1    2  503  501 -0.37524601239E+01 -0.34215802684E+02 -0.34874629143E+01  0.34597174854E+02  0.00000000000E+00 0. -1.
<scales pt_clust_5="13000.00000" pt_clust_6="13000.00000" pt_clust_7="13000.00000" pt_clust_8="13000.00000" pt_clust_9="35.42261" pt_clust_10="34.42095"></scales>
<clustering>
<clus scale="   34.421">  1 10  2 -1</clus>
<clus scale="   35.423">  1  9  2 -1</clus>
<clus scale="   91.367">  7  8 -1 -1</clus>
<clus scale="   93.178">  5  6 -1 -1</clus>
<clus scale="   94.059">  1  7  2 -1</clus>
<clus scale="   95.820">  2  5  1 -1</clus>
</clustering>
</event>
<event>
10    2  0.2445576E-006  0.1122976E+03  0.7546771E-02  0.1259349E+00
         -2   -1    0    0    0  501 -0.00000000000E+00  0.00000000000E+00  0.94954612315E+02  0.94954612315E+02  0.00000000000E+00 0.  1.
          2   -1    0    0  502    0  0.00000000000E+00 -0.00000000000E+00 -0.23815291988E+03  0.23815291988E+03  0.00000000000E+00 0. -1.
         23    2    1    2    0    0  0.39812312690E+02 -0.49421865555E+02 -0.18777348805E+02  0.11308572952E+03  0.91696523140E+02 0.  0.
         23    2    1    2    0    0 -0.40661589966E+02  0.30845362284E+02 -0.96071367222E+02  0.14710287654E+03  0.99018924525E+02 0.  0.
        -11    1    4    4    0    0 -0.57774232604E+02 -0.13570214822E+02 -0.73373082780E+02  0.94369602945E+02  0.00000000000E+00 0.  1.
         11    1    4    4    0    0  0.17112642638E+02  0.44415577106E+02 -0.22698284442E+02  0.52733273597E+02  0.00000000000E+00 0. -1.
        -13    1    3    3    0    0  0.21145287049E+02 -0.14571986559E+02 -0.54217502726E+02  0.59991695746E+02  0.00000000000E+00 0. -1.
         13    1    3    3    0    0  0.18667025641E+02 -0.34849878997E+02  0.35440153921E+02  0.53094033773E+02  0.00000000000E+00 0.  1.
         21    1    1    2  502  503 -0.62482491214E+01 -0.19293296507E+02 -0.27768367223E+02  0.34385376622E+02  0.00000000000E+00 0. -1.
         21    1    1    2  503  501  0.70975263975E+01  0.37869799778E+02 -0.58122431384E+00  0.38533549511E+02  0.00000000000E+00 0. -1.
<scales pt_clust_5="13000.00000" pt_clust_6="13000.00000" pt_clust_7="13000.00000" pt_clust_8="13000.00000" pt_clust_9="20.27984" pt_clust_10="36.63029"></scales>
<clustering>
<clus scale="   20.280">  2  9  1 -1</clus>
<clus scale="   36.630">  1 10  2 -1</clus>
<clus scale="   91.697">  7  8 -1 -1</clus>
<clus scale="   99.019">  5  6 -1 -1</clus>
<clus scale="  105.897">  1  7  2 -1</clus>
<clus scale="   20.280">  2  5  1 -1</clus>
</clustering>
</event>
<event>
10    2  0.2445576E-006  0.1056316E+03  0.7546771E-02  0.1269425E+00
          2   -1    0    0  502    0  0.00000000000E+00  0.00000000000E+00  0.54998610933E+03  0.54998610933E+03  0.00000000000E+00 0. -1.
         -2   -1    0    0    0  501 -0.00000000000E+00 -0.00000000000E+00 -0.78232041403E+02  0.78232041403E+02  0.00000000000E+00 0.  1.
         23    2    1    2    0    0 -0.42397431999E+02 -0.32952495522E+02  0.30247221606E+02  0.11147380372E+03  0.92887594967E+02 0.  0.
         23    2    1    2    0    0  0.24962040852E+02  0.70589395322E+02  0.27320674274E+03  0.29772972895E+03  0.91624783794E+02 0.  0.
        -11    1    3    3    0    0  0.44225819565E+00 -0.42020748011E+02  0.48376924362E+02  0.64080150330E+02  0.00000000000E+00 0.  1.
         11    1    3    3    0    0 -0.42839690195E+02  0.90682524883E+01 -0.18129702756E+02  0.47393653385E+02  0.00000000000E+00 0. -1.
        -13    1    4    4    0    0  0.37643087037E+01  0.79527506192E+02  0.25836152554E+03  0.27035064664E+03  0.00000000000E+00 0. -1.
         13    1    4    4    0    0  0.21197732148E+02 -0.89381108696E+01  0.14845217201E+02  0.27379082305E+02  0.00000000000E+00 0.  1.
         21    1    1    2  502  503 -0.75801888002E+01 -0.32040338565E+02  0.18533482788E+03  0.18823666217E+03  0.00000000000E+00 0.  1.
         21    1    1    2  503  501  0.25015579948E+02 -0.55965612346E+01 -0.17034724298E+02  0.30777955905E+02  0.00000000000E+00 0.  1.
<scales pt_clust_5="13000.00000" pt_clust_6="13000.00000" pt_clust_7="13000.00000" pt_clust_8="13000.00000" pt_clust_9="32.92356" pt_clust_10="25.63398"></scales>
<clustering>
<clus scale="   25.634">  2 10  1 -1</clus>
<clus scale="   32.924">  1  9  2 -1</clus>
<clus scale="   91.625">  7  8 -1 -1</clus>
<clus scale="   92.888">  5  6 -1 -1</clus>
<clus scale="  104.523">  1  7  2 -1</clus>
<clus scale="   32.924">  1  5  2 -1</clus>
</clustering>
</event>
<event>
10    2  0.2445576E-006  0.1044172E+03  0.7546771E-02  0.1271407E+00
          2   -1    0    0  502    0  0.00000000000E+00  0.00000000000E+00  0.17677668078E+03  0.17677668078E+03  0.00000000000E+00 0. -1.
         -2   -1    0    0    0  501 -0.00000000000E+00 -0.00000000000E+00 -0.20410288048E+03  0.20410288048E+03  0.00000000000E+00 0.  1.
         23    2    1    2    0    0 -0.11932733736E+02  0.67453218394E+02 -0.70074748287E+02  0.13450211139E+03  0.92130455412E+02 0.  0.
         23    2    1    2    0    0  0.13965681890E+02 -0.48017477609E+02  0.88127838597E+02  0.13715607442E+03  0.92436758855E+02 0.  0.
        -11    1    4    4    0    0 -0.35260686242E+02 -0.93485169678E+01  0.11582073158E+02  0.38273426583E+02  0.00000000000E+00 0.  1.
         11    1    4    4    0    0  0.49226368131E+02 -0.38668960641E+02  0.76545765438E+02  0.98882647836E+02  0.00000000000E+00 0. -1.
        -11    1    3    3    0    0 -0.24284715372E+02  0.49103114614E+02 -0.89585578756E+02  0.10500685305E+03  0.00000000000E+00 0.  1.
         11    1    3    3    0    0  0.12351981636E+02  0.18350103780E+02  0.19510830470E+02  0.29495258343E+02  0.00000000000E+00 0. -1.
         21    1    1    2  502  503 -0.31316798283E+02  0.76403089079E+01  0.16027105664E+02  0.35999781816E+02  0.00000000000E+00 0.  1.
         21    1    1    2  503  501  0.29283850129E+02 -0.27076049694E+02 -0.61406395673E+02  0.73221593638E+02  0.00000000000E+00 0. -1.
<scales pt_clust_5="13000.00000" pt_clust_6="13000.00000" pt_clust_7="13000.00000" pt_clust_8="13000.00000" pt_clust_9="32.23532" pt_clust_10="38.78362"></scales>
<clustering>
<clus scale="   32.235">  1  9  2 -1</clus>
<clus scale="   38.784">  2 10  1 -1</clus>
<clus scale="   92.130">  7  8 -1 -1</clus>
<clus scale="   92.437">  5  6 -1 -1</clus>
<clus scale="  104.146">  2  7  1 -1</clus>
<clus scale="   32.235">  1  5  2 -1</clus>
</clustering>
</event>
<event>
10    2  0.2445576E-006  0.1829127E+03  0.7546771E-02  0.1165197E+00
         -1   -1    0    0    0  501 -0.00000000000E+00  0.00000000000E+00  0.77441401649E+03  0.77441401649E+03  0.00000000000E+00 0.  1.
          1   -1    0    0  502    0  0.00000000000E+00 -0.00000000000E+00 -0.50141150201E+03  0.50141150201E+03  0.00000000000E+00 0. -1.
         23    2    1    2    0    0  0.16531650722E+03  0.78185645733E+02  0.52163268367E+03  0.56029173585E+03  0.91562163747E+02 0.  0.
         23    2    1    2    0    0 -0.70070479746E+02 -0.47508975625E+02  0.24377246360E+02  0.12595048185E+03  0.90012770437E+02 0.  0.
        -11    1    3    3    0    0  0.11683611681E+03  0.93898062117E+02  0.33854457765E+03  0.37024310299E+03  0.00000000000E+00 0.  1.
         11    1    3    3    0    0  0.48480390411E+02 -0.15712416384E+02  0.18308810603E+03  0.19004863286E+03  0.00000000000E+00 0. -1.
        -13    1    4    4    0    0 -0.70942978417E+02 -0.36452654793E+01 -0.79133861266E+01  0.71475980770E+02  0.00000000000E+00 0. -1.
         13    1    4    4    0    0  0.87249867030E+00 -0.43863710146E+02  0.32290632487E+02  0.54474501082E+02  0.00000000000E+00 0.  1.
         21    1    1    2  502  503 -0.91134314655E+02 -0.56123615792E+02 -0.42354286980E+03  0.43685682565E+03  0.00000000000E+00 0. -1.
         21    1    1    2  503  501 -0.41117128155E+01  0.25446945684E+02  0.15053545425E+03  0.15272647515E+03  0.00000000000E+00 0. -1.
<scales pt_clust_5="13000.00000" pt_clust_6="13000.00000" pt_clust_7="13000.00000" pt_clust_8="13000.00000" pt_clust_9="106.92464" pt_clust_10="25.77699"></scales>
<clustering>
<clus scale="   25.777">  1 10  2 -1</clus>
<clus scale="   90.013">  7  8 -1 -1</clus>
<clus scale="   91.562">  5  6 -1 -1</clus>
<clus scale="  106.925">  2  9  1 -1</clus>
<clus scale="  182.142">  2  7  1 -1</clus>
<clus scale="  106.925">  2  5  1 -1</clus>
</clustering>
</event>
<event>
10    2  0.2445576E-006  0.1329718E+03  0.7546771E-02  0.1223142E+00
         -1   -1    0    0    0  501 -0.00000000000E+00  0.00000000000E+00  0.10256594889E+03  0.10256594889E+03  0.00000000000E+00 0.  1.
          1   -1    0    0  502    0  0.00000000000E+00 -0.00000000000E+00 -0.13414259891E+04  0.13414259891E+04  0.00000000000E+00 0. -1.
         23    2    1    2    0    0 -0.79891236774E+02 -0.77872507401E+01 -0.28502493023E+03  0.31009877544E+03  0.92080338233E+02 0.  0.
         23    2    1    2    0    0  0.13141161645E+03  0.46793155926E+02 -0.72333628118E+03  0.74238174112E+03  0.91960108174E+02 0.  0.
        -11    1    4    4    0    0  0.42754359448E+02 -0.27035126123E+02 -0.18278873224E+03  0.18965904652E+03  0.00000000000E+00 0. -1.
         11    1    4    4    0    0  0.88657257004E+02  0.73828282049E+02 -0.54054754894E+03  0.55272269459E+03  0.00000000000E+00 0.  1.
        -11    1    3    3    0    0 -0.15216911760E+02  0.14460938810E+02 -0.46481910296E+01  0.21500670562E+02  0.00000000000E+00 0.  1.
         11    1    3    3    0    0 -0.64674325014E+02 -0.22248189550E+02 -0.28037673920E+03  0.28859810488E+03  0.00000000000E+00 0. -1.
         21    1    1    2  502  503 -0.60672482488E+02 -0.12173168771E+02 -0.30530498065E+03  0.31151318974E+03  0.00000000000E+00 0. -1.
         21    1    1    2  503  501  0.91521028111E+01 -0.26832736414E+02  0.74806151824E+02  0.79998231731E+02  0.00000000000E+00 0.  1.
<scales pt_clust_5="13000.00000" pt_clust_6="13000.00000" pt_clust_7="13000.00000" pt_clust_8="13000.00000" pt_clust_9="61.52364" pt_clust_10="28.35060"></scales>
<clustering>
<clus scale="   28.351">  1 10  2 -1</clus>
<clus scale="   61.524">  2  9  1 -1</clus>
<clus scale="   91.960">  5  6 -1 -1</clus>
<clus scale="   92.080">  7  8 -1 -1</clus>
<clus scale="  132.889">  2  5  1 -1</clus>
<clus scale="   61.524">  2  5  1 -1</clus>
</clustering>
</event>
<event>
10    2  0.2445576E-006  0.9509199E+02  0.7546771E-02  0.1292832E+00
          2   -1    0    0  502    0  0.00000000000E+00  0.00000000000E+00  0.55088443742E+03  0.55088443742E+03  0.00000000000E+00 0. -1.
         -2   -1    0    0    0  501 -0.00000000000E+00 -0.00000000000E+00 -0.56138159429E+02  0.56138159429E+02  0.00000000000E+00 0.  1.
         23    2    1    2    0    0  0.21667653545E+02  0.12074744412E+02  0.50320176737E+02  0.10781451728E+03  0.92068253411E+02 0.  0.
         23    2    1    2    0    0 -0.75829985334E+01  0.36181279180E+02  0.25454216485E+03  0.27207948178E+03  0.88707067878E+02 0.  0.
        -11    1    4    4    0    0  0.32801880751E+02  0.24718215867E+02  0.19467316939E+03  0.19895878079E+03  0.00000000000E+00 0. -1.
         11    1    4    4    0    0 -0.40384879284E+02  0.11463063314E+02  0.59868995465E+02  0.73120700990E+02  0.00000000000E+00 0.  1.
        -11    1    3    3    0    0  0.55658885948E+02  0.86920047683E+01  0.47235543411E+02  0.73516386563E+02  0.00000000000E+00 0. -1.
         11    1    3    3    0    0 -0.33991232403E+02  0.33827396433E+01  0.30846333259E+01  0.34298130715E+02  0.00000000000E+00 0.  1.
         21    1    1    2  502  503 -0.21183926836E+02 -0.28309396488E+02  0.20039522287E+03  0.20349060429E+03  0.00000000000E+00 0.  1.
         21    1    1    2  503  501  0.70992718240E+01 -0.19946627104E+02 -0.10511286468E+02  0.23637993495E+02  0.00000000000E+00 0.  1.
<scales pt_clust_5="13000.00000" pt_clust_6="13000.00000" pt_clust_7="13000.00000" pt_clust_8="13000.00000" pt_clust_9="35.82893" pt_clust_10="21.17233"></scales>
<clustering>
<clus scale="   21.172">  2 10  1 -1</clus>
<clus scale="   35.829">  1  9  2 -1</clus>
<clus scale="   88.707">  5  6 -1 -1</clus>
<clus scale="   91.842">  1  5  2 -1</clus>
<clus scale="   92.068">  7  8 -1 -1</clus>
<clus scale="   35.829">  1  5  2 -1</clus>
</clustering>
</event>
<event>
10    2  0.2445576E-006  0.1287332E+03  0.7546771E-02  0.1229804E+00
         -1   -1    0    0    0  501 -0.00000000000E+00  0.00000000000E+00  0.10022743938E+04  0.10022743938E+04  0.00000000000E+00 0.  1.
          1   -1    0    0  502    0  0.00000000000E+00 -0.00000000000E+00 -0.18793759054E+03  0.18793759054E+03  0.00000000000E+00 0. -1.
         23    2    1    2    0    0  0.34283579835E+02 -0.42578040665E+02  0.38839417851E+03  0.40255819730E+03  0.90635594086E+02 0.  0.
         23    2    1    2    0    0 -0.58539012335E+02  0.11937978170E+03  0.28046533787E+03  0.32382647604E+03  0.92327853839E+02 0.  0.
        -11    1    4    4    0    0 -0.40632078685E+02  0.93865633041E+02  0.10870201280E+03  0.14925766470E+03  0.00000000000E+00 0. -1.
         11    1    4    4    0    0 -0.17906933650E+02  0.25514148663E+02  0.17176332507E+03  0.17456881134E+03  0.00000000000E+00 0.  1.
        -13    1    3    3    0    0  0.19693985599E+02 -0.64008876153E+02  0.34921084905E+03  0.35557447376E+03  0.00000000000E+00 0.  1.
         13    1    3    3    0    0  0.14589594236E+02  0.21430835488E+02  0.39183329463E+02  0.46983723537E+02  0.00000000000E+00 0. -1.
         21    1    1    2  502  503 -0.12148332270E+01 -0.47516147579E+02 -0.15434768565E+03  0.16150067543E+03  0.00000000000E+00 0. -1.
         21    1    1    2  503  501  0.25470265727E+02 -0.29285593459E+02  0.29982497257E+03  0.30232663561E+03  0.00000000000E+00 0. -1.
<scales pt_clust_5="13000.00000" pt_clust_6="13000.00000" pt_clust_7="13000.00000" pt_clust_8="13000.00000" pt_clust_9="47.67787" pt_clust_10="38.81212"></scales>
<clustering>
<clus scale="   38.812">  1 10  2 -1</clus>
<clus scale="   47.678">  2  9  1 -1</clus>
<clus scale="   90.636">  7  8 -1 -1</clus>
<clus scale="   92.328">  5  6 -1 -1</clus>
<clus scale="  127.525">  1  7  2 -1</clus>
<clus scale="   47.678">  2  5  1 -1</clus>
</clustering>
</event>
<event>
10    2  0.2445576E-006  0.2399019E+03  0.7546771E-02  0.1120000E+00
         -1   -1    0    0    0  501 -0.00000000000E+00  0.00000000000E+00  0.93974401765E+03  0.93974401765E+03  0.00000000000E+00 0.  1.
          1   -1    0    0  502    0  0.00000000000E+00 -0.00000000000E+00 -0.43045466007E+03  0.43045466007E+03  0.00000000000E+00 0. -1.
         23    2    1    2    0    0  0.13718494219E+03 -0.10977394994E+03  0.29447926437E+03  0.35482740440E+03  0.91183448703E+02 0.  0.
         23    2    1    2    0    0 -0.17738161297E+03  0.99645752540E+02 -0.61677080599E+02  0.23220173056E+03  0.93381308547E+02 0.  0.
        -11    1    3    3    0    0  0.94010676856E+02 -0.25120399416E+02  0.19083842610E+03  0.21421565467E+03  0.00000000000E+00 0. -1.
         11    1    3    3    0    0  0.43174265334E+02 -0.84653550524E+02  0.10364083827E+03  0.14061174972E+03  0.00000000000E+00 0.  1.
        -13    1    4    4    0    0 -0.36363409952E+02 -0.12755100190E+02 -0.30606780697E+02  0.49211433517E+02  0.00000000000E+00 0.  1.
         13    1    4    4    0    0 -0.14101820302E+03  0.11240085273E+03 -0.31070299902E+02  0.18299029704E+03  0.00000000000E+00 0. -1.
         21    1    1    2  502  503 -0.47482725652E+02  0.14307188214E+02 -0.24722615845E+03  0.25215090381E+03  0.00000000000E+00 0. -1.
         21    1    1    2  503  501  0.87679396431E+02 -0.41789908131E+01  0.52371333227E+03  0.53101863895E+03  0.00000000000E+00 0.  1.
<scales pt_clust_5="13000.00000" pt_clust_6="13000.00000" pt_clust_7="13000.00000" pt_clust_8="13000.00000" pt_clust_9="49.59138" pt_clust_10="86.80713"></scales>
<clustering>
<clus scale="   49.591">  2  9  1 -1</clus>
<clus scale="   86.807">  1 10  2 -1</clus>
<clus scale="   91.183">  5  6 -1 -1</clus>
<clus scale="   93.381">  7  8 -1 -1</clus>
<clus scale="  239.055">  1  5  2 -1</clus>
<clus scale="   49.591">  2  5  1 -1</clus>
</clustering>
</event>
<event>
10    2  0.2445576E-006  0.1617280E+03  0.7546771E-02  0.1187425E+00
         -1   -1    0    0    0  501 -0.00000000000E+00  0.00000000000E+00  0.12610577377E+03  0.12610577377E+03  0.00000000000E+00 0.  1.
          1   -1    0    0  502    0  0.00000000000E+00 -0.00000000000E+00 -0.87395095589E+03  0.87395095589E+03  0.00000000000E+00 0. -1.
         23    2    1    2    0    0 -0.86033149051E+02 -0.84681094736E+02 -0.18411838347E+03  0.23983264639E+03  0.95118497697E+02 0.  0.
         23    2    1    2    0    0  0.10352703661E+03  0.86009971454E+02 -0.63944616454E+03  0.65976710146E+03  0.91025646526E+02 0.  0.
        -11    1    3    3    0    0 -0.62308571575E+02 -0.24621597304E+02 -0.31334287609E+02  0.73962279072E+02  0.00000000000E+00 0.  1.
         11    1    3    3    0    0 -0.23724577476E+02 -0.60059497433E+02 -0.15278409586E+03  0.16587036732E+03  0.00000000000E+00 0. -1.
        -13    1    4    4    0    0  0.34228153377E+02  0.84098789212E+02 -0.41691085151E+03  0.42668352551E+03  0.00000000000E+00 0.  1.
         13    1    4    4    0    0  0.69298883229E+02  0.19111822417E+01 -0.22253531303E+03  0.23308357595E+03  0.00000000000E+00 0. -1.
         21    1    1    2  502  503 -0.39175576861E+02 -0.12534514080E+02  0.41543401714E+02  0.58461047643E+02  0.00000000000E+00 0.  1.
         21    1    1    2  503  501  0.21681689306E+02  0.11205637362E+02  0.34175964171E+02  0.41995934170E+02  0.00000000000E+00 0. -1.
<scales pt_clust_5="13000.00000" pt_clust_6="13000.00000" pt_clust_7="13000.00000" pt_clust_8="13000.00000" pt_clust_9="27.55798" pt_clust_10="24.40619"></scales>
<clustering>
<clus scale="   24.406">  1 10  2 -1</clus>
<clus scale="   27.558">  1  9  2 -1</clus>
<clus scale="   91.026">  7  8 -1 -1</clus>
<clus scale="   95.118">  5  6 -1 -1</clus>
<clus scale="  159.355">  2  7  1 -1</clus>
<clus scale="  159.355">  2  5  1 -1</clus>
</clustering>
</event>
<event>
10    2  0.2445576E-006  0.1527550E+03  0.7546771E-02  0.1197302E+00
         -2   -1    0    0    0  501 -0.00000000000E+00  0.00000000000E+00  0.23048088724E+03  0.23048088724E+03  0.00000000000E+00 0.  1.
          2   -1    0    0  502    0  0.00000000000E+00 -0.00000000000E+00 -0.36117963480E+03  0.36117963480E+03  0.00000000000E+00 0. -1.
         23    2    1    2    0    0  0.67908254960E+02 -0.85912930523E+02  0.40613477224E+02  0.14857497965E+03  0.91828684637E+02 0.  0.
         23    2    1    2    0    0 -0.12040049260E+03  0.13943965481E+02 -0.25319248136E+03  0.29564584825E+03  0.92786433173E+02 0.  0.
        -11    1    4    4    0    0 -0.11400988256E+03 -0.14074686129E+02 -0.15245716874E+03  0.19089143095E+03  0.00000000000E+00 0. -1.
         11    1    4    4    0    0 -0.63906100324E+01  0.28018651610E+02 -0.10073531262E+03  0.10475441730E+03  0.00000000000E+00 0.  1.
        -11    1    3    3    0    0 -0.11269881352E+02 -0.57743899061E+02  0.14928330179E+02  0.60697801825E+02  0.00000000000E+00 0. -1.
         11    1    3    3    0    0  0.79178136312E+02 -0.28169031462E+02  0.25685147045E+02  0.87877177823E+02  0.00000000000E+00 0.  1.
         21    1    1    2  502  503 -0.92196252356E+01  0.24517884226E+02 -0.90735351664E+01  0.27721060168E+02  0.00000000000E+00 0.  1.
         21    1    1    2  503  501  0.61711862871E+02  0.47451080815E+02  0.90953791737E+02  0.11971863397E+03  0.00000000000E+00 0.  1.
<scales pt_clust_5="13000.00000" pt_clust_6="13000.00000" pt_clust_7="13000.00000" pt_clust_8="13000.00000" pt_clust_9="26.19405" pt_clust_10="78.17320"></scales>
<clustering>
<clus scale="   26.194">  2  9  1 -1</clus>
<clus scale="   78.173">  1 10  2 -1</clus>
<clus scale="   91.829">  7  8 -1 -1</clus>
<clus scale="   92.786">  5  6 -1 -1</clus>
<clus scale="  152.175">  1  7  2 -1</clus>
<clus scale="   26.194">  2  5  1 -1</clus>
</clustering>
</event>
<event>
10    2  0.2445576E-006  0.1129229E+03  0.7546771E-02  0.1255813E+00
          2   -1    0    0  502    0  0.00000000000E+00  0.00000000000E+00  0.23584755034E+03  0.23584755034E+03  0.00000000000E+00 0. -1.
         -2   -1    0    0    0  501 -0.00000000000E+00 -0.00000000000E+00 -0.14513015963E+03  0.14513015963E+03  0.00000000000E+00 0.  1.
         23    2    1    2    0    0  0.81432518445E+02  0.96522447369E+01 -0.53575440869E+02  0.13405982297E+03  0.91527522541E+02 0.  0.
         23    2    1    2    0    0 -0.32113547533E+02 -0.57865140222E+02  0.12683930929E+03  0.17066330970E+03  0.93048914604E+02 0.  0.
        -11    1    4    4    0    0 -0.60639726332E+01 -0.75595925429E+02  0.11336212799E+03  0.13639093727E+03  0.00000000000E+00 0. -1.
         11    1    4    4    0    0 -0.26049574899E+02  0.17730785207E+02  0.13477181295E+02  0.34272372432E+02  0.00000000000E+00 0.  1.
        -13    1    3    3    0    0  0.36007649800E+02 -0.70611320262E+01 -0.73159657667E+02  0.81845866968E+02  0.00000000000E+00 0.  1.
         13    1    3    3    0    0  0.45424868644E+02  0.16713376763E+02  0.19584216798E+02  0.52213956006E+02  0.00000000000E+00 0. -1.
         21    1    1    2  502  503 -0.19999005975E+02  0.25732157184E+02  0.21566817043E+02  0.39079812573E+02  0.00000000000E+00 0.  1.
         21    1    1    2  503  501 -0.29319964937E+02  0.22480738301E+02 -0.41132947481E+01  0.37174764722E+02  0.00000000000E+00 0.  1.
<scales pt_clust_5="13000.00000" pt_clust_6="13000.00000" pt_clust_7="13000.00000" pt_clust_8="13000.00000" pt_clust_9="25.77724" pt_clust_10="74.23028"></scales>
<clustering>
<clus scale="   25.777">  9 10 -1 -1</clus>
<clus scale="   74.230">  2  9  1 -1</clus>
<clus scale="   91.528">  7  8 -1 -1</clus>
<clus scale="   93.049">  5  6 -1 -1</clus>
<clus scale="  111.673">  2  7  1 -1</clus>
<clus scale="  112.923">  1  5  2 -1</clus>
</clustering>
</event>
<event>
10    2  0.2445576E-006  0.1453669E+03  0.7546771E-02  0.1206521E+00
          2   -1    0    0  502    0  0.00000000000E+00  0.00000000000E+00  0.41148992676E+03  0.41148992676E+03  0.00000000000E+00 0. -1.
         -2   -1    0    0    0  501 -0.00000000000E+00 -0.00000000000E+00 -0.16301512553E+03  0.16301512553E+03  0.00000000000E+00 0.  1.
         23    2    1    2    0    0 -0.46773627948E+02  0.14568648118E+03  0.49813828632E+01  0.17775383261E+03  0.90328775935E+02 0.  0.
         23    2    1    2    0    0 -0.12340284475E+02 -0.96226950870E+02  0.60216589180E+02  0.14632335445E+03  0.91501790965E+02 0.  0.
        -13    1    3    3    0    0 -0.31753416640E+02  0.14365467150E+02  0.26570526667E+02  0.43825095574E+02  0.00000000000E+00 0. -1.
         13    1    3    3    0    0 -0.15020211309E+02  0.13132101403E+03 -0.21589143804E+02  0.13392873703E+03  0.00000000000E+00 0.  1.
        -13    1    4    4    0    0 -0.43270623735E+02 -0.90877661895E+02  0.36831434801E+02  0.10718045950E+03  0.00000000000E+00 0. -1.
         13    1    4    4    0    0  0.30930339260E+02 -0.53492889745E+01  0.23385154379E+02  0.39142894944E+02  0.00000000000E+00 0.  1.
         21    1    1    2  502  503  0.39389648262E+02  0.53325129878E+01  0.18785478520E+03  0.19201406304E+03  0.00000000000E+00 0. -1.
         21    1    1    2  503  501  0.19724264161E+02 -0.54792043297E+02 -0.45779560091E+01  0.58413802192E+02  0.00000000000E+00 0.  1.
<scales pt_clust_5="13000.00000" pt_clust_6="13000.00000" pt_clust_7="13000.00000" pt_clust_8="13000.00000" pt_clust_9="39.74896" pt_clust_10="59.43338"></scales>
<clustering>
<clus scale="   39.749">  1  9  2 -1</clus>
<clus scale="   59.433">  2 10  1 -1</clus>
<clus scale="   90.329">  5  6 -1 -1</clus>
<clus scale="   91.502">  7  8 -1 -1</clus>
<clus scale="  144.631">  2  5  1 -1</clus>
<clus scale="   39.749">  1  5  2 -1</clus>
</clustering>
</event>
<event>
10    2  0.2445576E-006  0.9990655E+02  0.7546771E-02  0.1283559E+00
         -3   -1    0    0    0  501 -0.00000000000E+00  0.00000000000E+00  0.13962788188E+03  0.13962788188E+03  0.00000000000E+00 0.  1.
          3   -1    0    0  502    0  0.00000000000E+00 -0.00000000000E+00 -0.28875288549E+03  0.28875288549E+03  0.00000000000E+00 0. -1.
         23    2    1    2    0    0  0.65982803772E+01 -0.70359045955E+02  0.55727028026E+02  0.12834173951E+03  0.91499550791E+02 0.  0.
         23    2    1    2    0    0  0.33754346983E+02 -0.78614197107E+00 -0.13286914735E+03  0.16146237899E+03  0.85298977437E+02 0.  0.
        -11    1    3    3    0    0  0.36106097750E+02 -0.39887623210E+02 -0.52551410007E+01  0.54058202773E+02  0.00000000000E+00 0. -1.
         11    1    3    3    0    0 -0.29507817373E+02 -0.30471422745E+02  0.60982169027E+02  0.74283536732E+02  0.00000000000E+00 0.  1.
        -13    1    4    4    0    0  0.16071987683E+02 -0.41660753864E+02 -0.47617800118E+02  0.65279262317E+02  0.00000000000E+00 0.  1.
         13    1    4    4    0    0  0.17682359301E+02  0.40874611893E+02 -0.85251347234E+02  0.96183116674E+02  0.00000000000E+00 0. -1.
         21    1    1    2  502  503  0.10536252403E+02  0.23644789901E+02 -0.63344647010E+02  0.68429766980E+02  0.00000000000E+00 0. -1.
         21    1    1    2  503  501 -0.50888879764E+02  0.47500398025E+02 -0.86382372739E+01  0.70146881893E+02  0.00000000000E+00 0.  1.
<scales pt_clust_5="13000.00000" pt_clust_6="13000.00000" pt_clust_7="13000.00000" pt_clust_8="13000.00000" pt_clust_9="25.88607" pt_clust_10="71.23480"></scales>
<clustering>
<clus scale="   25.886">  2  9  1 -1</clus>
<clus scale="   71.235">  1 10  2 -1</clus>
<clus scale="   85.299">  7  8 -1 -1</clus>
<clus scale="   91.500">  5  6 -1 -1</clus>
<clus scale="   94.261">  2  7  1 -1</clus>
<clus scale="   25.886">  2  5  1 -1</clus>
</clustering>
</event>
<event>
10    2  0.2445576E-006  0.3528042E+03  0.7546771E-02  0.1061495E+00
         -1   -1    0    0    0  501 -0.00000000000E+00  0.00000000000E+00  0.41302052305E+03  0.41302052305E+03  0.00000000000E+00 0.  1.
          1   -1    0    0  502    0  0.00000000000E+00 -0.00000000000E+00 -0.44066358840E+03  0.44066358840E+03  0.00000000000E+00 0. -1.
         23    2    1    2    0    0 -0.35730662841E+03  0.69843862352E+02  0.61019157715E+02  0.38017297471E+03  0.90895331438E+02 0.  0.
         23    2    1    2    0    0  0.30817200942E+03 -0.89992966075E+01 -0.12452232505E+03  0.34495369545E+03  0.91849158096E+02 0.  0.
        -11    1    3    3    0    0 -0.48771189069E+02 -0.68978376894E+01  0.36473918346E+02  0.61290747813E+02  0.00000000000E+00 0.  1.
         11    1    3    3    0    0 -0.30853543934E+03  0.76741700041E+02  0.24545239369E+02  0.31888222690E+03  0.00000000000E+00 0. -1.
        -13    1    4    4    0    0  0.15921397189E+03  0.17550415614E+02 -0.10701683302E+03  0.19263880316E+03  0.00000000000E+00 0.  1.
         13    1    4    4    0    0  0.14895803752E+03 -0.26549712222E+02 -0.17505492030E+02  0.15231489229E+03  0.00000000000E+00 0. -1.
         21    1    1    2  502  503  0.58487025798E+02 -0.80776502066E+01 -0.76409565176E+01  0.59534568412E+02  0.00000000000E+00 0.  1.
         21    1    1    2  503  501 -0.93524068039E+01 -0.52766915538E+02  0.43501058503E+02  0.69022872870E+02  0.00000000000E+00 0.  1.
<scales pt_clust_5="13000.00000" pt_clust_6="13000.00000" pt_clust_7="13000.00000" pt_clust_8="13000.00000" pt_clust_9="59.02208" pt_clust_10="53.58932"></scales>
<clustering>
<clus scale="   53.589">  1 10  2 -1</clus>
<clus scale="   59.022">  2  9  1 -1</clus>
<clus scale="   90.895">  5  6 -1 -1</clus>
<clus scale="   91.849">  7  8 -1 -1</clus>
<clus scale="  352.557">  1  5  2 -1</clus>
<clus scale="   59.022">  2  5  1 -1</clus>
</clustering>
</event>
<event>
10    2  0.2445576E-006  0.1270348E+03  0.7546771E-02  0.1234598E+00
         -2   -1    0    0    0  501 -0.00000000000E+00  0.00000000000E+00  0.30396876901E+03  0.30396876901E+03  0.00000000000E+00 0.  1.
          2   -1    0    0  502    0  0.00000000000E+00 -0.00000000000E+00 -0.44606975884E+03  0.44606975884E+03  0.00000000000E+00 0. -1.
         23    2    1    2    0    0 -0.83866556716E+01 -0.84292544350E+02 -0.62705406232E+02  0.15426827213E+03  0.11265506109E+03 0.  0.
         23    2    1    2    0    0  0.22319215179E+02  0.48393201244E+02 -0.27264872548E+03  0.29696663113E+03  0.10493713929E+03 0.  0.
        -11    1    4    4    0    0 -0.20390037466E+02  0.67362361765E+02 -0.14914731666E+03  0.16491926351E+03  0.00000000000E+00 0.  1.
         11    1    4    4    0    0  0.42709252645E+02 -0.18969160520E+02 -0.12350140882E+03  0.13204736761E+03  0.00000000000E+00 0. -1.
        -13    1    3    3    0    0 -0.52880091516E+02 -0.55351728367E+02 -0.66019100146E+02  0.10108728652E+03  0.00000000000E+00 0. -1.
         13    1    3    3    0    0  0.44493435844E+02 -0.28940815983E+02  0.33136939137E+01  0.53180985609E+02  0.00000000000E+00 0.  1.
         21    1    1    2  502  503 -0.26839237517E+02  0.27381445617E+01 -0.47934506857E+02  0.55005082072E+02  0.00000000000E+00 0. -1.
         21    1    1    2  503  501  0.12906678010E+02  0.33161198544E+02  0.24118764875E+03  0.24379854252E+03  0.00000000000E+00 0.  1.
<scales pt_clust_5="13000.00000" pt_clust_6="13000.00000" pt_clust_7="13000.00000" pt_clust_8="13000.00000" pt_clust_9="26.97855" pt_clust_10="35.56071"></scales>
<clustering>
<clus scale="   26.979">  2  9  1 -1</clus>
<clus scale="   35.561">  1 10  2 -1</clus>
<clus scale="  104.937">  5  6 -1 -1</clus>
<clus scale="  112.655">  7  8 -1 -1</clus>
<clus scale="  120.243">  2  5  1 -1</clus>
<clus scale="   26.979">  2  5  1 -1</clus>
</clustering>
</event>
<event>
10    2  0.2445576E-006  0.2083930E+03  0.7546771E-02  0.1169206E+00
          1   -1    0    0  502    0  0.00000000000E+00  0.00000000000E+00  0.12663823032E+04  0.12663823032E+04  0.00000000000E+00 0. -1.
         -1   -1    0    0    0  501 -0.00000000000E+00 -0.00000000000E+00 -0.15342722507E+03  0.15342722507E+03  0.00000000000E+00 0.  1.
         23    2    1    2    0    0  0.31171551343E+02 -0.57478747759E+02 -0.32109893095E+02  0.11497372263E+03  0.88951894890E+02 0.  0.
         23    2    1    2    0    0  0.53693490803E+02  0.24292187771E+03  0.76454723740E+03  0.80875205067E+03  0.87483550568E+02 0.  0.
        -11    1    3    3    0    0  0.50023385640E+02 -0.48156915174E+02  0.77885066508E+01  0.69871943052E+02  0.00000000000E+00 0.  1.
         11    1    3    3    0    0 -0.18851834297E+02 -0.93218325841E+01 -0.39898399746E+02  0.45101779581E+02  0.00000000000E+00 0. -1.
        -13    1    4    4    0    0  0.20139327324E+02  0.12548237371E+02  0.30325385092E+02  0.38505580728E+02  0.00000000000E+00 0.  1.
         13    1    4    4    0    0  0.33554163479E+02  0.23037364034E+03  0.73422185231E+03  0.77024646994E+03  0.00000000000E+00 0. -1.
         21    1    1    2  502  503  0.25422463307E+02 -0.69387232370E+02  0.31423030664E+03  0.32280268782E+03  0.00000000000E+00 0. -1.
         21    1    1    2  503  501 -0.11028750545E+03 -0.11605589758E+03  0.66287427172E+02  0.17328106712E+03  0.00000000000E+00 0.  1.
<scales pt_clust_5="13000.00000" pt_clust_6="13000.00000" pt_clust_7="13000.00000" pt_clust_8="13000.00000" pt_clust_9="73.89783" pt_clust_10="189.14090"></scales>
<clustering>
<clus scale="   73.898">  1  9  2 -1</clus>
<clus scale="   87.484">  7  8 -1 -1</clus>
<clus scale="   88.952">  5  6 -1 -1</clus>
<clus scale="  112.322">  2  5  1 -1</clus>
<clus scale="  189.141">  2 10  1 -1</clus>
<clus scale="   73.898">  1  5  2 -1</clus>
</clustering>
</event>
<event>
10    2  0.2445576E-006  0.1160509E+03  0.7546771E-02  0.1250365E+00
          2   -1    0    0  502    0  0.00000000000E+00  0.00000000000E+00  0.46644622909E+03  0.46644622909E+03  0.00000000000E+00 0. -1.
         -2   -1    0    0    0  501 -0.00000000000E+00 -0.00000000000E+00 -0.77553985687E+02  0.77553985687E+02  0.00000000000E+00 0.  1.
         23    2    1    2    0    0  0.86280816537E+02  0.42980847238E+02  0.88164950493E+02  0.16014816645E+03  0.92642561445E+02 0.  0.
         23    2    1    2    0    0 -0.21604652438E+02 -0.35706662155E+02  0.14149575362E+03  0.17327096143E+03  0.90884823007E+02 0.  0.
        -11    1    4    4    0    0  0.31514613350E+01 -0.49067721070E+02  0.28511746937E+02  0.56837423173E+02  0.00000000000E+00 0. -1.
         11    1    4    4    0    0 -0.24756113773E+02  0.13361058916E+02  0.11298400669E+03  0.11643353826E+03  0.00000000000E+00 0.  1.
        -13    1    3    3    0    0  0.35594195151E+02  0.55796484145E+02  0.11228385623E+02  0.67128764439E+02  0.00000000000E+00 0.  1.
         13    1    3    3    0    0  0.50686621385E+02 -0.12815636907E+02  0.76936564870E+02  0.93019402013E+02  0.00000000000E+00 0. -1.
         21    1    1    2  502  503 -0.50500454384E+02 -0.25579959917E+02  0.17409529745E+03  0.18306775477E+03  0.00000000000E+00 0. -1.
         21    1    1    2  503  501 -0.14175709715E+02  0.18305774833E+02 -0.14863758158E+02  0.27513332127E+02  0.00000000000E+00 0.  1.
<scales pt_clust_5="13000.00000" pt_clust_6="13000.00000" pt_clust_7="13000.00000" pt_clust_8="13000.00000" pt_clust_9="56.98634" pt_clust_10="23.15280"></scales>
<clustering>
<clus scale="   23.153">  2 10  1 -1</clus>
<clus scale="   56.986">  1  9  2 -1</clus>
<clus scale="   90.885">  5  6 -1 -1</clus>
<clus scale="   92.643">  7  8 -1 -1</clus>
<clus scale="  114.653">  1  5  2 -1</clus>
<clus scale="   56.986">  1  5  2 -1</clus>
</clustering>
</event>
<event>
10    2  0.2445576E-006  0.1285697E+03  0.7546771E-02  0.1231637E+00
         -1   -1    0    0    0  501 -0.00000000000E+00  0.00000000000E+00  0.97675392592E+02  0.97675392592E+02  0.00000000000E+00 0.  1.
          1   -1    0    0  502    0  0.00000000000E+00 -0.00000000000E+00 -0.31059914512E+03  0.31059914512E+03  0.00000000000E+00 0. -1.
         23    2    1    2    0    0  0.76497093476E+02  0.44634213536E+02 -0.20013148981E+02  0.12287466877E+03  0.82786712485E+02 0.  0.
         23    2    1    2    0    0 -0.86496350555E+02 -0.22987763190E+02 -0.81439732317E+02  0.15110494334E+03  0.90499823130E+02 0.  0.
        -11    1    4    4    0    0 -0.60447342878E+02 -0.28008506554E+02 -0.12410727465E+01  0.66632559323E+02  0.00000000000E+00 0.  1.
         11    1    4    4    0    0 -0.26049007678E+02  0.50207433645E+01 -0.80198659571E+02  0.84472384019E+02  0.00000000000E+00 0. -1.
        -13    1    3    3    0    0 -0.17895436447E+02  0.11113002070E+02 -0.36318473215E+01  0.21376056128E+02  0.00000000000E+00 0. -1.
         13    1    3    3    0    0  0.94392529923E+02  0.33521211466E+02 -0.16381301659E+02  0.10149861264E+03  0.00000000000E+00 0.  1.
         21    1    1    2  502  503 -0.14979357815E+02 -0.17489408128E+02 -0.10589019329E+03  0.10836509397E+03  0.00000000000E+00 0. -1.
         21    1    1    2  503  501  0.24978614895E+02 -0.41570422192E+01 -0.55806779413E+01  0.25929831630E+02  0.00000000000E+00 0.  1.
<scales pt_clust_5="13000.00000" pt_clust_6="13000.00000" pt_clust_7="13000.00000" pt_clust_8="13000.00000" pt_clust_9="23.02739" pt_clust_10="24.44803"></scales>
<clustering>
<clus scale="   23.027">  2  9  1 -1</clus>
<clus scale="   24.448">  1 10  2 -1</clus>
<clus scale="   82.787">  7  8 -1 -1</clus>
<clus scale="   90.500">  5  6 -1 -1</clus>
<clus scale="  123.262">  1  7  2 -1</clus>
<clus scale="   23.027">  2  5  1 -1</clus>
</clustering>
</event>
<event>
10    2  0.2445576E-006  0.1721771E+03  0.7546771E-02  0.1204754E+00
          2   -1    0    0  502    0  0.00000000000E+00  0.00000000000E+00  0.14805091833E+04  0.14805091833E+04  0.00000000000E+00 0. -1.
         -2   -1    0    0    0  501 -0.00000000000E+00 -0.00000000000E+00 -0.38759767782E+02  0.38759767782E+02  0.00000000000E+00 0.  1.
         23    2    1    2    0    0 -0.13780793010E+03 -0.48079230113E+02  0.75756805661E+03  0.77678128753E+03  0.90427707505E+02 0.  0.
         23    2    1    2    0    0 -0.17712736414E+02 -0.60721668653E+01  0.37112365940E+03  0.38217943804E+03  0.89318195541E+02 0.  0.
        -13    1    4    4    0    0  0.36074364023E+02  0.11947131646E+01  0.12286593241E+03  0.12805789483E+03  0.00000000000E+00 0.  1.
         13    1    4    4    0    0 -0.53787100438E+02 -0.72668800299E+01  0.24825772699E+03  0.25412154322E+03  0.00000000000E+00 0. -1.
        -13    1    3    3    0    0 -0.81754168268E+02 -0.73486904281E+02  0.46627064712E+03  0.47905363531E+03  0.00000000000E+00 0. -1.
         13    1    3    3    0    0 -0.56053761832E+02  0.25407674168E+02  0.29129740949E+03  0.29772765222E+03  0.00000000000E+00 0.  1.
         21    1    1    2  502  503  0.12491115922E+03  0.59045314227E+02  0.29139528827E+03  0.32249086941E+03  0.00000000000E+00 0.  1.
         21    1    1    2  503  501  0.30609507293E+02 -0.48939172487E+01  0.21662411268E+02  0.37817356130E+02  0.00000000000E+00 0. -1.
<scales pt_clust_5="13000.00000" pt_clust_6="13000.00000" pt_clust_7="13000.00000" pt_clust_8="13000.00000" pt_clust_9="146.51887" pt_clust_10="30.99826"></scales>
<clustering>
<clus scale="   30.998">  2 10  1 -1</clus>
<clus scale="   89.318">  5  6 -1 -1</clus>
<clus scale="   90.415">  1  5  2 -1</clus>
<clus scale="   90.428">  7  8 -1 -1</clus>
<clus scale="  146.519">  2  9  1 -1</clus>
<clus scale="   90.415">  1  5  2 -1</clus>
</clustering>
</event>
<event>
10    2  0.2445576E-006  0.1422945E+03  0.7546771E-02  0.1211043E+00
         -1   -1    0    0    0  501 -0.00000000000E+00  0.00000000000E+00  0.28920617535E+03  0.28920617535E+03  0.00000000000E+00 0.  1.
          1   -1    0    0  502    0  0.00000000000E+00 -0.00000000000E+00 -0.23814946595E+03  0.23814946595E+03  0.00000000000E+00 0. -1.
         23    2    1    2    0    0 -0.61711490152E+02  0.10035667068E+03  0.68274343071E+02  0.16531882422E+03  0.93750511208E+02 0.  0.
         23    2    1    2    0    0 -0.75973465520E+02 -0.11567165958E+03  0.45783054378E+02  0.17141681548E+03  0.90198316322E+02 0.  0.
        -11    1    4    4    0    0 -0.92144541544E+02 -0.97225957307E+02  0.55548065552E+02  0.14501410586E+03  0.00000000000E+00 0.  1.
         11    1    4    4    0    0  0.16171076024E+02 -0.18445702275E+02 -0.97650111743E+01  0.26402709623E+02  0.00000000000E+00 0. -1.
        -11    1    3    3    0    0 -0.47768899981E+02  0.11510477021E+03  0.40740923658E+02  0.13111368652E+03  0.00000000000E+00 0. -1.
         11    1    3    3    0    0 -0.13942590171E+02 -0.14748099533E+02  0.27533419413E+02  0.34205137700E+02  0.00000000000E+00 0.  1.
         21    1    1    2  502  503  0.40990004102E+02 -0.23274410619E+02 -0.72068864889E+02  0.86115038828E+02  0.00000000000E+00 0. -1.
         21    1    1    2  503  501  0.96694951570E+02  0.38589399521E+02  0.90681768345E+01  0.10450496278E+03  0.00000000000E+00 0. -1.
<scales pt_clust_5="13000.00000" pt_clust_6="13000.00000" pt_clust_7="13000.00000" pt_clust_8="13000.00000" pt_clust_9="47.13681" pt_clust_10="113.48263"></scales>
<clustering>
<clus scale="   47.137">  2  9  1 -1</clus>
<clus scale="   90.198">  5  6 -1 -1</clus>
<clus scale="   93.751">  7  8 -1 -1</clus>
<clus scale="  113.483">  2 10  1 -1</clus>
<clus scale="  139.980">  2  5  1 -1</clus>
<clus scale="   47.137">  2  5  1 -1</clus>
</clustering>
</event>
<event>
10    2  0.2445576E-006  0.1293754E+03  0.7546771E-02  0.1233369E+00
          2   -1    0    0  502    0  0.00000000000E+00  0.00000000000E+00  0.12484518784E+03  0.12484518784E+03  0.00000000000E+00 0. -1.
         -2   -1    0    0    0  501 -0.00000000000E+00 -0.00000000000E+00 -0.35115239249E+03  0.35115239249E+03  0.00000000000E+00 0.  1.
         23    2    1    2    0    0 -0.17099609032E+02  0.47736490695E+02 -0.21768787377E+03  0.24227039234E+03  0.93465306101E+02 0.  0.
         23    2    1    2    0    0 -0.77675896183E+01 -0.87600219510E+02  0.95318010263E+01  0.14024996599E+03  0.10883503031E+03 0.  0.
        -11    1    3    3    0    0 -0.46854032604E+02  0.49313617283E+02 -0.18916119744E+03  0.20102012794E+03  0.00000000000E+00 0.  1.
         11    1    3    3    0    0  0.29754423572E+02 -0.15771265880E+01 -0.28526676328E+02  0.41250264396E+02  0.00000000000E+00 0. -1.
        -13    1    4    4    0    0 -0.39536929159E+02  0.49316020648E+01  0.14217916770E+02  0.42304120645E+02  0.00000000000E+00 0.  1.
         13    1    4    4    0    0  0.31769339541E+02 -0.92531821575E+02 -0.46861157435E+01  0.97945845342E+02  0.00000000000E+00 0. -1.
         21    1    1    2  502  503  0.32275586006E+02  0.17706774922E+02  0.24935858606E+02  0.44463922169E+02  0.00000000000E+00 0.  1.
         21    1    1    2  503  501 -0.74083873558E+01  0.22156953893E+02 -0.43086990518E+02  0.49013299837E+02  0.00000000000E+00 0.  1.
<scales pt_clust_5="13000.00000" pt_clust_6="13000.00000" pt_clust_7="13000.00000" pt_clust_8="13000.00000" pt_clust_9="36.95415" pt_clust_10="23.36268"></scales>
<clustering>
<clus scale="   23.363">  2 10  1 -1</clus>
<clus scale="   36.954">  1  9  2 -1</clus>
<clus scale="   93.465">  5  6 -1 -1</clus>
<clus scale="  108.835">  7  8 -1 -1</clus>
<clus scale="  116.742">  2  5  1 -1</clus>
<clus scale="   36.954">  1  5  2 -1</clus>
</clustering>
</event>
<event>
10    2  0.2445576E-006  0.1369991E+03  0.7546771E-02  0.1233854E+00
          2   -1    0    0  502    0  0.00000000000E+00  0.00000000000E+00  0.84462285244E+03  0.84462285244E+03  0.00000000000E+00 0. -1.
         -2   -1    0    0    0  501 -0.00000000000E+00 -0.00000000000E+00 -0.56627724858E+02  0.56627724858E+02  0.00000000000E+00 0.  1.
         23    2    1    2    0    0  0.31661320630E+02  0.11248928003E+02  0.12495454448E+03  0.15813271717E+03  0.90902917717E+02 0.  0.
         23    2    1    2    0    0 -0.12948537364E+03 -0.10000409861E+02  0.22240495656E+03  0.27178965163E+03  0.86828450674E+02 0.  0.
        -13    1    4    4    0    0 -0.53799330848E+02 -0.91430739563E+00  0.23382825461E+02  0.58668223804E+02  0.00000000000E+00 0.  1.
         13    1    4    4    0    0 -0.75686042793E+02 -0.90861024654E+01  0.19902213110E+03  0.21312142782E+03  0.00000000000E+00 0. -1.
        -13    1    3    3    0    0 -0.26845371388E+02  0.18946888953E+02  0.70738457670E+02  0.77997358670E+02  0.00000000000E+00 0.  1.
         13    1    3    3    0    0  0.58506692018E+02 -0.76979609492E+01  0.54216086811E+02  0.80135358505E+02  0.00000000000E+00 0. -1.
         21    1    1    2  502  503  0.89975097145E+02  0.47289036468E+02  0.37948600400E+03  0.39286307833E+03  0.00000000000E+00 0. -1.
         21    1    1    2  503  501  0.78489558658E+01 -0.48537554610E+02  0.61149622541E+02  0.78465130170E+02  0.00000000000E+00 0. -1.
<scales pt_clust_5="13000.00000" pt_clust_6="13000.00000" pt_clust_7="13000.00000" pt_clust_8="13000.00000" pt_clust_9="105.96971" pt_clust_10="49.16808"></scales>
<clustering>
<clus scale="   49.168">  2 10  1 -1</clus>
<clus scale="   86.828">  5  6 -1 -1</clus>
<clus scale="   90.903">  7  8 -1 -1</clus>
<clus scale="   97.343">  2  7  1 -1</clus>
<clus scale="  105.970">  1  9  2 -1</clus>
<clus scale="  105.970">  1  5  2 -1</clus>
</clustering>
</event>
<event>
10    2  0.2445576E-006  0.1133385E+03  0.7546771E-02  0.1254736E+00
          2   -1    0    0  502    0  0.00000000000E+00  0.00000000000E+00  0.53252904113E+03  0.53252904113E+03  0.00000000000E+00 0. -1.
         -2   -1    0    0    0  501 -0.00000000000E+00 -0.00000000000E+00 -0.15688584470E+03  0.15688584470E+03  0.00000000000E+00 0.  1.
         23    2    1    2    0    0 -0.18719420244E+02 -0.86138445160E+02  0.37145772247E+02  0.13220125517E+03  0.91253027582E+02 0.  0.
         23    2    1    2    0    0  0.38768831967E+02  0.37339953466E+02  0.40430292396E+03  0.41781635903E+03  0.90622078388E+02 0.  0.
        -11    1    4    4    0    0  0.68424812694E+02  0.21274409081E+02  0.27122634608E+03  0.28053214839E+03  0.00000000000E+00 0.  1.
         11    1    4    4    0    0 -0.29655980728E+02  0.16065544386E+02  0.13307657788E+03  0.13728421064E+03  0.00000000000E+00 0. -1.
        -11    1    3    3    0    0 -0.42816622526E+02 -0.46483970662E+02  0.53702753688E+02  0.82933759391E+02  0.00000000000E+00 0. -1.
         11    1    3    3    0    0  0.24097202281E+02 -0.39654474498E+02 -0.16556981441E+02  0.49267495775E+02  0.00000000000E+00 0.  1.
         21    1    1    2  502  503 -0.42806131782E+01  0.19773220041E+02  0.31052493725E+02  0.37061587210E+02  0.00000000000E+00 0.  1.
         21    1    1    2  503  501 -0.15768798544E+02  0.29025271653E+02 -0.96857993498E+02  0.10233568442E+03  0.00000000000E+00 0.  1.
<scales pt_clust_5="13000.00000" pt_clust_6="13000.00000" pt_clust_7="13000.00000" pt_clust_8="13000.00000" pt_clust_9="20.23126" pt_clust_10="33.13883"></scales>
<clustering>
<clus scale="   20.231">  1  9  2 -1</clus>
<clus scale="   33.139">  2 10  1 -1</clus>
<clus scale="   90.622">  5  6 -1 -1</clus>
<clus scale="   91.253">  7  8 -1 -1</clus>
<clus scale="  112.831">  1  5  2 -1</clus>
<clus scale="   20.231">  1  5  2 -1</clus>
</clustering>
</event>
<event>
10    2  0.2445576E-006  0.1040198E+03  0.7546771E-02  0.1275085E+00
         -3   -1    0    0    0  501 -0.00000000000E+00  0.00000000000E+00  0.62703806474E+02  0.62703806474E+02  0.00000000000E+00 0.  1.
          3   -1    0    0  502    0  0.00000000000E+00 -0.00000000000E+00 -0.32639129698E+03  0.32639129698E+03  0.00000000000E+00 0. -1.
         23    2    1    2    0    0  0.23871364242E+02 -0.17646632180E+02 -0.61171305353E+02  0.10882250487E+03  0.84965659585E+02 0.  0.
         23    2    1    2    0    0 -0.79730832669E+02 -0.54610434846E+01 -0.14591460242E+03  0.18995821104E+03  0.91685451774E+02 0.  0.
        -11    1    3    3    0    0 -0.17636248254E+02  0.18043990445E+02  0.19060938507E+01  0.25303281159E+02  0.00000000000E+00 0.  1.
         11    1    3    3    0    0  0.41507612495E+02 -0.35690622625E+02 -0.63077399203E+02  0.83519223707E+02  0.00000000000E+00 0. -1.
        -13    1    4    4    0    0 -0.16952522122E+02  0.40010697293E+02 -0.62094820759E+02  0.75789251674E+02  0.00000000000E+00 0. -1.
         13    1    4    4    0    0 -0.62778310547E+02 -0.45471740777E+02 -0.83819781664E+02  0.11416895937E+03  0.00000000000E+00 0.  1.
         21    1    1    2  502  503  0.31821690285E+02  0.22098185583E+02 -0.53502642275E+02  0.66056661352E+02  0.00000000000E+00 0. -1.
         21    1    1    2  503  501  0.24037778142E+02  0.10094900825E+01 -0.30989404558E+01  0.24257726196E+02  0.00000000000E+00 0.  1.
<scales pt_clust_5="13000.00000" pt_clust_6="13000.00000" pt_clust_7="13000.00000" pt_clust_8="13000.00000" pt_clust_9="41.21828" pt_clust_10="24.05897"></scales>
<clustering>
<clus scale="   24.059">  1 10  2 -1</clus>
<clus scale="   41.218">  2  9  1 -1</clus>
<clus scale="   84.966">  5  6 -1 -1</clus>
<clus scale="   91.685">  7  8 -1 -1</clus>
<clus scale="   98.148">  1  5  2 -1</clus>
<clus scale="   41.218">  2  5  1 -1</clus>
</clustering>
</event>
<event>
10    2  0.2445576E-006  0.2165655E+03  0.7546771E-02  0.1136484E+00
          3   -1    0    0  502    0  0.00000000000E+00  0.00000000000E+00  0.14592722161E+03  0.14592722161E+03  0.00000000000E+00 0. -1.
         -3   -1    0    0    0  501 -0.00000000000E+00 -0.00000000000E+00 -0.10374763053E+04  0.10374763053E+04  0.00000000000E+00 0.  1.
         23    2    1    2    0    0 -0.48395355739E+02  0.17698803229E+03 -0.16318797649E+03  0.26249595111E+03  0.92773566539E+02 0.  0.
         23    2    1    2    0    0 -0.15979809594E+02 -0.20951945316E+03 -0.28853087356E+03  0.36883998025E+03  0.92946815249E+02 0.  0.
        -13    1    4    4    0    0 -0.44267840671E+02 -0.14488505079E+03 -0.23773533262E+03  0.28190318912E+03  0.00000000000E+00 0.  1.
         13    1    4    4    0    0  0.28288031077E+02 -0.64634402379E+02 -0.50795540941E+02  0.86936791134E+02  0.00000000000E+00 0. -1.
        -13    1    3    3    0    0 -0.38983069570E+02  0.15967522591E+02 -0.50352610759E+02  0.65650795128E+02  0.00000000000E+00 0.  1.
         13    1    3    3    0    0 -0.94122861693E+01  0.16102050970E+03 -0.11283536574E+03  0.19684515599E+03  0.00000000000E+00 0. -1.
         21    1    1    2  502  503 -0.85242602110E+02  0.10007858607E+03 -0.73441760941E+02  0.15058458372E+03  0.00000000000E+00 0. -1.
         21    1    1    2  503  501  0.14961776744E+03 -0.67547165190E+02 -0.36638847271E+03  0.40148301184E+03  0.00000000000E+00 0. -1.
<scales pt_clust_5="13000.00000" pt_clust_6="13000.00000" pt_clust_7="13000.00000" pt_clust_8="13000.00000" pt_clust_9="131.46111" pt_clust_10="145.01979"></scales>
<clustering>
<clus scale="   92.774">  7  8 -1 -1</clus>
<clus scale="   92.947">  5  6 -1 -1</clus>
<clus scale="  131.461">  1  9  2 -1</clus>
<clus scale="  145.020">  2 10  1 -1</clus>
<clus scale="  216.491">  2  7  1 -1</clus>
<clus scale="  131.461">  1  5  2 -1</clus>
</clustering>
</event>
<event>
10    2  0.2445576E-006  0.1030908E+03  0.7546771E-02  0.1277903E+00
         -1   -1    0    0    0  501 -0.00000000000E+00  0.00000000000E+00  0.23868990587E+03  0.23868990587E+03  0.00000000000E+00 0.  1.
          1   -1    0    0  502    0  0.00000000000E+00 -0.00000000000E+00 -0.25114342939E+03  0.25114342939E+03  0.00000000000E+00 0. -1.
         23    2    1    2    0    0 -0.26714294865E+02 -0.26757038592E+02 -0.18454219575E+02  0.10010672973E+03  0.90836151680E+02 0.  0.
         23    2    1    2    0    0  0.19153233519E+02  0.28247760534E+02 -0.44599543397E+02  0.11360650431E+03  0.98754930104E+02 0.  0.
        -11    1    3    3    0    0  0.29876342019E+02 -0.83591345424E+01 -0.25534788736E+02  0.40180796141E+02  0.00000000000E+00 0. -1.
         11    1    3    3    0    0 -0.56590636885E+02 -0.18397904050E+02  0.70805691610E+01  0.59925933585E+02  0.00000000000E+00 0.  1.
        -13    1    4    4    0    0  0.36173252455E+02  0.44583436589E+02  0.60520943736E+01  0.57730536612E+02  0.00000000000E+00 0.  1.
         13    1    4    4    0    0 -0.17020018936E+02 -0.16335676055E+02 -0.50651637771E+02  0.55875967693E+02  0.00000000000E+00 0. -1.
         21    1    1    2  502  503 -0.20299481333E+02 -0.33460975829E+02 -0.10646512248E+03  0.11343071960E+03  0.00000000000E+00 0. -1.
         21    1    1    2  503  501  0.27860542679E+02  0.31970253887E+02  0.15706536193E+03  0.16268938162E+03  0.00000000000E+00 0.  1.
<scales pt_clust_5="13000.00000" pt_clust_6="13000.00000" pt_clust_7="13000.00000" pt_clust_8="13000.00000" pt_clust_9="39.13701" pt_clust_10="41.63866"></scales>
<clustering>
<clus scale="   39.137">  2  9  1 -1</clus>
<clus scale="   41.639">  1 10  2 -1</clus>
<clus scale="   90.836">  5  6 -1 -1</clus>
<clus scale="   95.532">  1  5  2 -1</clus>
<clus scale="   98.755">  7  8 -1 -1</clus>
<clus scale="   39.137">  2  5  1 -1</clus>
</clustering>
</event>
<event>
10    2  0.2445576E-006  0.1254048E+03  0.7546771E-02  0.1238258E+00
          2   -1    0    0  502    0  0.00000000000E+00  0.00000000000E+00  0.22560809046E+03  0.22560809046E+03  0.00000000000E+00 0. -1.
         -2   -1    0    0    0  501 -0.00000000000E+00 -0.00000000000E+00 -0.13594605881E+03  0.13594605881E+03  0.00000000000E+00 0.  1.
         23    2    1    2    0    0  0.96398188056E+00  0.10457702719E+03 -0.33907080049E+02  0.14366769420E+03  0.92484768486E+02 0.  0.
         23    2    1    2    0    0 -0.46310536788E+01 -0.69456259194E+02  0.69350700197E+02  0.12623664517E+03  0.79249936070E+02 0.  0.
        -11    1    4    4    0    0 -0.20849636089E+02  0.51096404354E+01 -0.22642668366E+01  0.21585704870E+02  0.00000000000E+00 0.  1.
         11    1    4    4    0    0  0.16218582410E+02 -0.74565899630E+02  0.71614967034E+02  0.10465094030E+03  0.00000000000E+00 0. -1.
        -13    1    3    3    0    0  0.22492354104E+02  0.10716301734E+03 -0.78645965607E+01  0.10978009910E+03  0.00000000000E+00 0.  1.
         13    1    3    3    0    0 -0.21528372223E+02 -0.25859901483E+01 -0.26042483488E+02  0.33887595103E+02  0.00000000000E+00 0. -1.
         21    1    1    2  502  503  0.18363087211E+02 -0.15417382923E+02  0.61503988541E+02  0.66012417579E+02  0.00000000000E+00 0. -1.
         21    1    1    2  503  501 -0.14696015413E+02 -0.19703385076E+02 -0.72855770389E+01  0.25637392325E+02  0.00000000000E+00 0.  1.
<scales pt_clust_5="13000.00000" pt_clust_6="13000.00000" pt_clust_7="13000.00000" pt_clust_8="13000.00000" pt_clust_9="23.97704" pt_clust_10="24.69593"></scales>
<clustering>
<clus scale="   23.977">  1  9  2 -1</clus>
<clus scale="   24.696">  2 10  1 -1</clus>
<clus scale="   79.250">  5  6 -1 -1</clus>
<clus scale="   92.485">  7  8 -1 -1</clus>
<clus scale="  115.989">  1  5  2 -1</clus>
<clus scale="   23.977">  1  5  2 -1</clus>
</clustering>
</event>
<event>
10    2  0.2445576E-006  0.9321398E+02  0.7546771E-02  0.1296143E+00
         -1   -1    0    0    0  501 -0.00000000000E+00  0.00000000000E+00  0.95566855927E+02  0.95566855927E+02  0.00000000000E+00 0.  1.
          1   -1    0    0  502    0  0.00000000000E+00 -0.00000000000E+00 -0.38673386043E+03  0.38673386043E+03  0.00000000000E+00 0. -1.
         23    2    1    2    0    0  0.89225159854E+01 -0.19943571844E+02 -0.50693348999E+02  0.10571718454E+03  0.90160690575E+02 0.  0.
         23    2    1    2    0    0  0.65373539340E+01 -0.58835577661E+02 -0.12929973182E+03  0.16921903815E+03  0.91718591501E+02 0.  0.
        -11    1    3    3    0    0 -0.30179019306E+02  0.88498901253E+01 -0.47610709470E+02  0.57060261283E+02  0.00000000000E+00 0. -1.
         11    1    3    3    0    0  0.39101535291E+02 -0.28793461970E+02 -0.30826395288E+01  0.48656923257E+02  0.00000000000E+00 0.  1.
        -13    1    4    4    0    0 -0.10235617050E+02 -0.71533389227E+02 -0.51788198053E+02  0.88903380635E+02  0.00000000000E+00 0.  1.
         13    1    4    4    0    0  0.16772970984E+02  0.12697811567E+02 -0.77511533772E+02  0.80315657514E+02  0.00000000000E+00 0. -1.
         21    1    1    2  502  503 -0.48507944389E+02  0.53401461439E+02 -0.13945129673E+03  0.15700764603E+03  0.00000000000E+00 0. -1.
         21    1    1    2  503  501  0.33048074470E+02  0.25377688066E+02  0.28277373047E+02  0.50356847640E+02  0.00000000000E+00 0.  1.
<scales pt_clust_5="13000.00000" pt_clust_6="13000.00000" pt_clust_7="13000.00000" pt_clust_8="13000.00000" pt_clust_9="71.90028" pt_clust_10="41.66776"></scales>
<clustering>
<clus scale="   41.668">  1 10  2 -1</clus>
<clus scale="   71.900">  2  9  1 -1</clus>
<clus scale="   90.161">  5  6 -1 -1</clus>
<clus scale="   91.681">  1  5  2 -1</clus>
<clus scale="   91.719">  7  8 -1 -1</clus>
<clus scale="   71.900">  2  5  1 -1</clus>
</clustering>
</event>
<event>
10    2  0.2445576E-006  0.1799332E+03  0.7546771E-02  0.1168117E+00
         -1   -1    0    0    0  501 -0.00000000000E+00  0.00000000000E+00  0.20124487827E+03  0.20124487827E+03  0.00000000000E+00 0.  1.
          1   -1    0    0  502    0  0.00000000000E+00 -0.00000000000E+00 -0.50467451158E+03  0.50467451158E+03  0.00000000000E+00 0. -1.
         23    2    1    2    0    0 -0.28132904353E+02  0.13883589460E+03  0.44932659424E+02  0.17551853583E+03  0.93386008595E+02 0.  0.
         23    2    1    2    0    0  0.10828694784E+03 -0.14100187831E+03 -0.32057507137E+03  0.37779469265E+03  0.91393985866E+02 0.  0.
        -11    1    4    4    0    0  0.11879872347E+03 -0.93424236440E+02 -0.24574630527E+03  0.28850038338E+03  0.00000000000E+00 0. -1.
         11    1    4    4    0    0 -0.10511775639E+02 -0.47577641869E+02 -0.74828766097E+02  0.89294309273E+02  0.00000000000E+00 0.  1.
        -13    1    3    3    0    0 -0.44706384487E+01  0.10057663449E+03  0.71308018887E+02  0.12337130773E+03  0.00000000000E+00 0.  1.
         13    1    3    3    0    0 -0.23662265904E+02  0.38259260107E+02 -0.26375359464E+02  0.52147228100E+02  0.00000000000E+00 0. -1.
         21    1    1    2  502  503 -0.63293144250E+01  0.24992450965E+02 -0.62713803693E+02  0.67806371382E+02  0.00000000000E+00 0.  1.
         21    1    1    2  503  501 -0.73824729057E+02 -0.22826467258E+02  0.34926582329E+02  0.84799789982E+02  0.00000000000E+00 0. -1.
<scales pt_clust_5="13000.00000" pt_clust_6="13000.00000" pt_clust_7="13000.00000" pt_clust_8="13000.00000" pt_clust_9="25.78144" pt_clust_10="77.21115"></scales>
<clustering>
<clus scale="   25.781">  2  9  1 -1</clus>
<clus scale="   77.211">  1 10  2 -1</clus>
<clus scale="   91.394">  5  6 -1 -1</clus>
<clus scale="   93.386">  7  8 -1 -1</clus>
<clus scale="  178.907">  2  5  1 -1</clus>
<clus scale="   25.781">  2  5  1 -1</clus>
</clustering>
</event>
<event>
10    2  0.2445576E-006  0.1214534E+03  0.7546771E-02  0.1243574E+00
          3   -1    0    0  502    0  0.00000000000E+00  0.00000000000E+00  0.21315870482E+03  0.21315870482E+03  0.00000000000E+00 0. -1.
         -3   -1    0    0    0  501 -0.00000000000E+00 -0.00000000000E+00 -0.27022979689E+03  0.27022979689E+03  0.00000000000E+00 0.  1.
         23    2    1    2    0    0 -0.39718083654E+02 -0.13064342057E+02 -0.11240417542E+03  0.15609818050E+03  0.99918667436E+02 0.  0.
         23    2    1    2    0    0  0.42917278102E+02  0.80384052601E+02  0.44694258628E+02  0.13665610051E+03  0.91508602766E+02 0.  0.
        -11    1    3    3    0    0 -0.33848801939E+02 -0.38705306721E+02 -0.11843194531E+03  0.12911222959E+03  0.00000000000E+00 0.  1.
         11    1    3    3    0    0 -0.58692817142E+01  0.25640964663E+02  0.60277698885E+01  0.26985950911E+02  0.00000000000E+00 0. -1.
        -11    1    4    4    0    0  0.22352034301E+02  0.36349224680E+01 -0.22996679900E+02  0.32274965301E+02  0.00000000000E+00 0.  1.
         11    1    4    4    0    0  0.20565243801E+02  0.76749130133E+02  0.67690938529E+02  0.10438113521E+03  0.00000000000E+00 0. -1.
         21    1    1    2  502  503 -0.38239368028E+02  0.23913485867E+01  0.78421620280E+02  0.87280687111E+02  0.00000000000E+00 0. -1.
         21    1    1    2  503  501  0.35040173579E+02 -0.69711059131E+02 -0.67782795562E+02  0.10335353358E+03  0.00000000000E+00 0.  1.
<scales pt_clust_5="13000.00000" pt_clust_6="13000.00000" pt_clust_7="13000.00000" pt_clust_8="13000.00000" pt_clust_9="38.31407" pt_clust_10="75.52167"></scales>
<clustering>
<clus scale="   38.314">  1  9  2 -1</clus>
<clus scale="   75.522">  2 10  1 -1</clus>
<clus scale="   91.509">  7  8 -1 -1</clus>
<clus scale="   99.919">  5  6 -1 -1</clus>
<clus scale="  114.634">  1  7  2 -1</clus>
<clus scale="   38.314">  1  5  2 -1</clus>
</clustering>
</event>
<event>
10    2  0.2445576E-006  0.1059414E+03  0.7546771E-02  0.1268483E+00
          2   -1    0    0  502    0  0.00000000000E+00  0.00000000000E+00  0.11561319709E+03  0.11561319709E+03  0.00000000000E+00 0. -1.
         -2   -1    0    0    0  501 -0.00000000000E+00 -0.00000000000E+00 -0.46976732784E+03  0.46976732784E+03  0.00000000000E+00 0.  1.
         23    2    1    2    0    0 -0.50908736835E+01  0.60044790370E+02 -0.55003750497E+02  0.12389643083E+03  0.93239579353E+02 0.  0.
         23    2    1    2    0    0  0.42400718075E+02 -0.16157134428E+02  0.17882048352E+02  0.10479818443E+03  0.92757845595E+02 0.  0.
        -11    1    3    3    0    0  0.24574536094E+02 -0.16073707907E+01  0.12642803452E+02  0.27682701173E+02  0.00000000000E+00 0. -1.
         11    1    3    3    0    0 -0.29665409777E+02  0.61652161161E+02 -0.67646553949E+02  0.96213729656E+02  0.00000000000E+00 0.  1.
        -13    1    4    4    0    0  0.34459875962E+02  0.11652535881E+02 -0.31137240984E+02  0.47883112053E+02  0.00000000000E+00 0.  1.
         13    1    4    4    0    0  0.79408421130E+01 -0.27809670309E+02  0.49019289336E+02  0.56915072373E+02  0.00000000000E+00 0. -1.
         21    1    1    2  502  503  0.23856845365E+01 -0.34631503772E+02  0.22743963277E+01  0.34788006883E+02  0.00000000000E+00 0.  1.
         21    1    1    2  503  501 -0.39695528928E+02 -0.92561521701E+01 -0.31930682494E+03  0.32189790279E+03  0.00000000000E+00 0.  1.
<scales pt_clust_5="13000.00000" pt_clust_6="13000.00000" pt_clust_7="13000.00000" pt_clust_8="13000.00000" pt_clust_9="34.71358" pt_clust_10="40.83692"></scales>
<clustering>
<clus scale="   34.714">  1  9  2 -1</clus>
<clus scale="   40.837">  2 10  1 -1</clus>
<clus scale="   92.758">  7  8 -1 -1</clus>
<clus scale="   93.240">  5  6 -1 -1</clus>
<clus scale="  105.518">  1  7  2 -1</clus>
<clus scale="   34.714">  1  5  2 -1</clus>
</clustering>
</event>
<event>
10    2  0.2445576E-006  0.9269012E+02  0.7546771E-02  0.1297919E+00
          1   -1    0    0  502    0  0.00000000000E+00  0.00000000000E+00  0.12125469251E+03  0.12125469251E+03  0.00000000000E+00 0. -1.
         -1   -1    0    0    0  501 -0.00000000000E+00 -0.00000000000E+00 -0.42433831656E+03  0.42433831656E+03  0.00000000000E+00 0.  1.
         23    2    1    2    0    0  0.45516814446E+02 -0.34804060536E+02 -0.50327845435E+02  0.11937209996E+03  0.91835195841E+02 0.  0.
         23    2    1    2    0    0  0.43454420969E+02 -0.34005287687E+02 -0.32905430974E+02  0.11073896962E+03  0.90198146944E+02 0.  0.
        -13    1    3    3    0    0  0.63301146611E+02 -0.68984725618E+01 -0.58629293801E+01  0.63945273687E+02  0.00000000000E+00 0. -1.
         13    1    3    3    0    0 -0.17784332165E+02 -0.27905587975E+02 -0.44464916055E+02  0.55426826271E+02  0.00000000000E+00 0.  1.
        -13    1    4    4    0    0  0.19580112505E+02  0.21807963193E+02  0.15447813686E+02  0.33130092243E+02  0.00000000000E+00 0. -1.
         13    1    4    4    0    0  0.23874308464E+02 -0.55813250880E+02 -0.48353244659E+02  0.77608877376E+02  0.00000000000E+00 0.  1.
         21    1    1    2  502  503 -0.17104464984E+02  0.13638878197E+02  0.37075975576E+02  0.43048922005E+02  0.00000000000E+00 0. -1.
         21    1    1    2  503  501 -0.71866770431E+02  0.55170470026E+02 -0.25692632322E+03  0.27243301749E+03  0.00000000000E+00 0.  1.
<scales pt_clust_5="13000.00000" pt_clust_6="13000.00000" pt_clust_7="13000.00000" pt_clust_8="13000.00000" pt_clust_9="21.87651" pt_clust_10="92.69012"></scales>
<clustering>
<clus scale="   21.877">  1  9  2 -1</clus>
<clus scale="   90.198">  7  8 -1 -1</clus>
<clus scale="   91.835">  5  6 -1 -1</clus>
<clus scale="   92.690">  2 10  1 -1</clus>
<clus scale="   90.228">  1  7  2 -1</clus>
<clus scale="   21.877">  1  5  2 -1</clus>
</clustering>
</event>
<event>
10    2  0.2445576E-006  0.1658023E+03  0.7546771E-02  0.1182988E+00
         -1   -1    0    0    0  501 -0.00000000000E+00  0.00000000000E+00  0.13640519043E+03  0.13640519043E+03  0.00000000000E+00 0.  1.
          1   -1    0    0  502    0  0.00000000000E+00 -0.00000000000E+00 -0.50698748507E+03  0.50698748507E+03  0.00000000000E+00 0. -1.
         23    2    1    2    0    0 -0.13576571276E+03 -0.39669020285E+02 -0.94402734803E+02  0.19520739518E+03  0.95854529692E+02 0.  0.
         23    2    1    2    0    0  0.10662148036E+03  0.88912932635E+02 -0.17036590933E+03  0.23801113546E+03  0.91384396255E+02 0.  0.
        -11    1    3    3    0    0 -0.11876029798E+03  0.81254064621E+01 -0.55837840066E+02  0.13148343998E+03  0.00000000000E+00 0.  1.
         11    1    3    3    0    0 -0.17005414784E+02 -0.47794426747E+02 -0.38564894737E+02  0.63723955198E+02  0.00000000000E+00 0. -1.
        -11    1    4    4    0    0  0.25508516489E+02  0.77934536757E+02 -0.65311312349E+02  0.10483341048E+03  0.00000000000E+00 0.  1.
         11    1    4    4    0    0  0.81112963869E+02  0.10978395878E+02 -0.10505459698E+03  0.13317772498E+03  0.00000000000E+00 0. -1.
         21    1    1    2  502  503  0.58067272012E+01 -0.28409235882E+02 -0.15180584159E+03  0.15455036818E+03  0.00000000000E+00 0. -1.
         21    1    1    2  503  501  0.23337505203E+02 -0.20834676467E+02  0.45992191080E+02  0.55623776687E+02  0.00000000000E+00 0. -1.
<scales pt_clust_5="13000.00000" pt_clust_6="13000.00000" pt_clust_7="13000.00000" pt_clust_8="13000.00000" pt_clust_9="28.99660" pt_clust_10="31.60191"></scales>
<clustering>
<clus scale="   28.997">  2  9  1 -1</clus>
<clus scale="   31.602">  1 10  2 -1</clus>
<clus scale="   91.384">  7  8 -1 -1</clus>
<clus scale="   95.855">  5  6 -1 -1</clus>
<clus scale="  163.259">  2  7  1 -1</clus>
<clus scale="   28.997">  2  5  1 -1</clus>
</clustering>
</event>
<event>
10    2  0.2445576E-006  0.9345787E+02  0.7546771E-02  0.1296853E+00
          1   -1    0    0  502    0  0.00000000000E+00  0.00000000000E+00  0.29284544385E+03  0.29284544385E+03  0.00000000000E+00 0. -1.
         -1   -1    0    0    0  501 -0.00000000000E+00 -0.00000000000E+00 -0.10609061842E+03  0.10609061842E+03  0.00000000000E+00 0.  1.
         23    2    1    2    0    0 -0.27443803846E+02  0.21558481122E+02  0.14544325435E+02  0.98389210951E+02  0.90834844368E+02 0.  0.
         23    2    1    2    0    0 -0.12387890002E+02 -0.35384701591E+01  0.15156808747E+03  0.17525772399E+03  0.87042541845E+02 0.  0.
        -11    1    4    4    0    0  0.17709252415E+02  0.33005395837E+02  0.90819573065E+02  0.98240361498E+02  0.00000000000E+00 0. -1.
         11    1    4    4    0    0 -0.30097142417E+02 -0.36543865996E+02  0.60748514401E+02  0.77017362494E+02  0.00000000000E+00 0.  1.
        -13    1    3    3    0    0 -0.56152473732E+02 -0.53746113959E+01 -0.41595395919E-01  0.56409117029E+02  0.00000000000E+00 0. -1.
         13    1    3    3    0    0  0.28708669886E+02  0.26933092518E+02  0.14585920831E+02  0.41980093922E+02  0.00000000000E+00 0.  1.
         21    1    1    2  502  503 -0.96501105512E+01 -0.28976734298E+02  0.55797658288E+02  0.63609389516E+02  0.00000000000E+00 0.  1.
         21    1    1    2  503  501  0.49481804399E+02  0.10956723335E+02 -0.35155245751E+02  0.61679737813E+02  0.00000000000E+00 0.  1.
<scales pt_clust_5="13000.00000" pt_clust_6="13000.00000" pt_clust_7="13000.00000" pt_clust_8="13000.00000" pt_clust_9="30.54138" pt_clust_10="49.81035"></scales>
<clustering>
<clus scale="   30.541">  1  9  2 -1</clus>
<clus scale="   49.810">  2 10  1 -1</clus>
<clus scale="   87.043">  5  6 -1 -1</clus>
<clus scale="   89.776">  1  5  2 -1</clus>
<clus scale="   90.835">  7  8 -1 -1</clus>
<clus scale="   30.541">  1  5  2 -1</clus>
</clustering>
</event>
<event>
10    2  0.3256099E-006  0.1883497E+03  0.7546771E-02  0.1194097E+00
          2   -1    0    0  502    0  0.00000000000E+00  0.00000000000E+00  0.57746112989E+03  0.57746112989E+03  0.00000000000E+00 0. -1.
         -2   -1    0    0    0  501 -0.00000000000E+00 -0.00000000000E+00 -0.34304849490E+03  0.34304849490E+03  0.00000000000E+00 0.  1.
         23    2    1    2    0    0  0.10784511705E+02 -0.10028188839E+02 -0.33645280547E+02  0.93190509988E+02  0.85648093876E+02 0.  0.
         23    2    1    2    0    0  0.68870309631E+02 -0.13039234584E+03  0.31966436741E+03  0.36299458385E+03  0.88512579383E+02 0.  0.
        -11    1    3    3    0    0 -0.15021574154E+02  0.31228202390E+02 -0.27301946854E+02  0.44116262496E+02  0.00000000000E+00 0.  1.
         11    1    3    3    0    0  0.25806085859E+02 -0.41256391229E+02 -0.63433336932E+01  0.49074247492E+02  0.00000000000E+00 0. -1.
        -13    1    4    4    0    0  0.27505597733E+02 -0.13995773421E+02  0.15151388125E+02  0.34380287119E+02  0.00000000000E+00 0. -1.
         13    1    4    4    0    0  0.41364711898E+02 -0.11639657242E+03  0.30451297929E+03  0.32861429673E+03  0.00000000000E+00 0.  1.
         21    1    1    2  502  503 -0.90815983182E+01 -0.26745393015E+02  0.17316428993E+03  0.17545273661E+03  0.00000000000E+00 0. -1.
         21    1    1    2  503  501 -0.70573223018E+02  0.16716592769E+03 -0.22477074182E+03  0.28887179434E+03  0.00000000000E+00 0.  1.
<scales pt_clust_5="13000.00000" pt_clust_6="13000.00000" pt_clust_7="13000.00000" pt_clust_8="13000.00000" pt_clust_9="28.24520" pt_clust_10="166.25624"></scales>
<clustering>
<clus scale="   28.245">  1  9  2 -1</clus>
<clus scale="   85.648">  5  6 -1 -1</clus>
<clus scale="   87.074">  2  5  1 -1</clus>
<clus scale="   88.513">  7  8 -1 -1</clus>
<clus scale="  166.256">  2 10  1 -1</clus>
<clus scale="   28.245">  1  5  2 -1</clus>
</clustering>
</event>
<event>
10    2  0.2445576E-006  0.2827871E+03  0.7546771E-02  0.1094308E+00
          2   -1    0    0  502    0  0.00000000000E+00  0.00000000000E+00  0.39096650564E+03  0.39096650564E+03  0.00000000000E+00 0. -1.
         -2   -1    0    0    0  501 -0.00000000000E+00 -0.00000000000E+00 -0.43087598298E+03  0.43087598298E+03  0.00000000000E+00 0.  1.
         23    2    1    2    0    0  0.24096966128E+03  0.11363649964E+03 -0.15639887326E+03  0.32098740945E+03  0.87135972825E+02 0.  0.
         23    2    1    2    0    0 -0.24298856933E+03 -0.84679032582E+02  0.58734052743E+02  0.27893943278E+03  0.90241536025E+02 0.  0.
        -11    1    3    3    0    0  0.18275672168E+03  0.90432669037E+02 -0.72810900247E+02  0.21651677566E+03  0.00000000000E+00 0.  1.
         11    1    3    3    0    0  0.58212939601E+02  0.23203830600E+02 -0.83587973011E+02  0.10447063379E+03  0.00000000000E+00 0. -1.
        -13    1    4    4    0    0 -0.53754113508E+02 -0.46215044385E+01  0.49563451802E+02  0.73262533241E+02  0.00000000000E+00 0.  1.
         13    1    4    4    0    0 -0.18923445582E+03 -0.80057528143E+02  0.91706009407E+01  0.20567689954E+03  0.00000000000E+00 0. -1.
         21    1    1    2  502  503 -0.26213711703E+02 -0.14191551926E+01  0.13374709122E+03  0.13629914560E+03  0.00000000000E+00 0. -1.
         21    1    1    2  503  501  0.28232619748E+02 -0.27538311863E+02 -0.75991748042E+02  0.85616500796E+02  0.00000000000E+00 0. -1.
<scales pt_clust_5="13000.00000" pt_clust_6="13000.00000" pt_clust_7="13000.00000" pt_clust_8="13000.00000" pt_clust_9="26.25210" pt_clust_10="39.10655"></scales>
<clustering>
<clus scale="   26.252">  1  9  2 -1</clus>
<clus scale="   39.107">  2 10  1 -1</clus>
<clus scale="   87.136">  5  6 -1 -1</clus>
<clus scale="   90.242">  7  8 -1 -1</clus>
<clus scale="  281.811">  2  5  1 -1</clus>
<clus scale="   26.252">  1  5  2 -1</clus>
</clustering>
</event>
<event>
10    2  0.2445576E-006  0.1336736E+03  0.7546771E-02  0.1222338E+00
          1   -1    0    0  502    0  0.00000000000E+00  0.00000000000E+00  0.33755021192E+03  0.33755021192E+03  0.00000000000E+00 0. -1.
         -1   -1    0    0    0  501 -0.00000000000E+00 -0.00000000000E+00 -0.13178259926E+03  0.13178259926E+03  0.00000000000E+00 0.  1.
         23    2    1    2    0    0 -0.14892736768E+02  0.11768295521E+03  0.36737653170E+02  0.15416487727E+03  0.91356897208E+02 0.  0.
         23    2    1    2    0    0  0.43558856976E+02 -0.63681894659E+02  0.11633200778E+03  0.16734839486E+03  0.92301633244E+02 0.  0.
        -11    1    4    4    0    0  0.65981758634E+02 -0.17509266736E+02  0.75270492828E+02  0.10161601244E+03  0.00000000000E+00 0.  1.
         11    1    4    4    0    0 -0.22422901659E+02 -0.46172627922E+02  0.41061514948E+02  0.65732382414E+02  0.00000000000E+00 0. -1.
        -13    1    3    3    0    0 -0.29223741716E+02  0.10061983701E+03 -0.70697071036E+01  0.10501599610E+03  0.00000000000E+00 0.  1.
         13    1    3    3    0    0  0.14331004948E+02  0.17063118204E+02  0.43807360273E+02  0.49148881165E+02  0.00000000000E+00 0. -1.
         21    1    1    2  502  503  0.39097994520E+00 -0.31970607695E+02  0.90087340800E+02  0.95592895103E+02  0.00000000000E+00 0. -1.
         21    1    1    2  503  501 -0.29057100153E+02 -0.22030452856E+02 -0.37389389081E+02  0.52226643949E+02  0.00000000000E+00 0.  1.
<scales pt_clust_5="13000.00000" pt_clust_6="13000.00000" pt_clust_7="13000.00000" pt_clust_8="13000.00000" pt_clust_9="31.97300" pt_clust_10="37.04877"></scales>
<clustering>
<clus scale="   31.973">  1  9  2 -1</clus>
<clus scale="   37.049">  2 10  1 -1</clus>
<clus scale="   91.357">  7  8 -1 -1</clus>
<clus scale="   92.302">  5  6 -1 -1</clus>
<clus scale="  133.023">  2  7  1 -1</clus>
<clus scale="   31.973">  1  5  2 -1</clus>
</clustering>
</event>
<event>
10    2  0.2445576E-006  0.1314222E+03  0.7546771E-02  0.1236055E+00
          2   -1    0    0  502    0  0.00000000000E+00  0.00000000000E+00  0.18125194107E+03  0.18125194107E+03  0.00000000000E+00 0. -1.
         -2   -1    0    0    0  501 -0.00000000000E+00 -0.00000000000E+00 -0.27144296671E+03  0.27144296671E+03  0.00000000000E+00 0.  1.
         23    2    1    2    0    0 -0.64624218110E+02 -0.30676014639E+02 -0.62361387373E+02  0.13243495592E+03  0.92372980216E+02 0.  0.
         23    2    1    2    0    0  0.19452406261E+02 -0.54519145440E+02  0.80629751246E+02  0.13352791994E+03  0.89318616703E+02 0.  0.
        -11    1    4    4    0    0 -0.29787252536E+01 -0.71708367987E+02  0.34985076415E+02  0.79843086208E+02  0.00000000000E+00 0.  1.
         11    1    4    4    0    0  0.22431131514E+02  0.17189222547E+02  0.45644674831E+02  0.53684833735E+02  0.00000000000E+00 0. -1.
        -11    1    3    3    0    0 -0.19930095028E+02 -0.59581982553E+02 -0.41336461835E+02  0.75205880154E+02  0.00000000000E+00 0.  1.
         11    1    3    3    0    0 -0.44694123082E+02  0.28905967914E+02 -0.21024925538E+02  0.57229075766E+02  0.00000000000E+00 0. -1.
         21    1    1    2  502  503 -0.22874807417E+02 -0.19490280004E+01  0.96893350686E+01  0.24918642391E+02  0.00000000000E+00 0.  1.
         21    1    1    2  503  501  0.68046619267E+02  0.87144188080E+02 -0.11814872459E+03  0.16181338953E+03  0.00000000000E+00 0. -1.
<scales pt_clust_5="13000.00000" pt_clust_6="13000.00000" pt_clust_7="13000.00000" pt_clust_8="13000.00000" pt_clust_9="22.95769" pt_clust_10="93.48276"></scales>
<clustering>
<clus scale="   22.958">  1  9  2 -1</clus>
<clus scale="   89.319">  5  6 -1 -1</clus>
<clus scale="   92.373">  7  8 -1 -1</clus>
<clus scale="  105.408">  1  5  2 -1</clus>
<clus scale="   93.483">  2 10  1 -1</clus>
<clus scale="   22.958">  1  5  2 -1</clus>
</clustering>
</event>
<event>
10    2  0.2445576E-006  0.3120148E+03  0.7546771E-02  0.1079395E+00
          1   -1    0    0  502    0  0.00000000000E+00  0.00000000000E+00  0.10014389054E+04  0.10014389054E+04  0.00000000000E+00 0. -1.
         -1   -1    0    0    0  501 -0.00000000000E+00 -0.00000000000E+00 -0.11790958514E+03  0.11790958514E+03  0.00000000000E+00 0.  1.
         23    2    1    2    0    0 -0.30904266622E+03 -0.82821850619E+02  0.34589391271E+03  0.47978649360E+03  0.90474593717E+02 0.  0.
         23    2    1    2    0    0  0.26461333934E+03  0.86767122403E+02  0.46823430996E+03  0.55230053451E+03  0.90795145845E+02 0.  0.
        -11    1    3    3    0    0 -0.11203891418E+03 -0.37087950353E+02  0.19312127355E+03  0.22632733076E+03  0.00000000000E+00 0. -1.
         11    1    3    3    0    0 -0.19700375204E+03 -0.45733900266E+02  0.15277263915E+03  0.25345916284E+03  0.00000000000E+00 0.  1.
        -13    1    4    4    0    0  0.42371838632E+02  0.30790125419E+02  0.37592873560E+02  0.64471921600E+02  0.00000000000E+00 0.  1.
         13    1    4    4    0    0  0.22224150071E+03  0.55976996984E+02  0.43064143640E+03  0.48782861291E+03  0.00000000000E+00 0. -1.
         21    1    1    2  502  503  0.21736720324E+02  0.93091417835E+00  0.56858135910E+02  0.60878561340E+02  0.00000000000E+00 0.  1.
         21    1    1    2  503  501  0.22692606560E+02 -0.48761859629E+01  0.12542961694E+02  0.26382901093E+02  0.00000000000E+00 0.  1.
<scales pt_clust_5="13000.00000" pt_clust_6="13000.00000" pt_clust_7="13000.00000" pt_clust_8="13000.00000" pt_clust_9="21.75665" pt_clust_10="23.64564"></scales>
<clustering>
<clus scale="   21.757">  1  9  2 -1</clus>
<clus scale="   23.646">  2 10  1 -1</clus>
<clus scale="   90.475">  5  6 -1 -1</clus>
<clus scale="   90.795">  7  8 -1 -1</clus>
<clus scale="  311.922">  2  5  1 -1</clus>
<clus scale="   21.757">  1  5  2 -1</clus>
</clustering>
</event>
<event>
10    2  0.2445576E-006  0.1582409E+03  0.7546771E-02  0.1190983E+00
          2   -1    0    0  502    0  0.00000000000E+00  0.00000000000E+00  0.23538057553E+03  0.23538057553E+03  0.00000000000E+00 0. -1.
         -2   -1    0    0    0  501 -0.00000000000E+00 -0.00000000000E+00 -0.28966973331E+03  0.28966973331E+03  0.00000000000E+00 0.  1.
         23    2    1    2    0    0 -0.90132624525E+02  0.11180648113E+03  0.12532918540E+02  0.17077949109E+03  0.91564083049E+02 0.  0.
         23    2    1    2    0    0  0.93069286397E+02 -0.64253315881E+02  0.71466126558E+02  0.16114521023E+03  0.89833127870E+02 0.  0.
        -11    1    3    3    0    0  0.98344096752E+01  0.53723171324E+02  0.65715885649E+01  0.55009822096E+02  0.00000000000E+00 0. -1.
         11    1    3    3    0    0 -0.99967034200E+02  0.58083309808E+02  0.59613299755E+01  0.11576966900E+03  0.00000000000E+00 0.  1.
        -13    1    4    4    0    0  0.10696151192E+03 -0.38596574763E+02  0.46901586599E+02  0.12300495698E+03  0.00000000000E+00 0. -1.
         13    1    4    4    0    0 -0.13892225523E+02 -0.25656741118E+02  0.24564539958E+02  0.38140253252E+02  0.00000000000E+00 0.  1.
         21    1    1    2  502  503  0.32586917274E+02 -0.13570290550E+02  0.10173394174E+02  0.36736329594E+02  0.00000000000E+00 0. -1.
         21    1    1    2  503  501 -0.35523579146E+02 -0.33982874701E+02 -0.14846159705E+03  0.15638927792E+03  0.00000000000E+00 0.  1.
<scales pt_clust_5="13000.00000" pt_clust_6="13000.00000" pt_clust_7="13000.00000" pt_clust_8="13000.00000" pt_clust_9="35.29957" pt_clust_10="48.89932"></scales>
<clustering>
<clus scale="   35.300">  1  9  2 -1</clus>
<clus scale="   48.899">  2 10  1 -1</clus>
<clus scale="   89.833">  7  8 -1 -1</clus>
<clus scale="   91.564">  5  6 -1 -1</clus>
<clus scale="  157.246">  1  7  2 -1</clus>
<clus scale="   35.300">  1  5  2 -1</clus>
</clustering>
</event>
<event>
10    2  0.2445576E-006  0.1578253E+03  0.7546771E-02  0.1191579E+00
         -2   -1    0    0    0  501 -0.00000000000E+00  0.00000000000E+00  0.46262178893E+02  0.46262178893E+02  0.00000000000E+00 0.  1.
          2   -1    0    0  502    0  0.00000000000E+00 -0.00000000000E+00 -0.10008520659E+04  0.10008520659E+04  0.00000000000E+00 0. -1.
         23    2    1    2    0    0 -0.28371231338E+02 -0.11396049918E+03 -0.37170291122E+03  0.40093049199E+03  0.93756509385E+02 0.  0.
         23    2    1    2    0    0  0.69114191585E+02  0.12585862234E+03 -0.38540953549E+03  0.42131661033E+03  0.91378399010E+02 0.  0.
        -11    1    3    3    0    0  0.31416883929E+02 -0.41265307010E+02 -0.18069843266E+03  0.18799406832E+03  0.00000000000E+00 0.  1.
         11    1    3    3    0    0 -0.59788115268E+02 -0.72695192174E+02 -0.19100447856E+03  0.21293642366E+03  0.00000000000E+00 0. -1.
        -11    1    4    4    0    0  0.88764832774E+02  0.87016775505E+02 -0.31369354089E+03  0.33742369856E+03  0.00000000000E+00 0.  1.
         11    1    4    4    0    0 -0.19650641189E+02  0.38841846831E+02 -0.71715994595E+02  0.83892911770E+02  0.00000000000E+00 0. -1.
         21    1    1    2  502  503 -0.36956795009E+02 -0.48556137043E+02 -0.16435388437E+03  0.17531600739E+03  0.00000000000E+00 0. -1.
         21    1    1    2  503  501 -0.37861652377E+01  0.36658013891E+02 -0.33123555922E+02  0.49551135068E+02  0.00000000000E+00 0. -1.
<scales pt_clust_5="13000.00000" pt_clust_6="13000.00000" pt_clust_7="13000.00000" pt_clust_8="13000.00000" pt_clust_9="57.26407" pt_clust_10="36.85302"></scales>
<clustering>
<clus scale="   36.853">  1 10  2 -1</clus>
<clus scale="   57.264">  2  9  1 -1</clus>
<clus scale="   91.378">  7  8 -1 -1</clus>
<clus scale="   93.757">  5  6 -1 -1</clus>
<clus scale="  156.424">  2  7  1 -1</clus>
<clus scale="   57.264">  2  5  1 -1</clus>
</clustering>
</event>
<event>
10    2  0.2445576E-006  0.1236170E+03  0.7546771E-02  0.1237636E+00
         -1   -1    0    0    0  501 -0.00000000000E+00  0.00000000000E+00  0.57220887160E+02  0.57220887160E+02  0.00000000000E+00 0.  1.
          1   -1    0    0  502    0  0.00000000000E+00 -0.00000000000E+00 -0.57592938900E+03  0.57592938900E+03  0.00000000000E+00 0. -1.
         23    2    1    2    0    0  0.61796365940E+02  0.13874762330E+01 -0.10347082900E+03  0.15192530503E+03  0.92489836859E+02 0.  0.
         23    2    1    2    0    0 -0.83561470949E+02  0.65297333841E+02 -0.27316391023E+03  0.30688489881E+03  0.91178714779E+02 0.  0.
        -13    1    3    3    0    0  0.26688282116E+02 -0.17692532092E+02 -0.10711800669E+03  0.11180141972E+03  0.00000000000E+00 0. -1.
         13    1    3    3    0    0  0.35108083824E+02  0.19080008325E+02  0.36471776926E+01  0.40123885313E+02  0.00000000000E+00 0.  1.
        -13    1    4    4    0    0 -0.10319231120E+03  0.48699237857E+02 -0.22582309509E+03  0.25301450380E+03  0.00000000000E+00 0. -1.
         13    1    4    4    0    0  0.19630840255E+02  0.16598095984E+02 -0.47340815147E+02  0.53870395007E+02  0.00000000000E+00 0.  1.
         21    1    1    2  502  503 -0.56099886400E+00 -0.21596465446E+02 -0.11537822242E+03  0.11738337296E+03  0.00000000000E+00 0.  1.
         21    1    1    2  503  501  0.22326103873E+02 -0.45088344628E+02 -0.26695540190E+02  0.56956699355E+02  0.00000000000E+00 0.  1.
<scales pt_clust_5="13000.00000" pt_clust_6="13000.00000" pt_clust_7="13000.00000" pt_clust_8="13000.00000" pt_clust_9="21.60375" pt_clust_10="52.06009"></scales>
<clustering>
<clus scale="   21.604">  2  9  1 -1</clus>
<clus scale="   52.060">  1 10  2 -1</clus>
<clus scale="   91.179">  7  8 -1 -1</clus>
<clus scale="   92.490">  5  6 -1 -1</clus>
<clus scale="  122.639">  2  7  1 -1</clus>
<clus scale="   21.604">  2  5  1 -1</clus>
</clustering>
</event>
<event>
10    2  0.2445576E-006  0.2176074E+03  0.7546771E-02  0.1135832E+00
         -2   -1    0    0    0  501 -0.00000000000E+00  0.00000000000E+00  0.57727132525E+02  0.57727132525E+02  0.00000000000E+00 0.  1.
          2   -1    0    0  502    0  0.00000000000E+00 -0.00000000000E+00 -0.11416576964E+04  0.11416576964E+04  0.00000000000E+00 0. -1.
         23    2    1    2    0    0 -0.17436538421E+03 -0.92703527742E+02 -0.44335868639E+03  0.49340632870E+03  0.88801177557E+02 0.  0.
         23    2    1    2    0    0  0.17688762824E+03  0.96776993622E+02 -0.49460434066E+03  0.54177826732E+03  0.90748099782E+02 0.  0.
        -11    1    4    4    0    0  0.75886359843E+02  0.35881584020E+02 -0.32176782083E+03  0.33253685240E+03  0.00000000000E+00 0.  1.
         11    1    4    4    0    0  0.10100126839E+03  0.60895409602E+02 -0.17283651983E+03  0.20924141491E+03  0.00000000000E+00 0. -1.
        -11    1    3    3    0    0 -0.91138000564E+02 -0.76846218958E+02 -0.33676836068E+03  0.35724558118E+03  0.00000000000E+00 0.  1.
         11    1    3    3    0    0 -0.83227383649E+02 -0.15857308784E+02 -0.10659032571E+03  0.13616074752E+03  0.00000000000E+00 0. -1.
         21    1    1    2  502  503 -0.16669233804E+02 -0.19518091033E+02 -0.14012448214E+03  0.14245592205E+03  0.00000000000E+00 0.  1.
         21    1    1    2  503  501  0.14146989781E+02  0.15444625152E+02 -0.58430546591E+01  0.21744310835E+02  0.00000000000E+00 0.  1.
<scales pt_clust_5="13000.00000" pt_clust_6="13000.00000" pt_clust_7="13000.00000" pt_clust_8="13000.00000" pt_clust_9="25.17727" pt_clust_10="20.94454"></scales>
<clustering>
<clus scale="   20.945">  1 10  2 -1</clus>
<clus scale="   25.177">  2  9  1 -1</clus>
<clus scale="   88.801">  7  8 -1 -1</clus>
<clus scale="   90.748">  5  6 -1 -1</clus>
<clus scale="  216.803">  1  7  2 -1</clus>
<clus scale="   25.177">  2  5  1 -1</clus>
</clustering>
</event>
<event>
10    2  0.2445576E-006  0.9486975E+02  0.7546771E-02  0.1293539E+00
          2   -1    0    0  502    0  0.00000000000E+00  0.00000000000E+00  0.32070167467E+03  0.32070167467E+03  0.00000000000E+00 0. -1.
         -2   -1    0    0    0  501 -0.00000000000E+00 -0.00000000000E+00 -0.22394073469E+03  0.22394073469E+03  0.00000000000E+00 0.  1.
         23    2    1    2    0    0 -0.16092382722E+02  0.27450374120E+02 -0.46104609707E+02  0.10449360585E+03  0.88208790980E+02 0.  0.
         23    2    1    2    0    0 -0.79847126407E+01 -0.74738516922E+00  0.24149609413E+02  0.95379100841E+02  0.91922005101E+02 0.  0.
        -11    1    4    4    0    0 -0.41127124257E+02  0.12575662821E+02 -0.11907066149E+02  0.44624722625E+02  0.00000000000E+00 0.  1.
         11    1    4    4    0    0  0.33142411616E+02 -0.13323047990E+02  0.36056675562E+02  0.50754378216E+02  0.00000000000E+00 0. -1.
        -11    1    3    3    0    0 -0.49081028740E+02  0.18105361788E+02 -0.46810608964E+02  0.70199605549E+02  0.00000000000E+00 0. -1.
         11    1    3    3    0    0  0.32988646019E+02  0.93450123322E+01  0.70599925722E+00  0.34294000300E+02  0.00000000000E+00 0.  1.
         21    1    1    2  502  503  0.31128343840E+01 -0.43357855641E+02  0.22807507454E+03  0.23218060430E+03  0.00000000000E+00 0. -1.
         21    1    1    2  503  501  0.20964260979E+02  0.16654866691E+02 -0.10935913427E+03  0.11258909837E+03  0.00000000000E+00 0.  1.
<scales pt_clust_5="13000.00000" pt_clust_6="13000.00000" pt_clust_7="13000.00000" pt_clust_8="13000.00000" pt_clust_9="43.19673" pt_clust_10="26.77470"></scales>
<clustering>
<clus scale="   26.775">  2 10  1 -1</clus>
<clus scale="   43.197">  1  9  2 -1</clus>
<clus scale="   88.209">  7  8 -1 -1</clus>
<clus scale="   91.277">  2  7  1 -1</clus>
<clus scale="   91.922">  5  6 -1 -1</clus>
<clus scale="   43.197">  1  5  2 -1</clus>
</clustering>
</event>
<event>
10    2  0.2445576E-006  0.1834667E+03  0.7546771E-02  0.1195269E+00
         -2   -1    0    0    0  501 -0.00000000000E+00  0.00000000000E+00  0.23123592795E+03  0.23123592795E+03  0.00000000000E+00 0.  1.
          2   -1    0    0  502    0  0.00000000000E+00 -0.00000000000E+00 -0.60967214720E+03  0.60967214720E+03  0.00000000000E+00 0. -1.
         23    2    1    2    0    0 -0.41585590851E+02  0.16328142136E+03 -0.19456997951E+03  0.27303697163E+03  0.91112716032E+02 0.  0.
         23    2    1    2    0    0  0.12319884987E+02  0.67151613343E+00 -0.22614072079E+03  0.24397212961E+03  0.90722345257E+02 0.  0.
        -11    1    3    3    0    0 -0.19395022549E+02  0.18385578934E+02  0.31463277047E+01  0.26909028047E+02  0.00000000000E+00 0.  1.
         11    1    3    3    0    0 -0.22190568303E+02  0.14489584242E+03 -0.19771630722E+03  0.24612794358E+03  0.00000000000E+00 0. -1.
        -13    1    4    4    0    0  0.24642392951E+02  0.41183231618E+02 -0.10014020924E+03  0.11104669110E+03  0.00000000000E+00 0. -1.
         13    1    4    4    0    0 -0.12322507964E+02 -0.40511715485E+02 -0.12600051155E+03  0.13292543852E+03  0.00000000000E+00 0.  1.
         21    1    1    2  502  503  0.10710238962E+02 -0.15108432231E+03 -0.98923880487E+02  0.18090637301E+03  0.00000000000E+00 0.  1.
         21    1    1    2  503  501  0.18555466902E+02 -0.12868615183E+02  0.14119836154E+03  0.14299260089E+03  0.00000000000E+00 0.  1.
<scales pt_clust_5="13000.00000" pt_clust_6="13000.00000" pt_clust_7="13000.00000" pt_clust_8="13000.00000" pt_clust_9="159.24351" pt_clust_10="22.58111"></scales>
<clustering>
<clus scale="   22.581">  1 10  2 -1</clus>
<clus scale="   90.722">  7  8 -1 -1</clus>
<clus scale="   91.113">  5  6 -1 -1</clus>
<clus scale="   91.825">  2  7  1 -1</clus>
<clus scale="  159.244">  1  9  2 -1</clus>
<clus scale="   91.825">  2  5  1 -1</clus>
</clustering>
</event>
<event>
10    2  0.2445576E-006  0.3160517E+03  0.7546771E-02  0.1077701E+00
          2   -1    0    0  502    0  0.00000000000E+00  0.00000000000E+00  0.71878888793E+03  0.71878888793E+03  0.00000000000E+00 0. -1.
         -2   -1    0    0    0  501 -0.00000000000E+00 -0.00000000000E+00 -0.17400646248E+03  0.17400646248E+03  0.00000000000E+00 0.  1.
         23    2    1    2    0    0  0.27097914163E+03  0.13166980128E+03  0.21335541808E+03  0.38022076790E+03  0.90998165653E+02 0.  0.
         23    2    1    2    0    0 -0.26920979889E+03 -0.14930327390E+03  0.24774239357E+03  0.40403014477E+03  0.84253669943E+02 0.  0.
        -11    1    3    3    0    0  0.24603232015E+03  0.11822962296E+03  0.22061158700E+03  0.35096954088E+03  0.00000000000E+00 0.  1.
         11    1    3    3    0    0  0.24946821477E+02  0.13440178322E+02 -0.72561689190E+01  0.29251227026E+02  0.00000000000E+00 0. -1.
        -11    1    4    4    0    0 -0.14558171913E+02 -0.37489923286E+02  0.41460227393E+02  0.57761450578E+02  0.00000000000E+00 0.  1.
         11    1    4    4    0    0 -0.25465162697E+03 -0.11181335061E+03  0.20628216617E+03  0.34626869419E+03  0.00000000000E+00 0. -1.
         21    1    1    2  502  503  0.15357001404E+02  0.30956957439E+02  0.79167189212E+02  0.86380637609E+02  0.00000000000E+00 0. -1.
         21    1    1    2  503  501 -0.17126344146E+02 -0.13323484823E+02  0.45174245908E+01  0.22163800138E+02  0.00000000000E+00 0. -1.
<scales pt_clust_5="13000.00000" pt_clust_6="13000.00000" pt_clust_7="13000.00000" pt_clust_8="13000.00000" pt_clust_9="34.13060" pt_clust_10="21.69855"></scales>
<clustering>
<clus scale="   21.699">  2 10  1 -1</clus>
<clus scale="   34.131">  1  9  2 -1</clus>
<clus scale="   84.254">  7  8 -1 -1</clus>
<clus scale="   90.998">  5  6 -1 -1</clus>
<clus scale="  314.176">  1  7  2 -1</clus>
<clus scale="   34.131">  1  5  2 -1</clus>
</clustering>
</event>
<event>
10    2  0.2445576E-006  0.1084767E+03  0.7546771E-02  0.1264265E+00
          1   -1    0    0  502    0  0.00000000000E+00  0.00000000000E+00  0.11445993938E+03  0.11445993938E+03  0.00000000000E+00 0. -1.
         -1   -1    0    0    0  501 -0.00000000000E+00 -0.00000000000E+00 -0.41187121966E+03  0.41187121966E+03  0.00000000000E+00 0.  1.
         23    2    1    2    0    0  0.53157535003E+02 -0.88039102504E+02 -0.12766134370E+03  0.18698692645E+03  0.89944899178E+02 0.  0.
         23    2    1    2    0    0 -0.54987862049E+02 -0.21771574812E+02 -0.85634769026E+02  0.13615318681E+03  0.87787870283E+02 0.  0.
        -11    1    4    4    0    0 -0.14008851921E+02 -0.52095759247E+02 -0.35028069278E+02  0.64320927395E+02  0.00000000000E+00 0.  1.
         11    1    4    4    0    0 -0.40979010128E+02  0.30324184434E+02 -0.50606699748E+02  0.71832259411E+02  0.00000000000E+00 0. -1.
        -11    1    3    3    0    0 -0.14076442213E+02 -0.16746958264E+02 -0.69882343629E+02  0.73226694501E+02  0.00000000000E+00 0.  1.
         11    1    3    3    0    0  0.67233977215E+02 -0.71292144241E+02 -0.57779000076E+02  0.11376023195E+03  0.00000000000E+00 0. -1.
         21    1    1    2  502  503  0.42938814816E+02  0.87765028725E+02  0.99337070916E+01  0.98209574999E+02  0.00000000000E+00 0. -1.
         21    1    1    2  503  501 -0.41108487770E+02  0.22045648592E+02 -0.94048874636E+02  0.10498147079E+03  0.00000000000E+00 0.  1.
<scales pt_clust_5="13000.00000" pt_clust_6="13000.00000" pt_clust_7="13000.00000" pt_clust_8="13000.00000" pt_clust_9="98.17253" pt_clust_10="46.64674"></scales>
<clustering>
<clus scale="   46.647">  2 10  1 -1</clus>
<clus scale="   87.788">  5  6 -1 -1</clus>
<clus scale="   89.945">  7  8 -1 -1</clus>
<clus scale="   98.173">  1  9  2 -1</clus>
<clus scale="  106.695">  1  5  2 -1</clus>
<clus scale="   98.173">  1  5  2 -1</clus>
</clustering>
</event>
<event>
10    2  0.2445576E-006  0.2230658E+03  0.7546771E-02  0.1131858E+00
         -1   -1    0    0    0  501 -0.00000000000E+00  0.00000000000E+00  0.18827448325E+03  0.18827448325E+03  0.00000000000E+00 0.  1.
          1   -1    0    0  502    0  0.00000000000E+00 -0.00000000000E+00 -0.62559780503E+03  0.62559780503E+03  0.00000000000E+00 0. -1.
         23    2    1    2    0    0 -0.14658025052E+03 -0.10731434836E+03  0.76178498233E+02  0.21652738066E+03  0.89882166070E+02 0.  0.
         23    2    1    2    0    0  0.17028573989E+03  0.13405935388E+03 -0.42622173225E+03  0.48712818243E+03  0.93057818099E+02 0.  0.
        -11    1    4    4    0    0  0.12182451107E+03  0.12426581507E+03 -0.38592542815E+03  0.42334576931E+03  0.00000000000E+00 0. -1.
         11    1    4    4    0    0  0.48461228818E+02  0.97935388053E+01 -0.40296304095E+02  0.63782413129E+02  0.00000000000E+00 0.  1.
        -13    1    3    3    0    0 -0.70965225142E+02 -0.61127500361E+02 -0.83958391381E+01  0.94037889144E+02  0.00000000000E+00 0. -1.
         13    1    3    3    0    0 -0.75615025377E+02 -0.46186848002E+02  0.84574337371E+02  0.12248949152E+03  0.00000000000E+00 0.  1.
         21    1    1    2  502  503  0.10391131231E+01 -0.21747202187E+02 -0.81447692326E+02  0.84307456042E+02  0.00000000000E+00 0. -1.
         21    1    1    2  503  501 -0.24744602494E+02 -0.49978033293E+01 -0.58323954421E+01  0.25909269138E+02  0.00000000000E+00 0. -1.
<scales pt_clust_5="13000.00000" pt_clust_6="13000.00000" pt_clust_7="13000.00000" pt_clust_8="13000.00000" pt_clust_9="21.77201" pt_clust_10="25.34821"></scales>
<clustering>
<clus scale="   21.772">  2  9  1 -1</clus>
<clus scale="   25.348">  1 10  2 -1</clus>
<clus scale="   89.882">  7  8 -1 -1</clus>
<clus scale="   93.058">  5  6 -1 -1</clus>
<clus scale="  221.760">  1  7  2 -1</clus>
<clus scale="   21.772">  2  5  1 -1</clus>
</clustering>
</event>
<event>
10    2  0.2445576E-006  0.1092638E+03  0.7546771E-02  0.1262983E+00
         -1   -1    0    0    0  501 -0.00000000000E+00  0.00000000000E+00  0.80697691567E+02  0.80697691567E+02  0.00000000000E+00 0.  1.
          1   -1    0    0  502    0  0.00000000000E+00 -0.00000000000E+00 -0.64518211213E+03  0.64518211213E+03  0.00000000000E+00 0. -1.
         23    2    1    2    0    0  0.17350490792E+02 -0.47177609442E+02 -0.99336797393E+02  0.14464888187E+03  0.92351141553E+02 0.  0.
         23    2    1    2    0    0 -0.71930228934E+02  0.20909430147E+02 -0.20915923259E+03  0.23960269683E+03  0.89725724557E+02 0.  0.
        -11    1    3    3    0    0 -0.26270757990E+02 -0.30638624241E+02 -0.66770556284E+01  0.40907958793E+02  0.00000000000E+00 0.  1.
         11    1    3    3    0    0  0.43621248782E+02 -0.16538985201E+02 -0.92659741764E+02  0.10374092308E+03  0.00000000000E+00 0. -1.
        -11    1    4    4    0    0 -0.88084366142E+02  0.76490375557E+01 -0.12645854179E+03  0.15430206131E+03  0.00000000000E+00 0.  1.
         11    1    4    4    0    0  0.16154137209E+02  0.13260392592E+02 -0.82700690800E+02  0.85300635516E+02  0.00000000000E+00 0. -1.
         21    1    1    2  502  503  0.37151846557E+02  0.45385893884E+02 -0.29169610850E+03  0.29753446654E+03  0.00000000000E+00 0. -1.
         21    1    1    2  503  501  0.17427891584E+02 -0.19117714589E+02  0.35707717916E+02  0.44093758458E+02  0.00000000000E+00 0.  1.
<scales pt_clust_5="13000.00000" pt_clust_6="13000.00000" pt_clust_7="13000.00000" pt_clust_8="13000.00000" pt_clust_9="58.41279" pt_clust_10="25.86926"></scales>
<clustering>
<clus scale="   25.869">  1 10  2 -1</clus>
<clus scale="   58.413">  2  9  1 -1</clus>
<clus scale="   89.726">  7  8 -1 -1</clus>
<clus scale="   92.351">  5  6 -1 -1</clus>
<clus scale="  107.054">  2  7  1 -1</clus>
<clus scale="   58.413">  2  5  1 -1</clus>
</clustering>
</event>
<event>
10    2  0.2445576E-006  0.1028481E+03  0.7546771E-02  0.1275850E+00
         -2   -1    0    0    0  501 -0.00000000000E+00  0.00000000000E+00  0.19146295880E+03  0.19146295880E+03  0.00000000000E+00 0.  1.
          2   -1    0    0  502    0  0.00000000000E+00 -0.00000000000E+00 -0.22606724839E+03  0.22606724839E+03  0.00000000000E+00 0. -1.
         23    2    1    2    0    0 -0.17723011696E+02  0.44322237861E+02  0.39921078167E+02  0.10955245122E+03  0.90163635540E+02 0.  0.
         23    2    1    2    0    0  0.21856466582E+02 -0.12327468883E+02 -0.23097170739E+02  0.99287030129E+02  0.93245715372E+02 0.  0.
        -13    1    4    4    0    0  0.51034241364E+01 -0.46551908857E+02  0.11054195506E+02  0.48117776283E+02  0.00000000000E+00 0.  1.
         13    1    4    4    0    0  0.16753042446E+02  0.34224439975E+02 -0.34151366244E+02  0.51169253846E+02  0.00000000000E+00 0. -1.
        -13    1    3    3    0    0 -0.32111020484E+02  0.66307099206E+02  0.38772272041E+02  0.83252856532E+02  0.00000000000E+00 0.  1.
         13    1    3    3    0    0  0.14388008788E+02 -0.21984861344E+02  0.11488061256E+01  0.26299594688E+02  0.00000000000E+00 0. -1.
         21    1    1    2  502  503  0.50983274202E+02 -0.35210534625E+02 -0.11121559386E+03  0.12731058210E+03  0.00000000000E+00 0. -1.
         21    1    1    2  503  501 -0.55116729088E+02  0.32157656465E+01  0.59787396846E+02  0.81380143743E+02  0.00000000000E+00 0.  1.
<scales pt_clust_5="13000.00000" pt_clust_6="13000.00000" pt_clust_7="13000.00000" pt_clust_8="13000.00000" pt_clust_9="58.85028" pt_clust_10="55.21046"></scales>
<clustering>
<clus scale="   55.210">  1 10  2 -1</clus>
<clus scale="   58.850">  2  9  1 -1</clus>
<clus scale="   90.164">  7  8 -1 -1</clus>
<clus scale="   93.246">  5  6 -1 -1</clus>
<clus scale="  100.062">  1  7  2 -1</clus>
<clus scale="   58.850">  2  5  1 -1</clus>
</clustering>
</event>
<event>
10    2  0.2445576E-006  0.1163544E+03  0.7546771E-02  0.1250827E+00
          2   -1    0    0  502    0  0.00000000000E+00  0.00000000000E+00  0.17733773640E+03  0.17733773640E+03  0.00000000000E+00 0. -1.
         -2   -1    0    0    0  501 -0.00000000000E+00 -0.00000000000E+00 -0.45275863454E+03  0.45275863454E+03  0.00000000000E+00 0.  1.
         23    2    1    2    0    0 -0.92201308198E+01 -0.69137624271E+02 -0.83759696301E+02  0.14321336322E+03  0.92894342008E+02 0.  0.
         23    2    1    2    0    0  0.87731874696E+02  0.67335668074E+02  0.41578414930E+02  0.14749519713E+03  0.88289832680E+02 0.  0.
        -13    1    3    3    0    0  0.28487415917E+02  0.67626862872E+01 -0.10241255841E+02  0.31018544657E+02  0.00000000000E+00 0.  1.
         13    1    3    3    0    0 -0.37707546737E+02 -0.75900310558E+02 -0.73518440461E+02  0.11219481856E+03  0.00000000000E+00 0. -1.
        -13    1    4    4    0    0  0.73251914393E+02  0.86355762212E+02  0.19404862187E+02  0.11488998784E+03  0.00000000000E+00 0.  1.
         13    1    4    4    0    0  0.14479960303E+02 -0.19020094137E+02  0.22173552743E+02  0.32605209287E+02  0.00000000000E+00 0. -1.
         21    1    1    2  502  503 -0.25416135547E+02 -0.50332241493E+02  0.31363164752E+02  0.64521024350E+02  0.00000000000E+00 0. -1.
         21    1    1    2  503  501 -0.53095608329E+02  0.52134197690E+02 -0.26460278152E+03  0.27486678624E+03  0.00000000000E+00 0.  1.
<scales pt_clust_5="13000.00000" pt_clust_6="13000.00000" pt_clust_7="13000.00000" pt_clust_8="13000.00000" pt_clust_9="56.38541" pt_clust_10="73.76326"></scales>
<clustering>
<clus scale="   56.385">  1  9  2 -1</clus>
<clus scale="   73.763">  2 10  1 -1</clus>
<clus scale="   88.290">  7  8 -1 -1</clus>
<clus scale="   92.894">  5  6 -1 -1</clus>
<clus scale="  112.712">  1  7  2 -1</clus>
<clus scale="   56.385">  1  5  2 -1</clus>
</clustering>
</event>
<event>
10    2  0.2445576E-006  0.1213481E+03  0.7546771E-02  0.1241117E+00
         -2   -1    0    0    0  501 -0.00000000000E+00  0.00000000000E+00  0.23281492865E+03  0.23281492865E+03  0.00000000000E+00 0.  1.
          2   -1    0    0  502    0  0.00000000000E+00 -0.00000000000E+00 -0.99338414628E+03  0.99338414628E+03  0.00000000000E+00 0. -1.
         23    2    1    2    0    0 -0.47898368494E+02  0.55529679296E+02  0.17076091524E+03  0.20801464538E+03  0.93450540569E+02 0.  0.
         23    2    1    2    0    0  0.52940338998E+02 -0.12429825139E+03 -0.81945627963E+03  0.83584078276E+03  0.94172634618E+02 0.  0.
        -13    1    4    4    0    0 -0.24031392594E+02 -0.25454119476E+02 -0.11087410020E+03  0.11626902478E+03  0.00000000000E+00 0.  1.
         13    1    4    4    0    0  0.76971731592E+02 -0.98844131918E+02 -0.70858217943E+03  0.71957175798E+03  0.00000000000E+00 0. -1.
        -13    1    3    3    0    0  0.87226930317E+01  0.24736827291E+02  0.79853113415E+00  0.26241830160E+02  0.00000000000E+00 0. -1.
         13    1    3    3    0    0 -0.56621061526E+02  0.30792852004E+02  0.16996238410E+03  0.18177281522E+03  0.00000000000E+00 0.  1.
         21    1    1    2  502  503 -0.22935380217E+02  0.55324405510E+02 -0.13650356007E+03  0.14906389041E+03  0.00000000000E+00 0.  1.
         21    1    1    2  503  501  0.17893409713E+02  0.13444166588E+02  0.24629706833E+02  0.33279756386E+02  0.00000000000E+00 0. -1.
<scales pt_clust_5="13000.00000" pt_clust_6="13000.00000" pt_clust_7="13000.00000" pt_clust_8="13000.00000" pt_clust_9="60.06528" pt_clust_10="22.38124"></scales>
<clustering>
<clus scale="   22.381">  1 10  2 -1</clus>
<clus scale="   60.065">  2  9  1 -1</clus>
<clus scale="   93.451">  7  8 -1 -1</clus>
<clus scale="   94.173">  5  6 -1 -1</clus>
<clus scale="  120.789">  1  7  2 -1</clus>
<clus scale="   60.065">  2  5  1 -1</clus>
</clustering>
</event>
<event>
10    2  0.2445576E-006  0.1018690E+03  0.7546771E-02  0.1278003E+00
         -2   -1    0    0    0  501 -0.00000000000E+00  0.00000000000E+00  0.11150362765E+03  0.11150362765E+03  0.00000000000E+00 0.  1.
          2   -1    0    0  502    0  0.00000000000E+00 -0.00000000000E+00 -0.38857017617E+03  0.38857017617E+03  0.00000000000E+00 0. -1.
         23    2    1    2    0    0 -0.62124138787E+02 -0.24847267137E+02  0.43494771164E+01  0.11472637213E+03  0.93093647505E+02 0.  0.
         23    2    1    2    0    0  0.75918693527E+01 -0.52772895399E+02 -0.18984459632E+03  0.21665286553E+03  0.89748974474E+02 0.  0.
        -11    1    3    3    0    0 -0.29267686852E+02  0.24809781199E+02  0.31158397389E+02  0.49426394412E+02  0.00000000000E+00 0.  1.
         11    1    3    3    0    0 -0.32856451935E+02 -0.49657048336E+02 -0.26808920272E+02  0.65299977713E+02  0.00000000000E+00 0. -1.
        -13    1    4    4    0    0  0.56044567177E+01  0.24796218933E+02 -0.63283877908E+02  0.68199058729E+02  0.00000000000E+00 0.  1.
         13    1    4    4    0    0  0.19874126351E+01 -0.77569114332E+02 -0.12656071842E+03  0.14845380680E+03  0.00000000000E+00 0. -1.
         21    1    1    2  502  503  0.18725400995E+02  0.13709901010E+02 -0.92565408805E+02  0.95430377425E+02  0.00000000000E+00 0.  1.
         21    1    1    2  503  501  0.35806868439E+02  0.63910261526E+02  0.99397949319E+00  0.73264188735E+02  0.00000000000E+00 0.  1.
<scales pt_clust_5="13000.00000" pt_clust_6="13000.00000" pt_clust_7="13000.00000" pt_clust_8="13000.00000" pt_clust_9="23.20780" pt_clust_10="75.85661"></scales>
<clustering>
<clus scale="   23.208">  2  9  1 -1</clus>
<clus scale="   75.857">  1 10  2 -1</clus>
<clus scale="   89.749">  7  8 -1 -1</clus>
<clus scale="   93.094">  5  6 -1 -1</clus>
<clus scale="   98.822">  2  7  1 -1</clus>
<clus scale="   23.208">  2  5  1 -1</clus>
</clustering>
</event>
<event>
10    2  0.2445576E-006  0.3829027E+03  0.7546771E-02  0.1049909E+00
          1   -1    0    0  502    0  0.00000000000E+00  0.00000000000E+00  0.22257782097E+04  0.22257782097E+04  0.00000000000E+00 0. -1.
         -1   -1    0    0    0  501 -0.00000000000E+00 -0.00000000000E+00 -0.10433955852E+03  0.10433955852E+03  0.00000000000E+00 0.  1.
         23    2    1    2    0    0  0.29784396805E+03 -0.17121146071E+03  0.76620577862E+03  0.84441733486E+03  0.89134430106E+02 0.  0.
         23    2    1    2    0    0 -0.32832190806E+03  0.24040693704E+03  0.11252425146E+04  0.11997296166E+04  0.87118687064E+02 0.  0.
        -11    1    4    4    0    0 -0.60566486584E+02  0.82176011159E+01  0.14346974163E+03  0.15594676985E+03  0.00000000000E+00 0.  1.
         11    1    4    4    0    0 -0.26775542147E+03  0.23218933592E+03  0.98177277301E+03  0.10437828468E+04  0.00000000000E+00 0. -1.
        -13    1    3    3    0    0  0.85130841684E+02 -0.46226432703E+02  0.32248241389E+03  0.33671805796E+03  0.00000000000E+00 0.  1.
         13    1    3    3    0    0  0.21271312637E+03 -0.12498502801E+03  0.44372336473E+03  0.50769927689E+03  0.00000000000E+00 0. -1.
         21    1    1    2  502  503  0.29298872150E+02 -0.29496116703E+02  0.24115668814E+03  0.24471410471E+03  0.00000000000E+00 0.  1.
         21    1    1    2  503  501  0.11790678547E+01 -0.39699359624E+02 -0.11166330206E+02  0.41256712009E+02  0.00000000000E+00 0. -1.
<scales pt_clust_5="13000.00000" pt_clust_6="13000.00000" pt_clust_7="13000.00000" pt_clust_8="13000.00000" pt_clust_9="42.23924" pt_clust_10="39.71686"></scales>
<clustering>
<clus scale="   39.717">  2 10  1 -1</clus>
<clus scale="   42.239">  1  9  2 -1</clus>
<clus scale="   87.119">  5  6 -1 -1</clus>
<clus scale="   89.134">  7  8 -1 -1</clus>
<clus scale="  382.438">  1  5  2 -1</clus>
<clus scale="   42.239">  1  5  2 -1</clus>
</clustering>
</event>
<event>
10    2  0.2445576E-006  0.3884929E+03  0.7546771E-02  0.1047848E+00
         -1   -1    0    0    0  501 -0.00000000000E+00  0.00000000000E+00  0.10067697341E+04  0.10067697341E+04  0.00000000000E+00 0.  1.
          1   -1    0    0  502    0  0.00000000000E+00 -0.00000000000E+00 -0.45941950525E+03  0.45941950525E+03  0.00000000000E+00 0. -1.
         23    2    1    2    0    0 -0.67690073112E+02 -0.38223558451E+03  0.49058028042E+03  0.63244335891E+03  0.92895654557E+02 0.  0.
         23    2    1    2    0    0  0.14732484043E+03  0.41357001910E+03  0.56848807986E+02  0.45242095252E+03  0.93317533205E+02 0.  0.
        -11    1    3    3    0    0 -0.30389943813E+02 -0.30746775681E+02  0.77822844234E+02  0.89024198870E+02  0.00000000000E+00 0.  1.
         11    1    3    3    0    0 -0.37300129299E+02 -0.35148880883E+03  0.41275743619E+03  0.54341916004E+03  0.00000000000E+00 0. -1.
        -13    1    4    4    0    0  0.10405704427E+01  0.86332732981E+02 -0.12766224083E+02  0.87277717936E+02  0.00000000000E+00 0. -1.
         13    1    4    4    0    0  0.14628426999E+03  0.32723728612E+03  0.69615032069E+02  0.36514323458E+03  0.00000000000E+00 0.  1.
         21    1    1    2  502  503 -0.55629790255E+02 -0.87699175811E+02 -0.17082683261E+03  0.19991904797E+03  0.00000000000E+00 0. -1.
         21    1    1    2  503  501 -0.24004977063E+02  0.56364741218E+02  0.17074797305E+03  0.18140587994E+03  0.00000000000E+00 0. -1.
<scales pt_clust_5="13000.00000" pt_clust_6="13000.00000" pt_clust_7="13000.00000" pt_clust_8="13000.00000" pt_clust_9="103.25028" pt_clust_10="61.26355"></scales>
<clustering>
<clus scale="   61.264">  1 10  2 -1</clus>
<clus scale="   92.896">  5  6 -1 -1</clus>
<clus scale="   93.318">  7  8 -1 -1</clus>
<clus scale="  103.250">  2  9  1 -1</clus>
<clus scale="  388.392">  1  5  2 -1</clus>
<clus scale="  103.250">  2  5  1 -1</clus>
</clustering>
</event>
<event>
10    2  0.2445576E-006  0.1188498E+03  0.7546771E-02  0.1246938E+00
         -3   -1    0    0    0  501 -0.00000000000E+00  0.00000000000E+00  0.24576628419E+03  0.24576628419E+03  0.00000000000E+00 0.  1.
          3   -1    0    0  502    0  0.00000000000E+00 -0.00000000000E+00 -0.52011669847E+03  0.52011669847E+03  0.00000000000E+00 0. -1.
         23    2    1    2    0    0  0.10089696586E+03 -0.61518432969E+02  0.10517079505E+03  0.18356777774E+03  0.93120983568E+02 0.  0.
         23    2    1    2    0    0 -0.40308479401E+02  0.62163128235E+01  0.53822961683E+02  0.11034540070E+03  0.87268437567E+02 0.  0.
        -11    1    3    3    0    0  0.16145467629E+02  0.19878430639E+02  0.44446634529E+02  0.51296505247E+02  0.00000000000E+00 0. -1.
         11    1    3    3    0    0  0.84751498228E+02 -0.81396863607E+02  0.60724160516E+02  0.13227127249E+03  0.00000000000E+00 0.  1.
        -11    1    4    4    0    0  0.24400304188E+02 -0.77060311560E+01  0.31300921908E+02  0.40429017710E+02  0.00000000000E+00 0.  1.
         11    1    4    4    0    0 -0.64708783589E+02  0.13922343979E+02  0.22522039775E+02  0.69916382994E+02  0.00000000000E+00 0. -1.
         21    1    1    2  502  503 -0.47771009324E+02  0.30097470324E+02 -0.43943272935E+03  0.44304520162E+03  0.00000000000E+00 0. -1.
         21    1    1    2  503  501 -0.12817477132E+02  0.25204649821E+02  0.60885583412E+01  0.28924602595E+02  0.00000000000E+00 0.  1.
<scales pt_clust_5="13000.00000" pt_clust_6="13000.00000" pt_clust_7="13000.00000" pt_clust_8="13000.00000" pt_clust_9="56.65398" pt_clust_10="28.27653"></scales>
<clustering>
<clus scale="   28.277">  1 10  2 -1</clus>
<clus scale="   56.654">  2  9  1 -1</clus>
<clus scale="   87.268">  7  8 -1 -1</clus>
<clus scale="   93.121">  5  6 -1 -1</clus>
<clus scale="  114.322">  2  7  1 -1</clus>
<clus scale="   56.654">  2  5  1 -1</clus>
</clustering>
</event>
<event>
10    2  0.2445576E-006  0.1046304E+03  0.7546771E-02  0.1271776E+00
          1   -1    0    0  502    0  0.00000000000E+00  0.00000000000E+00  0.46914703846E+03  0.46914703846E+03  0.00000000000E+00 0. -1.
         -1   -1    0    0    0  501 -0.00000000000E+00 -0.00000000000E+00 -0.27066522993E+03  0.27066522993E+03  0.00000000000E+00 0.  1.
         23    2    1    2    0    0  0.19443386585E+02  0.76475948083E+02  0.14932318342E+03  0.19297012412E+03  0.93345807503E+02 0.  0.
         23    2    1    2    0    0 -0.61629839143E+02  0.11230512035E+02  0.23110838706E+03  0.25625065774E+03  0.91263089750E+02 0.  0.
        -11    1    3    3    0    0  0.23961751214E+02 -0.80600195462E+01  0.51810734088E+01  0.25806451867E+02  0.00000000000E+00 0.  1.
         11    1    3    3    0    0 -0.45183646291E+01  0.84535967629E+02  0.14414211001E+03  0.16716367225E+03  0.00000000000E+00 0. -1.
        -13    1    4    4    0    0 -0.21162235253E+02 -0.35235845731E+02  0.14260377074E+03  0.14840903091E+03  0.00000000000E+00 0.  1.
         13    1    4    4    0    0 -0.40467603890E+02  0.46466357766E+02  0.88504616315E+02  0.10784162683E+03  0.00000000000E+00 0. -1.
         21    1    1    2  502  503  0.25596139948E+02 -0.13693954222E+02  0.43740355392E+02  0.52496718491E+02  0.00000000000E+00 0. -1.
         21    1    1    2  503  501  0.16590312611E+02 -0.74012505897E+02 -0.22569011734E+03  0.23809476804E+03  0.00000000000E+00 0.  1.
<scales pt_clust_5="13000.00000" pt_clust_6="13000.00000" pt_clust_7="13000.00000" pt_clust_8="13000.00000" pt_clust_9="29.02907" pt_clust_10="76.12913"></scales>
<clustering>
<clus scale="   29.029">  1  9  2 -1</clus>
<clus scale="   76.129">  2 10  1 -1</clus>
<clus scale="   91.263">  7  8 -1 -1</clus>
<clus scale="   93.346">  5  6 -1 -1</clus>
<clus scale="  102.777">  1  7  2 -1</clus>
<clus scale="   29.029">  1  5  2 -1</clus>
</clustering>
</event>
<event>
10    2  0.2445576E-006  0.1131478E+03  0.7546771E-02  0.1255200E+00
          2   -1    0    0  502    0  0.00000000000E+00  0.00000000000E+00  0.19073957321E+03  0.19073957321E+03  0.00000000000E+00 0. -1.
         -2   -1    0    0    0  501 -0.00000000000E+00 -0.00000000000E+00 -0.58899299883E+03  0.58899299883E+03  0.00000000000E+00 0.  1.
         23    2    1    2    0    0  0.23142388241E+02  0.56340759354E+02 -0.36767521508E+03  0.38367229801E+03  0.91156553118E+02 0.  0.
         23    2    1    2    0    0 -0.44780833808E+02 -0.26521681617E+02 -0.95644442053E+02  0.14262784422E+03  0.92120138832E+02 0.  0.
        -11    1    3    3    0    0  0.17539611529E+02 -0.18404102391E+02 -0.38971617021E+02  0.46531020735E+02  0.00000000000E+00 0. -1.
         11    1    3    3    0    0  0.56027767121E+01  0.74744861745E+02 -0.32870359806E+03  0.33714127728E+03  0.00000000000E+00 0.  1.
        -13    1    4    4    0    0  0.28021316454E+02 -0.85595977947E-01 -0.30532546490E+02  0.41441982308E+02  0.00000000000E+00 0.  1.
         13    1    4    4    0    0 -0.72802150262E+02 -0.26436085639E+02 -0.65111895563E+02  0.10118586191E+03  0.00000000000E+00 0. -1.
         21    1    1    2  502  503 -0.14351361435E+02 -0.33719457826E+02  0.15353279573E+03  0.15784575628E+03  0.00000000000E+00 0. -1.
         21    1    1    2  503  501  0.35989807002E+02  0.39003800893E+01 -0.88466564214E+02  0.95586673531E+02  0.00000000000E+00 0.  1.
<scales pt_clust_5="13000.00000" pt_clust_6="13000.00000" pt_clust_7="13000.00000" pt_clust_8="13000.00000" pt_clust_9="36.56999" pt_clust_10="36.20054"></scales>
<clustering>
<clus scale="   36.201">  2 10  1 -1</clus>
<clus scale="   36.570">  1  9  2 -1</clus>
<clus scale="   91.157">  5  6 -1 -1</clus>
<clus scale="   92.120">  7  8 -1 -1</clus>
<clus scale="  112.365">  2  5  1 -1</clus>
<clus scale="   36.570">  1  5  2 -1</clus>
</clustering>
</event>
<event>
10    2  0.2445576E-006  0.9784249E+02  0.7546771E-02  0.1287240E+00
         -3   -1    0    0    0  501 -0.00000000000E+00  0.00000000000E+00  0.95530388843E+02  0.95530388843E+02  0.00000000000E+00 0.  1.
          3   -1    0    0  502    0  0.00000000000E+00 -0.00000000000E+00 -0.54653822842E+03  0.54653822842E+03  0.00000000000E+00 0. -1.
         23    2    1    2    0    0  0.21256003411E+02  0.23808448224E+01  0.35011629284E+02  0.99536838969E+02  0.90687827318E+02 0.  0.
         23    2    1    2    0    0 -0.33236459112E+02  0.14495670020E+02 -0.14613239490E+03  0.17805089610E+03  0.95040297244E+02 0.  0.
        -11    1    3    3    0    0 -0.33958807487E+01  0.25770609319E+02  0.54486867763E+02  0.60369487901E+02  0.00000000000E+00 0.  1.
         11    1    3    3    0    0  0.24651884160E+02 -0.23389764497E+02 -0.19475238480E+02  0.39167351068E+02  0.00000000000E+00 0. -1.
        -11    1    4    4    0    0  0.37091210836E+01 -0.34759570262E+02 -0.27819897304E+02  0.44675854664E+02  0.00000000000E+00 0.  1.
         11    1    4    4    0    0 -0.36945580196E+02  0.49255240281E+02 -0.11831249760E+03  0.13337504144E+03  0.00000000000E+00 0. -1.
         21    1    1    2  502  503  0.76534287092E+01  0.43215319142E+02 -0.26381748193E+03  0.26744308282E+03  0.00000000000E+00 0.  1.
         21    1    1    2  503  501  0.43270269923E+01 -0.60091833984E+02 -0.76069592031E+02  0.97037799367E+02  0.00000000000E+00 0. -1.
<scales pt_clust_5="13000.00000" pt_clust_6="13000.00000" pt_clust_7="13000.00000" pt_clust_8="13000.00000" pt_clust_9="43.88780" pt_clust_10="47.25158"></scales>
<clustering>
<clus scale="   43.888">  2  9  1 -1</clus>
<clus scale="   47.252">  2 10  1 -1</clus>
<clus scale="   90.688">  5  6 -1 -1</clus>
<clus scale="   93.620">  1  5  2 -1</clus>
<clus scale="   95.040">  7  8 -1 -1</clus>
<clus scale="   43.888">  2  5  1 -1</clus>
</clustering>
</event>
<event>
10    2  0.2445576E-006  0.2834409E+03  0.7546771E-02  0.1093826E+00
         -2   -1    0    0    0  501 -0.00000000000E+00  0.00000000000E+00  0.44007182337E+03  0.44007182337E+03  0.00000000000E+00 0.  1.
          2   -1    0    0  502    0  0.00000000000E+00 -0.00000000000E+00 -0.87832963601E+03  0.87832963601E+03  0.00000000000E+00 0. -1.
         23    2    1    2    0    0 -0.15757827861E+03  0.36474680761E+02  0.11276360592E+03  0.21705475063E+03  0.90751406199E+02 0.  0.
         23    2    1    2    0    0  0.28117643758E+03  0.36561822349E+02 -0.66150282205E+03  0.72540567828E+03  0.90721874975E+02 0.  0.
        -11    1    4    4    0    0  0.20410378942E+03  0.35573890192E+02 -0.56569753194E+03  0.60244298997E+03  0.00000000000E+00 0. -1.
         11    1    4    4    0    0  0.77072648156E+02  0.98793215706E+00 -0.95805290109E+02  0.12296268831E+03  0.00000000000E+00 0.  1.
        -13    1    3    3    0    0 -0.13137880418E+03  0.56471700365E+02  0.11572753921E+03  0.18396278554E+03  0.00000000000E+00 0.  1.
         13    1    3    3    0    0 -0.26199474424E+02 -0.19997019604E+02 -0.29639332965E+01  0.33091965093E+02  0.00000000000E+00 0. -1.
         21    1    1    2  502  503  0.78539377938E+01  0.38498708347E+02 -0.97901006575E+02  0.10549143080E+03  0.00000000000E+00 0. -1.
         21    1    1    2  503  501 -0.13145209676E+03 -0.11153521146E+03  0.20838241007E+03  0.27044959967E+03  0.00000000000E+00 0.  1.
<scales pt_clust_5="13000.00000" pt_clust_6="13000.00000" pt_clust_7="13000.00000" pt_clust_8="13000.00000" pt_clust_9="39.29166" pt_clust_10="171.16234"></scales>
<clustering>
<clus scale="   39.292">  2  9  1 -1</clus>
<clus scale="   90.722">  5  6 -1 -1</clus>
<clus scale="   90.751">  7  8 -1 -1</clus>
<clus scale="  171.162">  1 10  2 -1</clus>
<clus scale="  283.431">  2  5  1 -1</clus>
<clus scale="   39.292">  2  5  1 -1</clus>
</clustering>
</event>
<event>
10    2  0.7634748E-006  0.1802656E+03  0.7546771E-02  0.1167623E+00
         -2   -1    0    0    0  501 -0.00000000000E+00  0.00000000000E+00  0.71571886007E+03  0.71571886007E+03  0.00000000000E+00 0.  1.
          2   -1    0    0  502    0  0.00000000000E+00 -0.00000000000E+00 -0.86169160962E+03  0.86169160962E+03  0.00000000000E+00 0. -1.
         23    2    1    2    0    0 -0.23632113721E+02 -0.15153231912E+03  0.41375253757E+03  0.45054113655E+03  0.90970505342E+02 0.  0.
         23    2    1    2    0    0 -0.74338043016E+02  0.77330929801E+02 -0.70966630643E+03  0.72339058764E+03  0.90340790684E+02 0.  0.
        -11    1    3    3    0    0  0.32178870267E+02 -0.35873115229E+02  0.14242267027E+03  0.15035483728E+03  0.00000000000E+00 0.  1.
         11    1    3    3    0    0 -0.55810983988E+02 -0.11565920389E+03  0.27132986730E+03  0.30018629927E+03  0.00000000000E+00 0. -1.
        -11    1    4    4    0    0 -0.92105046343E+02  0.46776148455E+02 -0.57239441142E+03  0.58164139283E+03  0.00000000000E+00 0. -1.
         11    1    4    4    0    0  0.17767003327E+02  0.30554781346E+02 -0.13727189501E+03  0.14174919481E+03  0.00000000000E+00 0.  1.
         21    1    1    2  502  503  0.27104567043E+02  0.74242621898E+02 -0.10921239464E+03  0.13481087346E+03  0.00000000000E+00 0. -1.
         21    1    1    2  503  501  0.70865589694E+02 -0.41232575681E-01  0.25915341395E+03  0.26866787203E+03  0.00000000000E+00 0.  1.
<scales pt_clust_5="13000.00000" pt_clust_6="13000.00000" pt_clust_7="13000.00000" pt_clust_8="13000.00000" pt_clust_9="79.74527" pt_clust_10="70.86560"></scales>
<clustering>
<clus scale="   70.866">  1 10  2 -1</clus>
<clus scale="   79.745">  2  9  1 -1</clus>
<clus scale="   90.341">  7  8 -1 -1</clus>
<clus scale="   90.971">  5  6 -1 -1</clus>
<clus scale="  179.949">  2  7  1 -1</clus>
<clus scale="   79.745">  2  5  1 -1</clus>
</clustering>
</event>
<event>
10    2  0.2445576E-006  0.1209563E+03  0.7546771E-02  0.1242125E+00
          2   -1    0    0  502    0  0.00000000000E+00  0.00000000000E+00  0.11527793356E+04  0.11527793356E+04  0.00000000000E+00 0. -1.
         -2   -1    0    0    0  501 -0.00000000000E+00 -0.00000000000E+00 -0.36333139035E+02  0.36333139035E+02  0.00000000000E+00 0.  1.
         23    2    1    2    0    0 -0.47861854859E+02  0.33874395937E+02  0.27444134219E+03  0.29574993749E+03  0.93336720387E+02 0.  0.
         23    2    1    2    0    0  0.10901567751E+03 -0.40132992091E+02  0.50750783189E+03  0.52860324862E+03  0.91444628185E+02 0.  0.
        -11    1    3    3    0    0 -0.53670847316E+02 -0.17515027036E+02  0.17139719052E+03  0.18045590304E+03  0.00000000000E+00 0.  1.
         11    1    3    3    0    0  0.58089924562E+01  0.51389422973E+02  0.10304415167E+03  0.11529403445E+03  0.00000000000E+00 0. -1.
        -13    1    4    4    0    0  0.10677447555E+03 -0.15076198393E+01  0.41056568152E+03  0.42422545938E+03  0.00000000000E+00 0. -1.
         13    1    4    4    0    0  0.22412019660E+01 -0.38625372252E+02  0.96942150375E+02  0.10437778924E+03  0.00000000000E+00 0.  1.
         21    1    1    2  502  503 -0.55263942608E+02  0.36824090742E+02  0.32571556914E+03  0.33241652936E+03  0.00000000000E+00 0.  1.
         21    1    1    2  503  501 -0.58898800446E+01 -0.30565494588E+02  0.87814533210E+01  0.32342759140E+02  0.00000000000E+00 0.  1.
<scales pt_clust_5="13000.00000" pt_clust_6="13000.00000" pt_clust_7="13000.00000" pt_clust_8="13000.00000" pt_clust_9="64.88303" pt_clust_10="31.12780"></scales>
<clustering>
<clus scale="   31.128">  2 10  1 -1</clus>
<clus scale="   64.883">  1  9  2 -1</clus>
<clus scale="   91.445">  7  8 -1 -1</clus>
<clus scale="   93.337">  5  6 -1 -1</clus>
<clus scale="  119.502">  1  7  2 -1</clus>
<clus scale="   64.883">  1  5  2 -1</clus>
</clustering>
</event>
<event>
10    2  0.2445576E-006  0.1544513E+03  0.7546771E-02  0.1217051E+00
          1   -1    0    0  502    0  0.00000000000E+00  0.00000000000E+00  0.74859402343E+03  0.74859402343E+03  0.00000000000E+00 0. -1.
         -1   -1    0    0    0  501 -0.00000000000E+00 -0.00000000000E+00 -0.11785636460E+03  0.11785636460E+03  0.00000000000E+00 0.  1.
         23    2    1    2    0    0  0.10981337893E+03  0.84252978683E+02  0.82420046708E+02  0.19081581100E+03  0.10227446904E+03 0.  0.
         23    2    1    2    0    0  0.48863492046E+01 -0.35747294664E+02  0.32526611929E+03  0.34007502185E+03  0.92472842771E+02 0.  0.
        -11    1    4    4    0    0  0.39393823922E+02 -0.20847670254E+02  0.26729270243E+03  0.27098318673E+03  0.00000000000E+00 0.  1.
         11    1    4    4    0    0 -0.34507474718E+02 -0.14899624410E+02  0.57973416856E+02  0.69091835125E+02  0.00000000000E+00 0. -1.
        -13    1    3    3    0    0  0.27895861037E+02  0.21670511045E+02  0.80277967125E+02  0.87705998185E+02  0.00000000000E+00 0. -1.
         13    1    3    3    0    0  0.81917517891E+02  0.62582467638E+02  0.21420795834E+01  0.10310981281E+03  0.00000000000E+00 0.  1.
         21    1    1    2  502  503 -0.37213175907E+02  0.25469549187E+02  0.22393214608E+03  0.22842750370E+03  0.00000000000E+00 0. -1.
         21    1    1    2  503  501 -0.77486552226E+02 -0.73975233207E+02 -0.88065325286E+00  0.10713205148E+03  0.00000000000E+00 0. -1.
<scales pt_clust_5="13000.00000" pt_clust_6="13000.00000" pt_clust_7="13000.00000" pt_clust_8="13000.00000" pt_clust_9="45.09455" pt_clust_10="115.73731"></scales>
<clustering>
<clus scale="   45.095">  1  9  2 -1</clus>
<clus scale="   92.473">  5  6 -1 -1</clus>
<clus scale="   96.366">  1  5  2 -1</clus>
<clus scale="  102.274">  7  8 -1 -1</clus>
<clus scale="  115.737">  2 10  1 -1</clus>
<clus scale="   45.095">  1  5  2 -1</clus>
</clustering>
</event>
<event>
10    2  0.2445576E-006  0.1671037E+03  0.7546771E-02  0.1200406E+00
          3   -1    0    0  502    0  0.00000000000E+00  0.00000000000E+00  0.79947456825E+03  0.79947456825E+03  0.00000000000E+00 0. -1.
         -3   -1    0    0    0  501 -0.00000000000E+00 -0.00000000000E+00 -0.13820852361E+03  0.13820852361E+03  0.00000000000E+00 0.  1.
         23    2    1    2    0    0  0.28952888991E+02  0.54491768882E+02 -0.40676665219E+01  0.10733845147E+03  0.87734682969E+02 0.  0.
         23    2    1    2    0    0  0.14014350618E+03 -0.12583762022E+03  0.41862698846E+03  0.46769173377E+03  0.89508063188E+02 0.  0.
        -11    1    3    3    0    0 -0.10885532619E+01  0.33993212756E+02 -0.42495247698E+02  0.54429491442E+02  0.00000000000E+00 0.  1.
         11    1    3    3    0    0  0.30041442253E+02  0.20498556126E+02  0.38427581177E+02  0.52908960025E+02  0.00000000000E+00 0. -1.
        -13    1    4    4    0    0  0.14574470300E+02 -0.30565815439E+02  0.16979253950E+03  0.17313633567E+03  0.00000000000E+00 0.  1.
         13    1    4    4    0    0  0.12556903588E+03 -0.95271804784E+02  0.24883444896E+03  0.29455539810E+03  0.00000000000E+00 0. -1.
         21    1    1    2  502  503 -0.35573026513E+02  0.47032847359E+02  0.21545892344E+03  0.22338325057E+03  0.00000000000E+00 0. -1.
         21    1    1    2  503  501 -0.13352336866E+03  0.24313003982E+02  0.31247799256E+02  0.13926965606E+03  0.00000000000E+00 0.  1.
<scales pt_clust_5="13000.00000" pt_clust_6="13000.00000" pt_clust_7="13000.00000" pt_clust_8="13000.00000" pt_clust_9="58.97058" pt_clust_10="141.10975"></scales>
<clustering>
<clus scale="   58.971">  1  9  2 -1</clus>
<clus scale="   87.735">  5  6 -1 -1</clus>
<clus scale="   89.508">  7  8 -1 -1</clus>
<clus scale="  108.653">  2  5  1 -1</clus>
<clus scale="  141.110">  2 10  1 -1</clus>
<clus scale="   58.971">  1  5  2 -1</clus>
</clustering>
</event>
<event>
10    2  0.2445576E-006  0.9198195E+02  0.7546771E-02  0.1298644E+00
          1   -1    0    0  502    0  0.00000000000E+00  0.00000000000E+00  0.24529950687E+03  0.24529950687E+03  0.00000000000E+00 0. -1.
         -1   -1    0    0    0  501 -0.00000000000E+00 -0.00000000000E+00 -0.74993498613E+02  0.74993498613E+02  0.00000000000E+00 0.  1.
         23    2    1    2    0    0  0.54571917787E+00  0.14780851160E+02  0.14084290116E+02  0.92870780328E+02  0.90597148080E+02 0.  0.
         23    2    1    2    0    0  0.34110924441E+01 -0.20847992062E+01  0.12786672781E+03  0.15727478803E+03  0.91484845359E+02 0.  0.
        -13    1    3    3    0    0 -0.23405413274E+02  0.26097526445E+01  0.45682101614E+02  0.51395316784E+02  0.00000000000E+00 0. -1.
         13    1    3    3    0    0  0.23951132452E+02  0.12171098515E+02 -0.31597811498E+02  0.41475463545E+02  0.00000000000E+00 0.  1.
        -13    1    4    4    0    0  0.20246914577E+02  0.27517505783E+02  0.11531100741E+02  0.36057134644E+02  0.00000000000E+00 0.  1.
         13    1    4    4    0    0 -0.16835822133E+02 -0.29602304990E+02  0.11633562707E+03  0.12121765339E+03  0.00000000000E+00 0. -1.
         21    1    1    2  502  503 -0.27408649147E+02  0.38809542356E+01  0.30694307212E+02  0.41333235405E+02  0.00000000000E+00 0. -1.
         21    1    1    2  503  501  0.23451837525E+02 -0.16577006189E+02 -0.23393168750E+01  0.28814201723E+02  0.00000000000E+00 0.  1.
<scales pt_clust_5="13000.00000" pt_clust_6="13000.00000" pt_clust_7="13000.00000" pt_clust_8="13000.00000" pt_clust_9="27.68205" pt_clust_10="27.17352"></scales>
<clustering>
<clus scale="   27.682">  1  9  2 -1</clus>
<clus scale="   27.174">  2 10  1 -1</clus>
<clus scale="   90.597">  5  6 -1 -1</clus>
<clus scale="   91.099">  2  5  1 -1</clus>
<clus scale="   91.485">  7  8 -1 -1</clus>
<clus scale="   27.682">  1  5  2 -1</clus>
</clustering>
</event>
<event>
10    2  0.2445576E-006  0.1334711E+03  0.7546771E-02  0.1224348E+00
          1   -1    0    0  502    0  0.00000000000E+00  0.00000000000E+00  0.95201116182E+03  0.95201116182E+03  0.00000000000E+00 0. -1.
         -1   -1    0    0    0  501 -0.00000000000E+00 -0.00000000000E+00 -0.48810166433E+02  0.48810166433E+02  0.00000000000E+00 0.  1.
         23    2    1    2    0    0 -0.10686715350E+02 -0.60739243258E+02  0.25822220663E+03  0.28112554372E+03  0.92462975169E+02 0.  0.
         23    2    1    2    0    0  0.31489451768E+02  0.13773352828E+03  0.40102033378E+03  0.43351238199E+03  0.84578761242E+02 0.  0.
        -11    1    4    4    0    0  0.12168829320E+01  0.12450871008E+03  0.25466662717E+03  0.28347661400E+03  0.00000000000E+00 0.  1.
         11    1    4    4    0    0  0.30272568836E+02  0.13224818205E+02  0.14635370661E+03  0.15003576799E+03  0.00000000000E+00 0. -1.
        -13    1    3    3    0    0  0.27690406395E+02 -0.55158237069E+02  0.21193918283E+03  0.22074285252E+03  0.00000000000E+00 0. -1.
         13    1    3    3    0    0 -0.38377121745E+02 -0.55810061885E+01  0.46283023806E+02  0.60382691197E+02  0.00000000000E+00 0.  1.
         21    1    1    2  502  503 -0.24191610410E+02 -0.55064722020E+02  0.25457597039E+03  0.26158417828E+03  0.00000000000E+00 0. -1.
         21    1    1    2  503  501  0.33888739916E+01 -0.21929563006E+02 -0.10617515415E+02  0.24599224259E+02  0.00000000000E+00 0.  1.
<scales pt_clust_5="13000.00000" pt_clust_6="13000.00000" pt_clust_7="13000.00000" pt_clust_8="13000.00000" pt_clust_9="62.26058" pt_clust_10="22.18987"></scales>
<clustering>
<clus scale="   22.190">  2 10  1 -1</clus>
<clus scale="   62.261">  1  9  2 -1</clus>
<clus scale="   84.579">  5  6 -1 -1</clus>
<clus scale="   92.463">  7  8 -1 -1</clus>
<clus scale="  128.135">  1  5  2 -1</clus>
<clus scale="   62.261">  1  5  2 -1</clus>
</clustering>
</event>
<event>
10    2  0.2445576E-006  0.9410062E+02  0.7546771E-02  0.1294130E+00
          2   -1    0    0  502    0  0.00000000000E+00  0.00000000000E+00  0.44116190240E+02  0.44116190240E+02  0.00000000000E+00 0. -1.
         -2   -1    0    0    0  501 -0.00000000000E+00 -0.00000000000E+00 -0.46564658844E+03  0.46564658844E+03  0.00000000000E+00 0.  1.
         23    2    1    2    0    0 -0.17182126904E+02 -0.53521340869E+00 -0.24074831772E+03  0.25867368979E+03  0.93041997855E+02 0.  0.
         23    2    1    2    0    0 -0.71382333868E+01 -0.31955141098E+02 -0.13758728218E+03  0.16841150379E+03  0.91433522146E+02 0.  0.
        -11    1    3    3    0    0 -0.24367124842E+02  0.33250965852E+02 -0.20445875169E+03  0.20857316377E+03  0.00000000000E+00 0.  1.
         11    1    3    3    0    0  0.71849979389E+01 -0.33786179261E+02 -0.36289566032E+02  0.50100526017E+02  0.00000000000E+00 0. -1.
        -11    1    4    4    0    0 -0.36964397810E+02 -0.50058495488E+02 -0.87646123639E+02  0.10748982587E+03  0.00000000000E+00 0. -1.
         11    1    4    4    0    0  0.29826164423E+02  0.18103354390E+02 -0.49941158538E+02  0.60921677919E+02  0.00000000000E+00 0.  1.
         21    1    1    2  502  503  0.19957664228E+02 -0.17755024928E+01  0.74480622304E+01  0.21376023987E+02  0.00000000000E+00 0. -1.
         21    1    1    2  503  501  0.43626960629E+01  0.34265857000E+02 -0.50642860537E+02  0.61301561124E+02  0.00000000000E+00 0. -1.
<scales pt_clust_5="13000.00000" pt_clust_6="13000.00000" pt_clust_7="13000.00000" pt_clust_8="13000.00000" pt_clust_9="20.03649" pt_clust_10="34.86427"></scales>
<clustering>
<clus scale="   20.036">  1  9  2 -1</clus>
<clus scale="   34.864">  1 10  2 -1</clus>
<clus scale="   91.434">  7  8 -1 -1</clus>
<clus scale="   92.511">  1  7  2 -1</clus>
<clus scale="   93.042">  5  6 -1 -1</clus>
<clus scale="   20.036">  1  5  2 -1</clus>
</clustering>
</event>
<event>
10    2  0.2445576E-006  0.1136580E+03  0.7546771E-02  0.1255886E+00
          1   -1    0    0  502    0  0.00000000000E+00  0.00000000000E+00  0.10818248360E+04  0.10818248360E+04  0.00000000000E+00 0. -1.
         -1   -1    0    0    0  501 -0.00000000000E+00 -0.00000000000E+00 -0.29072177048E+02  0.29072177048E+02  0.00000000000E+00 0.  1.
         23    2    1    2    0    0  0.40992603684E+02 -0.17870071861E+02  0.26037703009E+03  0.28106644623E+03  0.95929225869E+02 0.  0.
         23    2    1    2    0    0 -0.73378162358E+02  0.54558795244E+02  0.35683162444E+03  0.37938646527E+03  0.90797934885E+02 0.  0.
        -11    1    4    4    0    0 -0.72582423935E+01  0.38646216439E+02  0.42990646728E+02  0.58261546785E+02  0.00000000000E+00 0.  1.
         11    1    4    4    0    0 -0.66119919965E+02  0.15912578805E+02  0.31384097771E+03  0.32112491848E+03  0.00000000000E+00 0. -1.
        -13    1    3    3    0    0 -0.21334408346E+02 -0.24074910320E+02  0.15646023420E+03  0.15973278678E+03  0.00000000000E+00 0.  1.
         13    1    3    3    0    0  0.62327012030E+02  0.62048384596E+01  0.10391679589E+03  0.12133365945E+03  0.00000000000E+00 0. -1.
         21    1    1    2  502  503  0.48694667206E+02 -0.62865656427E+02  0.36314890141E+03  0.37175312503E+03  0.00000000000E+00 0. -1.
         21    1    1    2  503  501 -0.16309108531E+02  0.26176933044E+02  0.72395102996E+02  0.78690976500E+02  0.00000000000E+00 0. -1.
<scales pt_clust_5="13000.00000" pt_clust_6="13000.00000" pt_clust_7="13000.00000" pt_clust_8="13000.00000" pt_clust_9="74.42910" pt_clust_10="30.84184"></scales>
<clustering>
<clus scale="   30.842">  2 10  1 -1</clus>
<clus scale="   74.429">  1  9  2 -1</clus>
<clus scale="   90.798">  5  6 -1 -1</clus>
<clus scale="   95.929">  7  8 -1 -1</clus>
<clus scale="  109.362">  1  5  2 -1</clus>
<clus scale="   74.429">  1  5  2 -1</clus>
</clustering>
</event>
<event>
10    2  0.2445576E-006  0.9627016E+02  0.7546771E-02  0.1289243E+00
          1   -1    0    0  502    0  0.00000000000E+00  0.00000000000E+00  0.50957503165E+03  0.50957503165E+03  0.00000000000E+00 0. -1.
         -1   -1    0    0    0  501 -0.00000000000E+00 -0.00000000000E+00 -0.54270208631E+02  0.54270208631E+02  0.00000000000E+00 0.  1.
         23    2    1    2    0    0  0.42148899756E+01  0.22058903158E+02  0.45268558578E+02  0.10532029734E+03  0.92405422628E+02 0.  0.
         23    2    1    2    0    0 -0.40765923086E+02 -0.24587318420E+02  0.36853753484E+03  0.38251359033E+03  0.90721196498E+02 0.  0.
        -11    1    4    4    0    0 -0.59793781091E+02  0.11788496439E+02  0.20218901051E+03  0.21117447970E+03  0.00000000000E+00 0. -1.
         11    1    4    4    0    0  0.19027858006E+02 -0.36375814859E+02  0.16634852433E+03  0.17133911064E+03  0.00000000000E+00 0.  1.
        -13    1    3    3    0    0 -0.41926615718E+02  0.49592664124E+01  0.65889193753E+01  0.42729957728E+02  0.00000000000E+00 0. -1.
         13    1    3    3    0    0  0.46141505693E+02  0.17099636746E+02  0.38679639203E+02  0.62590339617E+02  0.00000000000E+00 0.  1.
         21    1    1    2  502  503  0.18742771063E+02  0.12759418820E+02  0.49123493166E+02  0.54103713519E+02  0.00000000000E+00 0.  1.
         21    1    1    2  503  501  0.17808262047E+02 -0.10231003558E+02 -0.76247635604E+01  0.21907639085E+02  0.00000000000E+00 0.  1.
<scales pt_clust_5="13000.00000" pt_clust_6="13000.00000" pt_clust_7="13000.00000" pt_clust_8="13000.00000" pt_clust_9="23.26783" pt_clust_10="20.53796"></scales>
<clustering>
<clus scale="   20.538">  2 10  1 -1</clus>
<clus scale="   23.268">  1  9  2 -1</clus>
<clus scale="   90.721">  5  6 -1 -1</clus>
<clus scale="   92.405">  7  8 -1 -1</clus>
<clus scale="   94.655">  1  5  2 -1</clus>
<clus scale="   23.268">  1  5  2 -1</clus>
</clustering>
</event>
<event>
10    2  0.2445576E-006  0.1540384E+03  0.7546771E-02  0.1196747E+00
         -1   -1    0    0    0  501 -0.00000000000E+00  0.00000000000E+00  0.23135718918E+03  0.23135718918E+03  0.00000000000E+00 0.  1.
          1   -1    0    0  502    0  0.00000000000E+00 -0.00000000000E+00 -0.19771564416E+03  0.19771564416E+03  0.00000000000E+00 0. -1.
         23    2    1    2    0    0 -0.11205159091E+03 -0.67147550942E+02  0.89796169039E+02  0.18223751658E+03  0.89904437344E+02 0.  0.
         23    2    1    2    0    0  0.11708919310E+03  0.59514151916E+02 -0.78290370357E+02  0.18063116787E+03  0.96158324108E+02 0.  0.
        -11    1    4    4    0    0  0.31215714825E+02 -0.13235109489E+02 -0.56652658859E+02  0.66023577085E+02  0.00000000000E+00 0.  1.
         11    1    4    4    0    0  0.85873478275E+02  0.72749261405E+02 -0.21637711498E+02  0.11460759078E+03  0.00000000000E+00 0. -1.
        -13    1    3    3    0    0 -0.28340750370E+02 -0.68337464654E+02  0.32598367806E+02  0.80844670762E+02  0.00000000000E+00 0. -1.
         13    1    3    3    0    0 -0.83710840536E+02  0.11899137124E+01  0.57197801233E+02  0.10139284582E+03  0.00000000000E+00 0.  1.
         21    1    1    2  502  503 -0.22905171782E+02 -0.53620896149E+01 -0.11324071728E+02  0.26108111764E+02  0.00000000000E+00 0.  1.
         21    1    1    2  503  501  0.17867569589E+02  0.12995488640E+02  0.33459818064E+02  0.40096037122E+02  0.00000000000E+00 0.  1.
<scales pt_clust_5="13000.00000" pt_clust_6="13000.00000" pt_clust_7="13000.00000" pt_clust_8="13000.00000" pt_clust_9="22.75332" pt_clust_10="22.09373"></scales>
<clustering>
<clus scale="   22.094">  1 10  2 -1</clus>
<clus scale="   22.753">  2  9  1 -1</clus>
<clus scale="   89.904">  7  8 -1 -1</clus>
<clus scale="   96.158">  5  6 -1 -1</clus>
<clus scale="  150.214">  1  7  2 -1</clus>
<clus scale="   22.753">  2  5  1 -1</clus>
</clustering>
</event>
<event>
10    2  0.2445576E-006  0.1022638E+03  0.7546771E-02  0.1276123E+00
         -3   -1    0    0    0  501 -0.00000000000E+00  0.00000000000E+00  0.29765064947E+03  0.29765064947E+03  0.00000000000E+00 0.  1.
          3   -1    0    0  502    0  0.00000000000E+00 -0.00000000000E+00 -0.90537677979E+02  0.90537677979E+02  0.00000000000E+00 0. -1.
         23    2    1    2    0    0 -0.27704315631E+02  0.77900767109E+01  0.17379974018E+03  0.19867170827E+03  0.91847066262E+02 0.  0.
         23    2    1    2    0    0  0.55021156878E+02  0.25253521509E+02 -0.83993478795E+01  0.11125049438E+03  0.92957277292E+02 0.  0.
        -13    1    3    3    0    0 -0.47625333371E+02 -0.25044049030E+02  0.12832352148E+03  0.13914849240E+03  0.00000000000E+00 0.  1.
         13    1    3    3    0    0  0.19921017740E+02  0.32834125741E+02  0.45476218693E+02  0.59523215870E+02  0.00000000000E+00 0. -1.
        -13    1    4    4    0    0  0.51183925774E+02 -0.12275605583E+02  0.27315741163E+02  0.59301218076E+02  0.00000000000E+00 0. -1.
         13    1    4    4    0    0  0.38372311036E+01  0.37529127092E+02 -0.35715089042E+02  0.51949276301E+02  0.00000000000E+00 0.  1.
         21    1    1    2  502  503 -0.11765490211E+02 -0.19212673997E+02 -0.83683380351E+01  0.24032949954E+02  0.00000000000E+00 0.  1.
         21    1    1    2  503  501 -0.15551351036E+02 -0.13830924223E+02  0.50080917224E+02  0.54233174846E+02  0.00000000000E+00 0.  1.
<scales pt_clust_5="13000.00000" pt_clust_6="13000.00000" pt_clust_7="13000.00000" pt_clust_8="13000.00000" pt_clust_9="23.16517" pt_clust_10="20.81199"></scales>
<clustering>
<clus scale="   20.812">  1 10  2 -1</clus>
<clus scale="   23.165">  2  9  1 -1</clus>
<clus scale="   91.847">  5  6 -1 -1</clus>
<clus scale="   92.957">  7  8 -1 -1</clus>
<clus scale="  101.256">  1  5  2 -1</clus>
<clus scale="   23.165">  2  5  1 -1</clus>
</clustering>
</event>
<event>
10    2  0.2445576E-006  0.1223859E+03  0.7546771E-02  0.1241837E+00
          4   -1    0    0  502    0  0.00000000000E+00  0.00000000000E+00  0.12988128329E+03  0.12988128329E+03  0.00000000000E+00 0. -1.
         -4   -1    0    0    0  501 -0.00000000000E+00 -0.00000000000E+00 -0.21495934923E+03  0.21495934923E+03  0.00000000000E+00 0.  1.
         23    2    1    2    0    0 -0.52342323560E+02  0.36542411960E+02 -0.58817436869E+02  0.12496396780E+03  0.89896805622E+02 0.  0.
         23    2    1    2    0    0  0.39136690524E+02 -0.72536694755E+02  0.10983265494E+02  0.12848639830E+03  0.97953406253E+02 0.  0.
        -13    1    3    3    0    0 -0.52390038693E+02  0.67112122254E+01  0.64420003725E+01  0.53209547006E+02  0.00000000000E+00 0. -1.
         13    1    3    3    0    0  0.47715133088E-01  0.29831199734E+02 -0.65259437242E+02  0.71754420794E+02  0.00000000000E+00 0.  1.
        -13    1    4    4    0    0 -0.29938549449E+02 -0.12128981561E+02 -0.11005424935E+02  0.34125478968E+02  0.00000000000E+00 0.  1.
         13    1    4    4    0    0  0.69075239973E+02 -0.60407713194E+02  0.21988690428E+02  0.94360919334E+02  0.00000000000E+00 0. -1.
         21    1    1    2  502  503  0.30908158186E+02  0.51365546411E+02 -0.25145007464E+02  0.65007730317E+02  0.00000000000E+00 0.  1.
         21    1    1    2  503  501 -0.17702525150E+02 -0.15371263616E+02 -0.12098887099E+02  0.26382536096E+02  0.00000000000E+00 0.  1.
<scales pt_clust_5="13000.00000" pt_clust_6="13000.00000" pt_clust_7="13000.00000" pt_clust_8="13000.00000" pt_clust_9="54.83767" pt_clust_10="23.44473"></scales>
<clustering>
<clus scale="   23.445">  2 10  1 -1</clus>
<clus scale="   54.838">  2  9  1 -1</clus>
<clus scale="   89.897">  5  6 -1 -1</clus>
<clus scale="   97.953">  7  8 -1 -1</clus>
<clus scale="  116.038">  2  5  1 -1</clus>
<clus scale="  122.386">  1  5  2 -1</clus>
</clustering>
</event>
<event>
10    2  0.2445576E-006  0.2858387E+03  0.7546771E-02  0.1092591E+00
          2   -1    0    0  502    0  0.00000000000E+00  0.00000000000E+00  0.71008250693E+03  0.71008250693E+03  0.00000000000E+00 0. -1.
         -2   -1    0    0    0  501 -0.00000000000E+00 -0.00000000000E+00 -0.26169797877E+03  0.26169797877E+03  0.00000000000E+00 0.  1.
         23    2    1    2    0    0 -0.27694549631E+03 -0.76160981447E+01 -0.97953564054E+02  0.30784451950E+03  0.91741673164E+02 0.  0.
         23    2    1    2    0    0  0.25200829136E+03  0.65809887978E+02  0.45080888605E+03  0.52886140833E+03  0.92879584458E+02 0.  0.
        -13    1    4    4    0    0  0.22921505988E+03  0.37989374540E+02  0.33567377004E+03  0.40823965528E+03  0.00000000000E+00 0. -1.
         13    1    4    4    0    0  0.22793231482E+02  0.27820513439E+02  0.11513511601E+03  0.12062175305E+03  0.00000000000E+00 0.  1.
        -13    1    3    3    0    0 -0.22039737404E+03 -0.40309344258E+02 -0.92167933159E+02  0.24227004276E+03  0.00000000000E+00 0.  1.
         13    1    3    3    0    0 -0.56548122277E+02  0.32693246113E+02 -0.57856308950E+01  0.65574476737E+02  0.00000000000E+00 0. -1.
         21    1    1    2  502  503  0.18477759633E+02 -0.34082501315E+02  0.10214182032E+03  0.10925198376E+03  0.00000000000E+00 0.  1.
         21    1    1    2  503  501  0.64594453216E+01 -0.24111288518E+02 -0.66126141555E+01  0.25822574114E+02  0.00000000000E+00 0. -1.
<scales pt_clust_5="13000.00000" pt_clust_6="13000.00000" pt_clust_7="13000.00000" pt_clust_8="13000.00000" pt_clust_9="39.12077" pt_clust_10="24.96154"></scales>
<clustering>
<clus scale="   24.962">  2 10  1 -1</clus>
<clus scale="   39.121">  1  9  2 -1</clus>
<clus scale="   91.742">  7  8 -1 -1</clus>
<clus scale="   92.880">  5  6 -1 -1</clus>
<clus scale="  285.471">  2  7  1 -1</clus>
<clus scale="   39.121">  1  5  2 -1</clus>
</clustering>
</event>
<event>
10    2  0.2445576E-006  0.4332568E+03  0.7546771E-02  0.1072957E+00
         -2   -1    0    0    0  501 -0.00000000000E+00  0.00000000000E+00  0.24332699832E+04  0.24332699832E+04  0.00000000000E+00 0.  1.
          2   -1    0    0  502    0  0.00000000000E+00 -0.00000000000E+00 -0.22116836613E+03  0.22116836613E+03  0.00000000000E+00 0. -1.
         23    2    1    2    0    0 -0.24159994829E+03  0.22141381683E+03  0.11594701308E+03  0.36012905707E+03  0.94098961782E+02 0.  0.
         23    2    1    2    0    0 -0.68565146472E+02  0.77619825771E+02  0.14314842861E+02  0.13680649694E+03  0.88233135580E+02 0.  0.
        -13    1    4    4    0    0  0.20680986728E+02  0.14260715392E+02  0.10677946303E+02  0.27296332222E+02  0.00000000000E+00 0.  1.
         13    1    4    4    0    0 -0.89246133200E+02  0.63359110380E+02  0.36368965582E+01  0.10951016471E+03  0.00000000000E+00 0. -1.
        -13    1    3    3    0    0 -0.62769804103E+02  0.10553297018E+02  0.12118668419E+02  0.64794154901E+02  0.00000000000E+00 0.  1.
         13    1    3    3    0    0 -0.17883014418E+03  0.21086051981E+03  0.10382834466E+03  0.29533490217E+03  0.00000000000E+00 0. -1.
         21    1    1    2  502  503  0.69666959872E+01  0.21216110437E+02 -0.63789265894E+01  0.23223886399E+02  0.00000000000E+00 0. -1.
         21    1    1    2  503  501  0.30319839877E+03 -0.32024975304E+03  0.20882186877E+04  0.21342789089E+04  0.00000000000E+00 0.  1.
<scales pt_clust_5="13000.00000" pt_clust_6="13000.00000" pt_clust_7="13000.00000" pt_clust_8="13000.00000" pt_clust_9="22.33066" pt_clust_10="422.91469"></scales>
<clustering>
<clus scale="   22.331">  2  9  1 -1</clus>
<clus scale="   88.233">  5  6 -1 -1</clus>
<clus scale="   94.099">  7  8 -1 -1</clus>
<clus scale="  138.741">  2  5  1 -1</clus>
<clus scale="  422.915">  1 10  2 -1</clus>
<clus scale="   22.331">  2  5  1 -1</clus>
</clustering>
</event>
<event>
10    2  0.2445576E-006  0.1005024E+03  0.7546771E-02  0.1279671E+00
         -2   -1    0    0    0  501 -0.00000000000E+00  0.00000000000E+00  0.21741688660E+02  0.21741688660E+02  0.00000000000E+00 0.  1.
          2   -1    0    0  503    0  0.00000000000E+00 -0.00000000000E+00 -0.70907865769E+03  0.70907865769E+03  0.00000000000E+00 0. -1.
         23    2    1    2    0    0  0.15481289798E+02  0.24396973855E+02 -0.25842148115E+03  0.27529900381E+03  0.90404628806E+02 0.  0.
         23    2    1    2    0    0 -0.26573047342E+01 -0.57453533008E+02 -0.34072838621E+03  0.35740743244E+03  0.91303175595E+02 0.  0.
        -11    1    3    3    0    0  0.18479956483E+02  0.57447442986E+02 -0.14326528076E+03  0.15545629022E+03  0.00000000000E+00 0.  1.
         11    1    3    3    0    0 -0.29986666848E+01 -0.33050469131E+02 -0.11515620039E+03  0.11984271359E+03  0.00000000000E+00 0. -1.
        -13    1    4    4    0    0  0.20213005318E+02 -0.72360920580E+02 -0.19165722110E+03  0.20585713204E+03  0.00000000000E+00 0. -1.
         13    1    4    4    0    0 -0.22870310053E+02  0.14907387572E+02 -0.14907116510E+03  0.15155030040E+03  0.00000000000E+00 0.  1.
         21    1    1    2  502  501 -0.17500436621E+02  0.11803839189E+02 -0.39556905799E+02  0.44836867619E+02  0.00000000000E+00 0. -1.
         21    1    1    2  503  502  0.46764515572E+01  0.21252719964E+02 -0.48630195876E+02  0.53277042485E+02  0.00000000000E+00 0.  1.
<scales pt_clust_5="13000.00000" pt_clust_6="13000.00000" pt_clust_7="13000.00000" pt_clust_8="13000.00000" pt_clust_9="21.10914" pt_clust_10="22.83108"></scales>
<clustering>
<clus scale="   21.109">  1  9  2 -1</clus>
<clus scale="   22.831">  1 10  2 -1</clus>
<clus scale="   90.405">  5  6 -1 -1</clus>
<clus scale="   91.303">  7  8 -1 -1</clus>
<clus scale="   99.687">  1  5  2 -1</clus>
<clus scale="  100.502">  2  5  1 -1</clus>
</clustering>
</event>
<event>
10    2  0.2445576E-006  0.1690899E+03  0.7546771E-02  0.1179300E+00
          1   -1    0    0  502    0  0.00000000000E+00  0.00000000000E+00  0.18355247102E+03  0.18355247102E+03  0.00000000000E+00 0. -1.
         -1   -1    0    0    0  501 -0.00000000000E+00 -0.00000000000E+00 -0.47822237947E+03  0.47822237947E+03  0.00000000000E+00 0.  1.
         23    2    1    2    0    0 -0.14988943906E+03 -0.98074173437E+02 -0.27584073149E+03  0.34094829284E+03  0.89845655466E+02 0.  0.
         23    2    1    2    0    0  0.93264618543E+02  0.11897184869E+03  0.70300804415E+02  0.19105970503E+03  0.93322119204E+02 0.  0.
        -11    1    3    3    0    0 -0.11103552212E+03 -0.11065759792E+03 -0.23972203704E+03  0.28642738381E+03  0.00000000000E+00 0.  1.
         11    1    3    3    0    0 -0.38853916941E+02  0.12583424487E+02 -0.36118694447E+02  0.54520909035E+02  0.00000000000E+00 0. -1.
        -13    1    4    4    0    0 -0.13610986131E+02  0.42446853101E+02  0.29391099975E+02  0.53393174090E+02  0.00000000000E+00 0.  1.
         13    1    4    4    0    0  0.10687560467E+03  0.76524995589E+02  0.40909704440E+02  0.13766653094E+03  0.00000000000E+00 0. -1.
         21    1    1    2  502  503 -0.33993304477E+01 -0.29367813959E+02 -0.12598474653E+02  0.32136358036E+02  0.00000000000E+00 0. -1.
         21    1    1    2  503  501  0.60024150967E+02  0.84701387057E+01 -0.76531506728E+02  0.97630494575E+02  0.00000000000E+00 0. -1.
<scales pt_clust_5="13000.00000" pt_clust_6="13000.00000" pt_clust_7="13000.00000" pt_clust_8="13000.00000" pt_clust_9="29.56390" pt_clust_10="60.19044"></scales>
<clustering>
<clus scale="   29.564">  1  9  2 -1</clus>
<clus scale="   60.190">  2 10  1 -1</clus>
<clus scale="   89.846">  5  6 -1 -1</clus>
<clus scale="   93.322">  7  8 -1 -1</clus>
<clus scale="  167.196">  2  5  1 -1</clus>
<clus scale="   29.564">  1  5  2 -1</clus>
</clustering>
</event>
<event>
10    2  0.2445576E-006  0.1287690E+03  0.7546771E-02  0.1229879E+00
         -2   -1    0    0    0  501 -0.00000000000E+00  0.00000000000E+00  0.13820409831E+03  0.13820409831E+03  0.00000000000E+00 0.  1.
          2   -1    0    0  502    0  0.00000000000E+00 -0.00000000000E+00 -0.73105375985E+03  0.73105375985E+03  0.00000000000E+00 0. -1.
         23    2    1    2    0    0 -0.95907607679E+02  0.10317960679E+02 -0.18657746975E+03  0.22826364790E+03  0.89377912324E+02 0.  0.
         23    2    1    2    0    0  0.89473235131E+02 -0.35934286768E+02 -0.42027652047E+03  0.44081034281E+03  0.91567854087E+02 0.  0.
        -13    1    4    4    0    0 -0.67615283927E+01 -0.21112791569E+02 -0.23687464267E+02  0.32443245791E+02  0.00000000000E+00 0.  1.
         13    1    4    4    0    0  0.96234763524E+02 -0.14821495199E+02 -0.39658905620E+03  0.40836709702E+03  0.00000000000E+00 0. -1.
        -13    1    3    3    0    0 -0.53833301716E+02  0.39059081298E+02 -0.52195688820E+02  0.84546000124E+02  0.00000000000E+00 0.  1.
         13    1    3    3    0    0 -0.42074305962E+02 -0.28741120619E+02 -0.13438178093E+03  0.14371764778E+03  0.00000000000E+00 0. -1.
         21    1    1    2  502  503 -0.18698726080E+02 -0.10636332964E+02 -0.87183659642E+02  0.89798465714E+02  0.00000000000E+00 0.  1.
         21    1    1    2  503  501  0.25133098628E+02  0.36252659054E+02  0.10118798832E+03  0.11038540173E+03  0.00000000000E+00 0.  1.
<scales pt_clust_5="13000.00000" pt_clust_6="13000.00000" pt_clust_7="13000.00000" pt_clust_8="13000.00000" pt_clust_9="21.51218" pt_clust_10="43.97392"></scales>
<clustering>
<clus scale="   21.512">  2  9  1 -1</clus>
<clus scale="   43.974">  1 10  2 -1</clus>
<clus scale="   89.378">  7  8 -1 -1</clus>
<clus scale="   91.568">  5  6 -1 -1</clus>
<clus scale="  127.221">  1  7  2 -1</clus>
<clus scale="   21.512">  2  5  1 -1</clus>
</clustering>
</event>
<event>
10    2  0.2445576E-006  0.1190007E+03  0.7546771E-02  0.1244925E+00
         -2   -1    0    0    0  501 -0.00000000000E+00  0.00000000000E+00  0.21682095382E+03  0.21682095382E+03  0.00000000000E+00 0.  1.
          2   -1    0    0  502    0  0.00000000000E+00 -0.00000000000E+00 -0.27266224833E+03  0.27266224833E+03  0.00000000000E+00 0. -1.
         23    2    1    2    0    0 -0.73522502542E+02 -0.18449606325E+00  0.13365860475E+03  0.17833051667E+03  0.92366434013E+02 0.  0.
         23    2    1    2    0    0  0.75251427198E+02 -0.10849446027E+02 -0.14455087299E+03  0.18789257815E+03  0.92887987743E+02 0.  0.
        -11    1    4    4    0    0 -0.10607058190E+02  0.18945125185E+02 -0.65947144790E+01  0.22691798315E+02  0.00000000000E+00 0.  1.
         11    1    4    4    0    0  0.85858485389E+02 -0.29794571212E+02 -0.13795615851E+03  0.16520077983E+03  0.00000000000E+00 0. -1.
        -13    1    3    3    0    0 -0.90225332428E+02 -0.14707656063E+02  0.12430713989E+03  0.15430227084E+03  0.00000000000E+00 0. -1.
         13    1    3    3    0    0  0.16702829886E+02  0.14523160000E+02  0.93514648639E+01  0.24028245831E+02  0.00000000000E+00 0.  1.
         21    1    1    2  502  503 -0.58571373256E+01  0.45673610235E+02 -0.67507560275E+02  0.81716922506E+02  0.00000000000E+00 0.  1.
         21    1    1    2  503  501  0.41282126693E+01 -0.34639668145E+02  0.22558533999E+02  0.41543184822E+02  0.00000000000E+00 0. -1.
<scales pt_clust_5="13000.00000" pt_clust_6="13000.00000" pt_clust_7="13000.00000" pt_clust_8="13000.00000" pt_clust_9="44.70632" pt_clust_10="34.88479"></scales>
<clustering>
<clus scale="   34.885">  1 10  2 -1</clus>
<clus scale="   44.706">  2  9  1 -1</clus>
<clus scale="   92.366">  7  8 -1 -1</clus>
<clus scale="   92.888">  5  6 -1 -1</clus>
<clus scale="  118.594">  1  7  2 -1</clus>
<clus scale="   44.706">  2  5  1 -1</clus>
</clustering>
</event>
<event>
10    2  0.2445576E-006  0.1230258E+03  0.7546771E-02  0.1238274E+00
         -1   -1    0    0    0  501 -0.00000000000E+00  0.00000000000E+00  0.14001984329E+03  0.14001984329E+03  0.00000000000E+00 0.  1.
          1   -1    0    0  502    0  0.00000000000E+00 -0.00000000000E+00 -0.51679244803E+03  0.51679244803E+03  0.00000000000E+00 0. -1.
         23    2    1    2    0    0  0.38570836790E+02 -0.30877178879E+02  0.56856436742E+01  0.10482501464E+03  0.92275931443E+02 0.  0.
         23    2    1    2    0    0 -0.12992791228E+03  0.80212553542E+02 -0.27172487344E+03  0.32514248270E+03  0.92563011365E+02 0.  0.
        -11    1    3    3    0    0 -0.22752370910E+02 -0.21664017038E+02 -0.20498067594E+02  0.37512275209E+02  0.00000000000E+00 0.  1.
         11    1    3    3    0    0  0.61323207700E+02 -0.92131618412E+01  0.26183711268E+02  0.67312739430E+02  0.00000000000E+00 0. -1.
        -13    1    4    4    0    0 -0.13475225303E+03  0.58940480790E+02 -0.18841103030E+03  0.23902063993E+03  0.00000000000E+00 0.  1.
         13    1    4    4    0    0  0.48243407554E+01  0.21272072752E+02 -0.83313843137E+02  0.86121842765E+02  0.00000000000E+00 0. -1.
         21    1    1    2  502  503  0.53145854909E+02 -0.59761335210E+02 -0.15068147491E+03  0.17058958339E+03  0.00000000000E+00 0. -1.
         21    1    1    2  503  501  0.38211220579E+02  0.10425960547E+02  0.39948099932E+02  0.56255210600E+02  0.00000000000E+00 0.  1.
<scales pt_clust_5="13000.00000" pt_clust_6="13000.00000" pt_clust_7="13000.00000" pt_clust_8="13000.00000" pt_clust_9="81.97062" pt_clust_10="39.60806"></scales>
<clustering>
<clus scale="   39.608">  1 10  2 -1</clus>
<clus scale="   81.971">  2  9  1 -1</clus>
<clus scale="   92.276">  5  6 -1 -1</clus>
<clus scale="   92.563">  7  8 -1 -1</clus>
<clus scale="  122.810">  1  5  2 -1</clus>
<clus scale="   81.971">  2  5  1 -1</clus>
</clustering>
</event>
<event>
10    2  0.2445576E-006  0.1242446E+03  0.7546771E-02  0.1236506E+00
         -1   -1    0    0    0  501 -0.00000000000E+00  0.00000000000E+00  0.84583357953E+02  0.84583357953E+02  0.00000000000E+00 0.  1.
          1   -1    0    0  502    0  0.00000000000E+00 -0.00000000000E+00 -0.84134109510E+03  0.84134109510E+03  0.00000000000E+00 0. -1.
         23    2    1    2    0    0  0.55226352759E+02  0.12608700735E+03 -0.14961221346E+03  0.22289332987E+03  0.91376904210E+02 0.  0.
         23    2    1    2    0    0  0.44880640926E+01 -0.46205347955E+02 -0.47506396697E+03  0.48615695430E+03  0.92237381801E+02 0.  0.
        -11    1    3    3    0    0  0.55785574747E+02  0.38865479048E+02 -0.28687749496E+02  0.73793921041E+02  0.00000000000E+00 0. -1.
         11    1    3    3    0    0 -0.55922198786E+00  0.87221528306E+02 -0.12092446396E+03  0.14909940883E+03  0.00000000000E+00 0.  1.
        -13    1    4    4    0    0  0.42744847708E+02  0.62820044315E+00 -0.20332520220E+03  0.20777067765E+03  0.00000000000E+00 0. -1.
         13    1    4    4    0    0 -0.38256783615E+02 -0.46833548398E+02 -0.27173876477E+03  0.27838627665E+03  0.00000000000E+00 0.  1.
         21    1    1    2  502  503 -0.29416150690E+02 -0.32272297232E+02 -0.15113107446E+03  0.15731310421E+03  0.00000000000E+00 0.  1.
         21    1    1    2  503  501 -0.30298266162E+02 -0.47609362167E+02  0.19049517740E+02  0.59561064669E+02  0.00000000000E+00 0.  1.
<scales pt_clust_5="13000.00000" pt_clust_6="13000.00000" pt_clust_7="13000.00000" pt_clust_8="13000.00000" pt_clust_9="43.66705" pt_clust_10="57.70120"></scales>
<clustering>
<clus scale="   43.667">  2  9  1 -1</clus>
<clus scale="   57.701">  1 10  2 -1</clus>
<clus scale="   91.377">  5  6 -1 -1</clus>
<clus scale="   92.237">  7  8 -1 -1</clus>
<clus scale="  123.607">  1  5  2 -1</clus>
<clus scale="   43.667">  2  5  1 -1</clus>
</clustering>
</event>
<event>
10    2  0.2445576E-006  0.1075823E+03  0.7546771E-02  0.1265364E+00
         -2   -1    0    0    0  501 -0.00000000000E+00  0.00000000000E+00  0.30234523225E+03  0.30234523225E+03  0.00000000000E+00 0.  1.
          2   -1    0    0  502    0  0.00000000000E+00 -0.00000000000E+00 -0.12554842572E+03  0.12554842572E+03  0.00000000000E+00 0. -1.
         23    2    1    2    0    0  0.19517850779E+02 -0.58250094624E+02  0.11960139354E+03  0.16107563166E+03  0.88695240891E+02 0.  0.
         23    2    1    2    0    0  0.49844298480E+02  0.43639471089E+02 -0.40188234322E+02  0.11825083757E+03  0.89326977336E+02 0.  0.
        -13    1    3    3    0    0  0.50000534239E+02 -0.58317947775E+02  0.92949668547E+02  0.12058473096E+03  0.00000000000E+00 0. -1.
         13    1    3    3    0    0 -0.30482683461E+02  0.67853151682E-01  0.26651724989E+02  0.40490900705E+02  0.00000000000E+00 0.  1.
        -13    1    4    4    0    0  0.75444009589E+02  0.25139952018E+02 -0.31069490252E+02  0.85376396005E+02  0.00000000000E+00 0. -1.
         13    1    4    4    0    0 -0.25599711109E+02  0.18499519071E+02 -0.91187440702E+01  0.32874441564E+02  0.00000000000E+00 0.  1.
         21    1    1    2  502  503 -0.38758907244E+02  0.22916801521E+02 -0.11652918323E+01  0.45042097950E+02  0.00000000000E+00 0.  1.
         21    1    1    2  503  501 -0.30603242014E+02 -0.83061779863E+01  0.98548939153E+02  0.10352509079E+03  0.00000000000E+00 0. -1.
<scales pt_clust_5="13000.00000" pt_clust_6="13000.00000" pt_clust_7="13000.00000" pt_clust_8="13000.00000" pt_clust_9="47.50176" pt_clust_10="31.71042"></scales>
<clustering>
<clus scale="   31.710">  1 10  2 -1</clus>
<clus scale="   47.502">  2  9  1 -1</clus>
<clus scale="   88.695">  5  6 -1 -1</clus>
<clus scale="   89.327">  7  8 -1 -1</clus>
<clus scale="  107.058">  1  5  2 -1</clus>
<clus scale="   47.502">  2  5  1 -1</clus>
</clustering>
</event>
<event>
10    2  0.2445576E-006  0.1353085E+03  0.7546771E-02  0.1219990E+00
          1   -1    0    0  502    0  0.00000000000E+00  0.00000000000E+00  0.34570486133E+03  0.34570486133E+03  0.00000000000E+00 0. -1.
         -1   -1    0    0    0  501 -0.00000000000E+00 -0.00000000000E+00 -0.11495421954E+03  0.11495421954E+03  0.00000000000E+00 0.  1.
         23    2    1    2    0    0 -0.23519559931E+02  0.85750854753E+02  0.11136107319E+03  0.16905866348E+03  0.90956936426E+02 0.  0.
         23    2    1    2    0    0  0.52479088578E+02 -0.10011495414E+03  0.13341254027E+03  0.19749935161E+03  0.91815190491E+02 0.  0.
        -11    1    4    4    0    0  0.23012179322E+02 -0.91316992100E+02  0.45942776334E+02  0.10478116310E+03  0.00000000000E+00 0.  1.
         11    1    4    4    0    0  0.29466909256E+02 -0.87979620365E+01  0.87469763940E+02  0.92718188512E+02  0.00000000000E+00 0. -1.
        -13    1    3    3    0    0 -0.21796311269E+02  0.32351444537E+02 -0.65991628468E+01  0.39563165935E+02  0.00000000000E+00 0.  1.
         13    1    3    3    0    0 -0.17232486617E+01  0.53399410217E+02  0.11796023604E+03  0.12949549754E+03  0.00000000000E+00 0. -1.
         21    1    1    2  502  503 -0.72466581695E+01  0.23684675477E+02  0.33126382352E+02  0.41362242624E+02  0.00000000000E+00 0. -1.
         21    1    1    2  503  501 -0.21712870478E+02 -0.93205760943E+01 -0.47149354031E+02  0.52738823164E+02  0.00000000000E+00 0.  1.
<scales pt_clust_5="13000.00000" pt_clust_6="13000.00000" pt_clust_7="13000.00000" pt_clust_8="13000.00000" pt_clust_9="24.65127" pt_clust_10="23.62884"></scales>
<clustering>
<clus scale="   23.629">  2 10  1 -1</clus>
<clus scale="   24.651">  1  9  2 -1</clus>
<clus scale="   90.957">  7  8 -1 -1</clus>
<clus scale="   91.815">  5  6 -1 -1</clus>
<clus scale="  134.728">  2  7  1 -1</clus>
<clus scale="   24.651">  1  5  2 -1</clus>
</clustering>
</event>
<event>
10    2  0.2445576E-006  0.1777638E+03  0.7546771E-02  0.1170025E+00
          2   -1    0    0  502    0  0.00000000000E+00  0.00000000000E+00  0.76750158277E+03  0.76750158277E+03  0.00000000000E+00 0. -1.
         -2   -1    0    0    0  501 -0.00000000000E+00 -0.00000000000E+00 -0.12816216150E+03  0.12816216150E+03  0.00000000000E+00 0.  1.
         23    2    1    2    0    0 -0.11778150736E+03 -0.15156438775E+01  0.19656474759E+02  0.15068970645E+03  0.91903373051E+02 0.  0.
         23    2    1    2    0    0  0.15882127753E+03  0.18688832409E+02  0.56839323373E+03  0.59752174157E+03  0.91585440105E+02 0.  0.
        -11    1    4    4    0    0  0.28957986258E+02 -0.31997205916E+02  0.17194944026E+03  0.17728224998E+03  0.00000000000E+00 0.  1.
         11    1    4    4    0    0  0.12986329127E+03  0.50686038325E+02  0.39644379348E+03  0.42023949159E+03  0.00000000000E+00 0. -1.
        -11    1    3    3    0    0 -0.44670463947E+02 -0.45605187459E+02  0.12151600482E+02  0.64984189360E+02  0.00000000000E+00 0.  1.
         11    1    3    3    0    0 -0.73111043408E+02  0.44089543581E+02  0.75048742762E+01  0.85705517088E+02  0.00000000000E+00 0. -1.
         21    1    1    2  502  503  0.22895254192E+01 -0.25711526841E+02  0.86943061763E+02  0.90694104152E+02  0.00000000000E+00 0.  1.
         21    1    1    2  503  501 -0.43329295592E+02  0.85383383092E+01 -0.35653348984E+02  0.56758192108E+02  0.00000000000E+00 0.  1.
<scales pt_clust_5="13000.00000" pt_clust_6="13000.00000" pt_clust_7="13000.00000" pt_clust_8="13000.00000" pt_clust_9="25.81326" pt_clust_10="44.05202"></scales>
<clustering>
<clus scale="   25.813">  1  9  2 -1</clus>
<clus scale="   44.052">  2 10  1 -1</clus>
<clus scale="   91.585">  5  6 -1 -1</clus>
<clus scale="   91.903">  7  8 -1 -1</clus>
<clus scale="  177.600">  1  5  2 -1</clus>
<clus scale="   25.813">  1  5  2 -1</clus>
</clustering>
</event>
<event>
10    2  0.2445576E-006  0.1080588E+03  0.7546771E-02  0.1264231E+00
         -1   -1    0    0    0  501 -0.00000000000E+00  0.00000000000E+00  0.68463196302E+02  0.68463196302E+02  0.00000000000E+00 0.  1.
          1   -1    0    0  502    0  0.00000000000E+00 -0.00000000000E+00 -0.38465958048E+03  0.38465958048E+03  0.00000000000E+00 0. -1.
         23    2    1    2    0    0  0.49415341398E+02 -0.20175422012E+02 -0.39119074079E+02  0.11278223243E+03  0.91326920322E+02 0.  0.
         23    2    1    2    0    0 -0.57537055209E+02  0.14379243736E+02 -0.21800802793E+03  0.24371334619E+03  0.91386101205E+02 0.  0.
        -13    1    4    4    0    0  0.23750428123E+02  0.47790116899E+01 -0.76421050758E+02  0.80169188519E+02  0.00000000000E+00 0.  1.
         13    1    4    4    0    0 -0.81287483331E+02  0.96002320462E+01 -0.14158697717E+03  0.16354415767E+03  0.00000000000E+00 0. -1.
        -13    1    3    3    0    0  0.13898889751E+02 -0.47861877267E+02  0.45585053645E+01  0.50047161787E+02  0.00000000000E+00 0.  1.
         13    1    3    3    0    0  0.35516451647E+02  0.27686455254E+02 -0.43677579444E+02  0.62735070640E+02  0.00000000000E+00 0. -1.
         21    1    1    2  502  503  0.28054029260E+02 -0.26098124065E+02 -0.35552907730E+02  0.52269971164E+02  0.00000000000E+00 0. -1.
         21    1    1    2  503  501 -0.19932315449E+02  0.31894302342E+02 -0.23516374436E+02  0.44357227006E+02  0.00000000000E+00 0. -1.
<scales pt_clust_5="13000.00000" pt_clust_6="13000.00000" pt_clust_7="13000.00000" pt_clust_8="13000.00000" pt_clust_9="33.11627" pt_clust_10="37.61042"></scales>
<clustering>
<clus scale="   37.610">  1 10  2 -1</clus>
<clus scale="   33.116">  1  9  2 -1</clus>
<clus scale="   91.327">  7  8 -1 -1</clus>
<clus scale="   91.386">  5  6 -1 -1</clus>
<clus scale="  108.009">  1  7  2 -1</clus>
<clus scale="  108.059">  2  5  1 -1</clus>
</clustering>
</event>
<event>
10    2  0.2445576E-006  0.1173270E+03  0.7546771E-02  0.1249536E+00
          1   -1    0    0  502    0  0.00000000000E+00  0.00000000000E+00  0.36416768558E+03  0.36416768558E+03  0.00000000000E+00 0. -1.
         -1   -1    0    0    0  501 -0.00000000000E+00 -0.00000000000E+00 -0.11251860732E+03  0.11251860732E+03  0.00000000000E+00 0.  1.
         23    2    1    2    0    0 -0.60029110867E+02  0.76759132578E+01  0.88777744295E+02  0.14442129320E+03  0.96507037310E+02 0.  0.
         23    2    1    2    0    0  0.67800881514E+02 -0.32768940763E+02  0.93426526334E+02  0.15057250804E+03  0.90954941268E+02 0.  0.
        -11    1    3    3    0    0 -0.24342756028E+02  0.51757416234E+02  0.44416633432E+02  0.72417105933E+02  0.00000000000E+00 0.  1.
         11    1    3    3    0    0 -0.35686354839E+02 -0.44081502976E+02  0.44361110863E+02  0.72004187263E+02  0.00000000000E+00 0. -1.
        -11    1    4    4    0    0  0.67256199415E+02 -0.72975043315E+01  0.10310581684E+03  0.12331852819E+03  0.00000000000E+00 0. -1.
         11    1    4    4    0    0  0.54468209921E+00 -0.25471436432E+02 -0.96792905095E+01  0.27253979843E+02  0.00000000000E+00 0.  1.
         21    1    1    2  502  503 -0.19989196844E+02 -0.19158352452E+01  0.12076659624E+03  0.12242470822E+03  0.00000000000E+00 0. -1.
         21    1    1    2  503  501  0.12217426198E+02  0.27008862751E+02 -0.51321788605E+02  0.59267783454E+02  0.00000000000E+00 0.  1.
<scales pt_clust_5="13000.00000" pt_clust_6="13000.00000" pt_clust_7="13000.00000" pt_clust_8="13000.00000" pt_clust_9="20.08080" pt_clust_10="29.48148"></scales>
<clustering>
<clus scale="   20.081">  1  9  2 -1</clus>
<clus scale="   29.481">  2 10  1 -1</clus>
<clus scale="   90.955">  7  8 -1 -1</clus>
<clus scale="   96.507">  5  6 -1 -1</clus>
<clus scale="  112.804">  1  7  2 -1</clus>
<clus scale="   20.081">  1  5  2 -1</clus>
</clustering>
</event>
<event>
10    2  0.2445576E-006  0.1195155E+03  0.7546771E-02  0.1246055E+00
          1   -1    0    0  502    0  0.00000000000E+00  0.00000000000E+00  0.27589665673E+03  0.27589665673E+03  0.00000000000E+00 0. -1.
         -1   -1    0    0    0  501 -0.00000000000E+00 -0.00000000000E+00 -0.85319598316E+02  0.85319598316E+02  0.00000000000E+00 0.  1.
         23    2    1    2    0    0 -0.48356310540E+02  0.50809836912E+02  0.83270044980E+02  0.14097504108E+03  0.89554952521E+02 0.  0.
         23    2    1    2    0    0  0.85466974571E+02 -0.35195299861E+02  0.95002539444E+02  0.15620555440E+03  0.82652161795E+02 0.  0.
        -11    1    3    3    0    0 -0.20516060533E+02  0.49163965223E+02  0.12048465226E+00  0.53273058227E+02  0.00000000000E+00 0.  1.
         11    1    3    3    0    0 -0.27840250008E+02  0.16458716888E+01  0.83149560327E+02  0.87701982855E+02  0.00000000000E+00 0. -1.
        -13    1    4    4    0    0  0.48106565189E+02 -0.49451201028E+02  0.93489202998E+02  0.11618904412E+03  0.00000000000E+00 0.  1.
         13    1    4    4    0    0  0.37360409382E+02  0.14255901167E+02  0.15133364461E+01  0.40016510273E+02  0.00000000000E+00 0. -1.
         21    1    1    2  502  503 -0.21145952403E+02  0.29627280919E+01  0.27798049899E+02  0.35052255833E+02  0.00000000000E+00 0.  1.
         21    1    1    2  503  501 -0.15964711627E+02 -0.18577265143E+02 -0.15493575909E+02  0.28983403733E+02  0.00000000000E+00 0.  1.
<scales pt_clust_5="13000.00000" pt_clust_6="13000.00000" pt_clust_7="13000.00000" pt_clust_8="13000.00000" pt_clust_9="21.35250" pt_clust_10="24.81783"></scales>
<clustering>
<clus scale="   21.352">  1  9  2 -1</clus>
<clus scale="   24.818">  2 10  1 -1</clus>
<clus scale="   82.652">  7  8 -1 -1</clus>
<clus scale="   89.555">  5  6 -1 -1</clus>
<clus scale="  114.434">  1  7  2 -1</clus>
<clus scale="   21.352">  1  5  2 -1</clus>
</clustering>
</event>
<event>
10    2  0.2445576E-006  0.1647901E+03  0.7546771E-02  0.1183929E+00
          1   -1    0    0  502    0  0.00000000000E+00  0.00000000000E+00  0.52810959776E+03  0.52810959776E+03  0.00000000000E+00 0. -1.
         -1   -1    0    0    0  501 -0.00000000000E+00 -0.00000000000E+00 -0.51957892792E+03  0.51957892792E+03  0.00000000000E+00 0.  1.
         23    2    1    2    0    0  0.60008642361E+02  0.89256268292E+02 -0.24021620371E+03  0.27880891837E+03  0.91993857665E+02 0.  0.
         23    2    1    2    0    0 -0.10395691372E+02 -0.12690894206E+03  0.47382228983E+02  0.16210884782E+03  0.88432194063E+02 0.  0.
        -11    1    3    3    0    0  0.31030241762E+02  0.81140765573E+02 -0.23182552928E+03  0.24756771956E+03  0.00000000000E+00 0.  1.
         11    1    3    3    0    0  0.28978400598E+02  0.81155027195E+01 -0.83906744324E+01  0.31241198810E+02  0.00000000000E+00 0. -1.
        -13    1    4    4    0    0  0.17062986693E+02 -0.96659281516E+02 -0.18022730278E+01  0.98170313263E+02  0.00000000000E+00 0. -1.
         13    1    4    4    0    0 -0.27458678065E+02 -0.30249660540E+02  0.49184502011E+02  0.63938534562E+02  0.00000000000E+00 0.  1.
         21    1    1    2  502  503  0.48188854903E+02 -0.35473883025E+02  0.38314001709E+03  0.38778452111E+03  0.00000000000E+00 0. -1.
         21    1    1    2  503  501 -0.97801805892E+02  0.73126556789E+02 -0.18177537252E+03  0.21898623838E+03  0.00000000000E+00 0.  1.
<scales pt_clust_5="13000.00000" pt_clust_6="13000.00000" pt_clust_7="13000.00000" pt_clust_8="13000.00000" pt_clust_9="59.83780" pt_clust_10="114.31312"></scales>
<clustering>
<clus scale="   59.838">  1  9  2 -1</clus>
<clus scale="   88.432">  7  8 -1 -1</clus>
<clus scale="   91.994">  5  6 -1 -1</clus>
<clus scale="  114.313">  2 10  1 -1</clus>
<clus scale="  162.829">  1  7  2 -1</clus>
<clus scale="   59.838">  1  5  2 -1</clus>
</clustering>
</event>
<event>
10    2  0.2445576E-006  0.1216536E+03  0.7546771E-02  0.1240464E+00
         -3   -1    0    0    0  501 -0.00000000000E+00  0.00000000000E+00  0.35482104089E+03  0.35482104089E+03  0.00000000000E+00 0.  1.
          3   -1    0    0  502    0  0.00000000000E+00 -0.00000000000E+00 -0.28728123602E+03  0.28728123602E+03  0.00000000000E+00 0. -1.
         23    2    1    2    0    0 -0.31917000210E+02  0.10193246166E+03  0.23849478298E+03  0.27653238370E+03  0.90451512347E+02 0.  0.
         23    2    1    2    0    0 -0.29214297279E+02 -0.11668611774E+03 -0.18599474458E+03  0.23917050658E+03  0.90218407035E+02 0.  0.
        -13    1    3    3    0    0 -0.35862295410E+02  0.29059466639E+01  0.35037041916E+02  0.50220942488E+02  0.00000000000E+00 0.  1.
         13    1    3    3    0    0  0.39452952002E+01  0.99026515000E+02  0.20345774106E+03  0.22631144122E+03  0.00000000000E+00 0. -1.
        -13    1    4    4    0    0  0.27253415415E+02 -0.23286114513E+02 -0.21624177334E+02  0.41864027831E+02  0.00000000000E+00 0.  1.
         13    1    4    4    0    0 -0.56467712694E+02 -0.93400003226E+02 -0.16437056725E+03  0.19730647875E+03  0.00000000000E+00 0. -1.
         21    1    1    2  502  503  0.13644402583E+02  0.45224416224E+02 -0.28465887861E+02  0.55151829674E+02  0.00000000000E+00 0.  1.
         21    1    1    2  503  501  0.47486894907E+02 -0.30470760148E+02  0.43505654332E+02  0.71247556946E+02  0.00000000000E+00 0.  1.
<scales pt_clust_5="13000.00000" pt_clust_6="13000.00000" pt_clust_7="13000.00000" pt_clust_8="13000.00000" pt_clust_9="47.23788" pt_clust_10="55.75022"></scales>
<clustering>
<clus scale="   47.238">  2  9  1 -1</clus>
<clus scale="   55.750">  1 10  2 -1</clus>
<clus scale="   90.218">  7  8 -1 -1</clus>
<clus scale="   90.452">  5  6 -1 -1</clus>
<clus scale="  121.480">  2  7  1 -1</clus>
<clus scale="   47.238">  2  5  1 -1</clus>
</clustering>
</event>
<event>
10    2  0.2445576E-006  0.2422487E+03  0.7546771E-02  0.1118329E+00
          1   -1    0    0  502    0  0.00000000000E+00  0.00000000000E+00  0.25176489324E+03  0.25176489324E+03  0.00000000000E+00 0. -1.
         -1   -1    0    0    0  501 -0.00000000000E+00 -0.00000000000E+00 -0.43459924513E+03  0.43459924513E+03  0.00000000000E+00 0.  1.
         23    2    1    2    0    0  0.27406411325E+02 -0.19818742099E+03 -0.24709479984E+03  0.33079005503E+03  0.91306380818E+02 0.  0.
         23    2    1    2    0    0 -0.54530462399E+02  0.24095610587E+03  0.72129157242E+02  0.27294689784E+03  0.90906421280E+02 0.  0.
        -13    1    4    4    0    0 -0.35865291817E+02  0.22488640126E+03  0.38028529561E+02  0.23088174829E+03  0.00000000000E+00 0. -1.
         13    1    4    4    0    0 -0.18665170582E+02  0.16069704610E+02  0.34100627680E+02  0.42065149558E+02  0.00000000000E+00 0.  1.
        -13    1    3    3    0    0  0.59903038430E+02 -0.12187020766E+03 -0.16967750402E+03  0.21732734964E+03  0.00000000000E+00 0.  1.
         13    1    3    3    0    0 -0.32496627105E+02 -0.76317213331E+02 -0.77417295817E+02  0.11346270539E+03  0.00000000000E+00 0. -1.
         21    1    1    2  502  503  0.20647321648E+02 -0.16900513877E+02  0.27509976740E+02  0.38324118786E+02  0.00000000000E+00 0.  1.
         21    1    1    2  503  501  0.64767294264E+01 -0.25868171004E+02 -0.35378686025E+02  0.44303066711E+02  0.00000000000E+00 0.  1.
<scales pt_clust_5="13000.00000" pt_clust_6="13000.00000" pt_clust_7="13000.00000" pt_clust_8="13000.00000" pt_clust_9="26.97615" pt_clust_10="26.66665"></scales>
<clustering>
<clus scale="   26.667">  2 10  1 -1</clus>
<clus scale="   26.976">  1  9  2 -1</clus>
<clus scale="   90.906">  5  6 -1 -1</clus>
<clus scale="   91.306">  7  8 -1 -1</clus>
<clus scale="  242.098">  1  5  2 -1</clus>
<clus scale="   26.976">  1  5  2 -1</clus>
</clustering>
</event>
<event>
10    2  0.2445576E-006  0.9632740E+02  0.7546771E-02  0.1290569E+00
          1   -1    0    0  503    0  0.00000000000E+00  0.00000000000E+00  0.27111802985E+03  0.27111802985E+03  0.00000000000E+00 0. -1.
         -1   -1    0    0    0  501 -0.00000000000E+00 -0.00000000000E+00 -0.10491091605E+03  0.10491091605E+03  0.00000000000E+00 0.  1.
         23    2    1    2    0    0  0.28748048673E+02 -0.50709303958E+01  0.58950284689E+02  0.11584343755E+03  0.95354083928E+02 0.  0.
         23    2    1    2    0    0 -0.24751340040E+01 -0.14834237086E+02  0.15942420311E+03  0.18425636295E+03  0.91149053057E+02 0.  0.
        -11    1    4    4    0    0  0.26586671740E+02 -0.18218064442E+02  0.15014030015E+03  0.15356060274E+03  0.00000000000E+00 0.  1.
         11    1    4    4    0    0 -0.29061805744E+02  0.33838273563E+01  0.92839029613E+01  0.30695760210E+02  0.00000000000E+00 0. -1.
        -13    1    3    3    0    0  0.63468329015E+02  0.27030322826E+01  0.31510426675E+02  0.70911509367E+02  0.00000000000E+00 0.  1.
         13    1    3    3    0    0 -0.34720280342E+02 -0.77739626784E+01  0.27439858014E+02  0.44931928187E+02  0.00000000000E+00 0. -1.
         21    1    1    2  502  501  0.46420633609E+00  0.27338686866E+02 -0.23888514935E+02  0.36308131773E+02  0.00000000000E+00 0.  1.
         21    1    1    2  503  502 -0.26737121006E+02 -0.74335193849E+01 -0.28278859062E+02  0.39621013616E+02  0.00000000000E+00 0.  1.
<scales pt_clust_5="13000.00000" pt_clust_6="13000.00000" pt_clust_7="13000.00000" pt_clust_8="13000.00000" pt_clust_9="27.34263" pt_clust_10="26.98855"></scales>
<clustering>
<clus scale="   27.343">  2  9  1 -1</clus>
<clus scale="   26.989">  2 10  1 -1</clus>
<clus scale="   91.149">  5  6 -1 -1</clus>
<clus scale="   92.167">  1  5  2 -1</clus>
<clus scale="   95.354">  7  8 -1 -1</clus>
<clus scale="   92.167">  1  5  2 -1</clus>
</clustering>
</event>
<event>
10    2  0.2445576E-006  0.1134603E+03  0.7546771E-02  0.1254459E+00
         -1   -1    0    0    0  501 -0.00000000000E+00  0.00000000000E+00  0.76541236921E+02  0.76541236921E+02  0.00000000000E+00 0.  1.
          1   -1    0    0  502    0  0.00000000000E+00 -0.00000000000E+00 -0.60769111764E+03  0.60769111764E+03  0.00000000000E+00 0. -1.
         23    2    1    2    0    0  0.43445866144E+01  0.98692116356E+02 -0.19763682133E+03  0.23897917837E+03  0.91058911063E+02 0.  0.
         23    2    1    2    0    0  0.43155189052E+02 -0.33187002407E+02 -0.28968568811E+03  0.30836430609E+03  0.90592493613E+02 0.  0.
        -11    1    4    4    0    0  0.68675453551E+02 -0.73501790712E+01 -0.17840477906E+03  0.19130762725E+03  0.00000000000E+00 0. -1.
         11    1    4    4    0    0 -0.25520264498E+02 -0.25836823335E+02 -0.11128090906E+03  0.11705667884E+03  0.00000000000E+00 0.  1.
        -11    1    3    3    0    0  0.16803969824E+02  0.11358890100E+02  0.23314644206E+01  0.20416500985E+02  0.00000000000E+00 0.  1.
         11    1    3    3    0    0 -0.12459383209E+02  0.87333226256E+02 -0.19996828575E+03  0.21856267738E+03  0.00000000000E+00 0. -1.
         21    1    1    2  502  503 -0.78692962302E+01 -0.27632482087E+02 -0.70351287077E+02  0.75991996176E+02  0.00000000000E+00 0.  1.
         21    1    1    2  503  501 -0.39630479437E+02 -0.37872631863E+02  0.26523915805E+02  0.60896873928E+02  0.00000000000E+00 0.  1.
<scales pt_clust_5="13000.00000" pt_clust_6="13000.00000" pt_clust_7="13000.00000" pt_clust_8="13000.00000" pt_clust_9="28.73117" pt_clust_10="55.61580"></scales>
<clustering>
<clus scale="   28.731">  2  9  1 -1</clus>
<clus scale="   55.616">  1 10  2 -1</clus>
<clus scale="   90.592">  5  6 -1 -1</clus>
<clus scale="   91.059">  7  8 -1 -1</clus>
<clus scale="  113.086">  2  5  1 -1</clus>
<clus scale="   28.731">  2  5  1 -1</clus>
</clustering>
</event>
<event>
10    2  0.2445576E-006  0.1520268E+03  0.7546771E-02  0.1200324E+00
         -2   -1    0    0    0  501 -0.00000000000E+00  0.00000000000E+00  0.15027777052E+03  0.15027777052E+03  0.00000000000E+00 0.  1.
          2   -1    0    0  502    0  0.00000000000E+00 -0.00000000000E+00 -0.70622627350E+03  0.70622627350E+03  0.00000000000E+00 0. -1.
         23    2    1    2    0    0  0.30617620160E+01  0.11914624055E+03 -0.17576722956E+03  0.23236813093E+03  0.94316638303E+02 0.  0.
         23    2    1    2    0    0 -0.93376858888E+02 -0.67348145716E+02 -0.33939296916E+03  0.37357269325E+03  0.10542276377E+03 0.  0.
        -11    1    3    3    0    0 -0.22360514092E+02  0.95726976471E+02 -0.68887315302E+02  0.12003794743E+03  0.00000000000E+00 0.  1.
         11    1    3    3    0    0  0.25422276108E+02  0.23419264079E+02 -0.10687991425E+03  0.11233018349E+03  0.00000000000E+00 0. -1.
        -13    1    4    4    0    0 -0.11409855105E+03 -0.51524488049E+02 -0.30976022719E+03  0.33410275451E+03  0.00000000000E+00 0.  1.
         13    1    4    4    0    0  0.20721692160E+02 -0.15823657667E+02 -0.29632741967E+02  0.39469938743E+02  0.00000000000E+00 0. -1.
         21    1    1    2  502  503  0.56068764439E+02 -0.59222567980E+02 -0.13070417636E+03  0.15406037979E+03  0.00000000000E+00 0. -1.
         21    1    1    2  503  501  0.34246332434E+02  0.74244731459E+01  0.89915872084E+02  0.96502840058E+02  0.00000000000E+00 0.  1.
<scales pt_clust_5="13000.00000" pt_clust_6="13000.00000" pt_clust_7="13000.00000" pt_clust_8="13000.00000" pt_clust_9="85.48882" pt_clust_10="35.04189"></scales>
<clustering>
<clus scale="   35.042">  1 10  2 -1</clus>
<clus scale="   85.489">  2  9  1 -1</clus>
<clus scale="   94.317">  5  6 -1 -1</clus>
<clus scale="  105.423">  7  8 -1 -1</clus>
<clus scale="  144.547">  1  5  2 -1</clus>
<clus scale="   85.489">  2  5  1 -1</clus>
</clustering>
</event>
<event>
10    2  0.2445576E-006  0.1173200E+03  0.7546771E-02  0.1248570E+00
         -1   -1    0    0    0  501 -0.00000000000E+00  0.00000000000E+00  0.19579273894E+03  0.19579273894E+03  0.00000000000E+00 0.  1.
          1   -1    0    0  502    0  0.00000000000E+00 -0.00000000000E+00 -0.15292658410E+03  0.15292658410E+03  0.00000000000E+00 0. -1.
         23    2    1    2    0    0 -0.43732645983E+02 -0.18611220267E+02  0.16313919636E+02  0.10419360116E+03  0.91275630398E+02 0.  0.
         23    2    1    2    0    0  0.69417965326E+02  0.73517393172E+02 -0.21965341393E+02  0.13603061678E+03  0.88307369289E+02 0.  0.
        -11    1    4    4    0    0 -0.11260615548E+02  0.22026956337E+02  0.19720797435E+02  0.31636973930E+02  0.00000000000E+00 0. -1.
         11    1    4    4    0    0  0.80678580874E+02  0.51490436836E+02 -0.41686138828E+02  0.10439364285E+03  0.00000000000E+00 0.  1.
        -13    1    3    3    0    0  0.18012908566E+02 -0.25284946718E+02  0.27038989251E+02  0.41169167411E+02  0.00000000000E+00 0.  1.
         13    1    3    3    0    0 -0.61745554549E+02  0.66737264510E+01 -0.10725069616E+02  0.63024433751E+02  0.00000000000E+00 0. -1.
         21    1    1    2  502  503 -0.10600665115E+02 -0.69170064025E+02  0.19186638387E+02  0.72560312504E+02  0.00000000000E+00 0. -1.
         21    1    1    2  503  501 -0.15084654227E+02  0.14263891119E+02  0.29330938206E+02  0.35934792598E+02  0.00000000000E+00 0.  1.
<scales pt_clust_5="13000.00000" pt_clust_6="13000.00000" pt_clust_7="13000.00000" pt_clust_8="13000.00000" pt_clust_9="66.82861" pt_clust_10="20.76067"></scales>
<clustering>
<clus scale="   20.761">  1 10  2 -1</clus>
<clus scale="   66.829">  1  9  2 -1</clus>
<clus scale="   88.307">  5  6 -1 -1</clus>
<clus scale="   91.276">  7  8 -1 -1</clus>
<clus scale="  115.026">  2  5  1 -1</clus>
<clus scale="  115.026">  2  5  1 -1</clus>
</clustering>
</event>
<event>
10    2  0.2445576E-006  0.2145646E+03  0.7546771E-02  0.1138153E+00
          1   -1    0    0  502    0  0.00000000000E+00  0.00000000000E+00  0.38561779550E+03  0.38561779550E+03  0.00000000000E+00 0. -1.
         -1   -1    0    0    0  501 -0.00000000000E+00 -0.00000000000E+00 -0.20972934647E+03  0.20972934647E+03  0.00000000000E+00 0.  1.
         23    2    1    2    0    0  0.17245833942E+03  0.98532652074E+02 -0.61433969750E+02  0.22739060268E+03  0.92096640474E+02 0.  0.
         23    2    1    2    0    0 -0.13015939801E+03 -0.80661702798E+02  0.17631069032E+03  0.25035528682E+03  0.90247054949E+02 0.  0.
        -11    1    3    3    0    0  0.60934298888E+02  0.66903850918E+01 -0.55663199160E+02  0.82801822289E+02  0.00000000000E+00 0.  1.
         11    1    3    3    0    0  0.11152404054E+03  0.91842266982E+02 -0.57707705899E+01  0.14458878039E+03  0.00000000000E+00 0. -1.
        -13    1    4    4    0    0 -0.55012533352E+02  0.88091029965E+01  0.86910227474E+02  0.10323452311E+03  0.00000000000E+00 0. -1.
         13    1    4    4    0    0 -0.75146864658E+02 -0.89470805795E+02  0.89400462848E+02  0.14712076371E+03  0.00000000000E+00 0.  1.
         21    1    1    2  502  503 -0.62345580264E+02 -0.31562428101E+02  0.61837092681E+02  0.93311222676E+02  0.00000000000E+00 0.  1.
         21    1    1    2  503  501  0.20046638849E+02  0.13691478826E+02 -0.82536422040E+00  0.24290029800E+02  0.00000000000E+00 0. -1.
<scales pt_clust_5="13000.00000" pt_clust_6="13000.00000" pt_clust_7="13000.00000" pt_clust_8="13000.00000" pt_clust_9="67.95900" pt_clust_10="24.27600"></scales>
<clustering>
<clus scale="   24.276">  2 10  1 -1</clus>
<clus scale="   67.959">  1  9  2 -1</clus>
<clus scale="   90.247">  7  8 -1 -1</clus>
<clus scale="   92.097">  5  6 -1 -1</clus>
<clus scale="  213.777">  1  7  2 -1</clus>
<clus scale="   67.959">  1  5  2 -1</clus>
</clustering>
</event>
<event>
10    2  0.2445576E-006  0.1520366E+03  0.7546771E-02  0.1198113E+00
          1   -1    0    0  502    0  0.00000000000E+00  0.00000000000E+00  0.92024282342E+03  0.92024282342E+03  0.00000000000E+00 0. -1.
         -1   -1    0    0    0  501 -0.00000000000E+00 -0.00000000000E+00 -0.69583953149E+02  0.69583953149E+02  0.00000000000E+00 0.  1.
         23    2    1    2    0    0 -0.28809372594E+02  0.11389709017E+03  0.68396950314E+02  0.16362451964E+03  0.91062140953E+02 0.  0.
         23    2    1    2    0    0 -0.52417282585E+01 -0.13962230015E+03  0.47658372134E+03  0.50504185143E+03  0.91724401519E+02 0.  0.
        -13    1    4    4    0    0  0.28735616439E+02 -0.61061753908E+02  0.11386845418E+03  0.13236426368E+03  0.00000000000E+00 0.  1.
         13    1    4    4    0    0 -0.33977344697E+02 -0.78560546239E+02  0.36271526716E+03  0.37267758775E+03  0.00000000000E+00 0. -1.
        -13    1    3    3    0    0 -0.59350366968E+02  0.97061105190E+02  0.52530341166E+02  0.12531065774E+03  0.00000000000E+00 0. -1.
         13    1    3    3    0    0  0.30540994374E+02  0.16835984983E+02  0.15866609148E+02  0.38313861898E+02  0.00000000000E+00 0.  1.
         21    1    1    2  502  503  0.58453735439E+02  0.32123531697E+02  0.26524466096E+03  0.27350226807E+03  0.00000000000E+00 0.  1.
         21    1    1    2  503  501 -0.24402634586E+02 -0.63983217224E+01  0.40433537665E+02  0.47658137434E+02  0.00000000000E+00 0. -1.
<scales pt_clust_5="13000.00000" pt_clust_6="13000.00000" pt_clust_7="13000.00000" pt_clust_8="13000.00000" pt_clust_9="65.16887" pt_clust_10="25.22751"></scales>
<clustering>
<clus scale="   25.228">  2 10  1 -1</clus>
<clus scale="   65.169">  1  9  2 -1</clus>
<clus scale="   91.062">  7  8 -1 -1</clus>
<clus scale="   91.724">  5  6 -1 -1</clus>
<clus scale="  151.638">  2  7  1 -1</clus>
<clus scale="   65.169">  1  5  2 -1</clus>
</clustering>
</event>
<event>
10    2  0.2445576E-006  0.1460783E+03  0.7546771E-02  0.1220474E+00
         -4   -1    0    0    0  501 -0.00000000000E+00  0.00000000000E+00  0.23622388145E+03  0.23622388145E+03  0.00000000000E+00 0.  1.
          4   -1    0    0  502    0  0.00000000000E+00 -0.00000000000E+00 -0.28362966604E+03  0.28362966604E+03  0.00000000000E+00 0. -1.
         23    2    1    2    0    0 -0.81083059702E+02 -0.38222315033E+02  0.10987159674E+03  0.16881745160E+03  0.91608712782E+02 0.  0.
         23    2    1    2    0    0 -0.58619307396E+02 -0.86148743445E+01 -0.92036752418E+02  0.14061174622E+03  0.88263583207E+02 0.  0.
        -11    1    4    4    0    0 -0.29097281517E+02  0.39758461530E+02 -0.48646545272E+02  0.69237803416E+02  0.00000000000E+00 0.  1.
         11    1    4    4    0    0 -0.29522025879E+02 -0.48373335874E+02 -0.43390207146E+02  0.71373942807E+02  0.00000000000E+00 0. -1.
        -11    1    3    3    0    0  0.74194321908E+01  0.18901231685E+02  0.31691539664E+02  0.37638520422E+02  0.00000000000E+00 0. -1.
         11    1    3    3    0    0 -0.88502491893E+02 -0.57123546718E+02  0.78180057081E+02  0.13117893118E+03  0.00000000000E+00 0.  1.
         21    1    1    2  502  503  0.12665372840E+03  0.88561610205E+02 -0.62228628638E+02  0.16660350519E+03  0.00000000000E+00 0.  1.
         21    1    1    2  503  501  0.13048638702E+02 -0.41724420828E+02 -0.30120002769E+01  0.43820844481E+02  0.00000000000E+00 0.  1.
<scales pt_clust_5="13000.00000" pt_clust_6="13000.00000" pt_clust_7="13000.00000" pt_clust_8="13000.00000" pt_clust_9="113.78363" pt_clust_10="43.71721"></scales>
<clustering>
<clus scale="   43.717">  1 10  2 -1</clus>
<clus scale="   88.264">  5  6 -1 -1</clus>
<clus scale="   91.609">  7  8 -1 -1</clus>
<clus scale="  105.990">  2  5  1 -1</clus>
<clus scale="  113.784">  2  9  1 -1</clus>
<clus scale="  105.990">  2  5  1 -1</clus>
</clustering>
</event>
<event>
10    2  0.2445576E-006  0.1428240E+03  0.7546771E-02  0.1220448E+00
         -1   -1    0    0    0  501 -0.00000000000E+00  0.00000000000E+00  0.34782566182E+02  0.34782566182E+02  0.00000000000E+00 0.  1.
          1   -1    0    0  502    0  0.00000000000E+00 -0.00000000000E+00 -0.11943500050E+04  0.11943500050E+04  0.00000000000E+00 0. -1.
         23    2    1    2    0    0 -0.48856533441E+01 -0.12727856246E+03 -0.61949550556E+03  0.64474253484E+03  0.12527790208E+03 0.  0.
         23    2    1    2    0    0 -0.30457897093E+02  0.27782492258E+02 -0.29845599870E+03  0.31455498592E+03  0.90384211217E+02 0.  0.
        -13    1    4    4    0    0 -0.30441627240E+02 -0.28398023981E+02 -0.10050347919E+03  0.10878460261E+03  0.00000000000E+00 0. -1.
         13    1    4    4    0    0 -0.16269853313E-01  0.56180516239E+02 -0.19795251951E+03  0.20577038332E+03  0.00000000000E+00 0.  1.
        -13    1    3    3    0    0  0.30313309334E+02 -0.13524759341E+03 -0.53884522415E+03  0.55638564309E+03  0.00000000000E+00 0.  1.
         13    1    3    3    0    0 -0.35198962678E+02  0.79690309530E+01 -0.80650281407E+02  0.88356891746E+02  0.00000000000E+00 0. -1.
         21    1    1    2  502  503  0.32307928273E+02  0.72365573138E+02 -0.22333662007E+03  0.23698064113E+03  0.00000000000E+00 0. -1.
         21    1    1    2  503  501  0.30356221648E+01  0.27130497064E+02 -0.18279314521E+02  0.32854409327E+02  0.00000000000E+00 0. -1.
<scales pt_clust_5="13000.00000" pt_clust_6="13000.00000" pt_clust_7="13000.00000" pt_clust_8="13000.00000" pt_clust_9="85.72861" pt_clust_10="27.29980"></scales>
<clustering>
<clus scale="   27.300">  1 10  2 -1</clus>
<clus scale="   85.729">  1  9  2 -1</clus>
<clus scale="   90.384">  5  6 -1 -1</clus>
<clus scale="  113.461">  2  5  1 -1</clus>
<clus scale="  125.278">  7  8 -1 -1</clus>
<clus scale="  113.461">  2  5  1 -1</clus>
</clustering>
</event>
<event>
10    2  0.2445576E-006  0.1070953E+03  0.7546771E-02  0.1266573E+00
         -4   -1    0    0    0  501 -0.00000000000E+00  0.00000000000E+00  0.37884287111E+03  0.37884287111E+03  0.00000000000E+00 0. -1.
          4   -1    0    0  502    0  0.00000000000E+00 -0.00000000000E+00 -0.15588315520E+03  0.15588315520E+03  0.00000000000E+00 0.  1.
         23    2    1    2    0    0 -0.56169590864E+02  0.86736941995E+01  0.15847682708E+03  0.19167974352E+03  0.91629490053E+02 0.  0.
         23    2    1    2    0    0  0.48297410257E+02 -0.11816124213E+02  0.14369938149E+03  0.17818719943E+03  0.92891900459E+02 0.  0.
        -13    1    4    4    0    0 -0.22013349342E+02 -0.84231089925E+01  0.72655801681E+01  0.24664244759E+02  0.00000000000E+00 0. -1.
         13    1    4    4    0    0  0.70310759599E+02 -0.33930152206E+01  0.13643380132E+03  0.15352295467E+03  0.00000000000E+00 0.  1.
        -13    1    3    3    0    0  0.44333287230E+01 -0.31420939599E+02  0.27936624134E+02  0.42277474107E+02  0.00000000000E+00 0.  1.
         13    1    3    3    0    0 -0.60602919587E+02  0.40094633799E+02  0.13054020295E+03  0.14940226942E+03  0.00000000000E+00 0. -1.
         21    1    1    2  502  503 -0.65055125344E+01  0.24453283309E+02 -0.11669739275E+03  0.11940923848E+03  0.00000000000E+00 0.  1.
         21    1    1    2  503  501  0.14377693141E+02 -0.21310853295E+02  0.37480900101E+02  0.45449844891E+02  0.00000000000E+00 0.  1.
<scales pt_clust_5="13000.00000" pt_clust_6="13000.00000" pt_clust_7="13000.00000" pt_clust_8="13000.00000" pt_clust_9="25.30385" pt_clust_10="23.20550"></scales>
<clustering>
<clus scale="   25.304">  2  9  1 -1</clus>
<clus scale="   23.205">  2 10  1 -1</clus>
<clus scale="   91.629">  7  8 -1 -1</clus>
<clus scale="   92.892">  5  6 -1 -1</clus>
<clus scale="  106.002">  1  7  2 -1</clus>
<clus scale="   25.304">  2  5  1 -1</clus>
</clustering>
</event>
<event>
10    2  0.2445576E-006  0.1125198E+03  0.7546771E-02  0.1258843E+00
          1   -1    0    0  502    0  0.00000000000E+00  0.00000000000E+00  0.59538533857E+03  0.59538533857E+03  0.00000000000E+00 0. -1.
         -1   -1    0    0    0  501 -0.00000000000E+00 -0.00000000000E+00 -0.29844457237E+03  0.29844457237E+03  0.00000000000E+00 0.  1.
         23    2    1    2    0    0  0.55144064532E+02  0.16409167696E+02 -0.14354695433E+03  0.18326077208E+03  0.98329313265E+02 0.  0.
         23    2    1    2    0    0  0.45459466429E+01 -0.55888781015E+02  0.52923188886E+03  0.53994735486E+03  0.91173090117E+02 0.  0.
        -11    1    3    3    0    0  0.13686125337E+02  0.36773004567E+02 -0.12899943083E+03  0.13483477684E+03  0.00000000000E+00 0.  1.
         11    1    3    3    0    0  0.41457939195E+02 -0.20363836870E+02 -0.14547523499E+02  0.48425995233E+02  0.00000000000E+00 0. -1.
        -11    1    4    4    0    0  0.13466276888E+02 -0.78182492397E+02  0.45683192184E+03  0.46366932996E+03  0.00000000000E+00 0. -1.
         11    1    4    4    0    0 -0.89203302450E+01  0.22293711382E+02  0.72399967015E+02  0.76278024900E+02  0.00000000000E+00 0.  1.
         21    1    1    2  502  503 -0.47838159702E+02  0.15529813113E+01  0.22211272363E+02  0.52765916031E+02  0.00000000000E+00 0. -1.
         21    1    1    2  503  501 -0.11851851474E+02  0.37926632007E+02 -0.11095544068E+03  0.11785586797E+03  0.00000000000E+00 0.  1.
<scales pt_clust_5="13000.00000" pt_clust_6="13000.00000" pt_clust_7="13000.00000" pt_clust_8="13000.00000" pt_clust_9="49.04783" pt_clust_10="39.73532"></scales>
<clustering>
<clus scale="   39.735">  2 10  1 -1</clus>
<clus scale="   49.048">  2  9  1 -1</clus>
<clus scale="   91.173">  7  8 -1 -1</clus>
<clus scale="   98.329">  5  6 -1 -1</clus>
<clus scale="  106.323">  1  7  2 -1</clus>
<clus scale="  106.323">  1  5  2 -1</clus>
</clustering>
</event>
<event>
10    2  0.2445576E-006  0.1388408E+03  0.7546771E-02  0.1216211E+00
         -1   -1    0    0    0  501 -0.00000000000E+00  0.00000000000E+00  0.99658711456E+03  0.99658711456E+03  0.00000000000E+00 0.  1.
          1   -1    0    0  502    0  0.00000000000E+00 -0.00000000000E+00 -0.32819022822E+02  0.32819022822E+02  0.00000000000E+00 0. -1.
         23    2    1    2    0    0 -0.61515717106E+00  0.10422935193E+03  0.37468688841E+03  0.39994112372E+03  0.93265759396E+02 0.  0.
         23    2    1    2    0    0  0.55427484395E+02 -0.95822576182E+02  0.28203810793E+03  0.31536674004E+03  0.87501510084E+02 0.  0.
        -11    1    3    3    0    0  0.40798976436E+02  0.25609299244E+02  0.95618878491E+02  0.10706709396E+03  0.00000000000E+00 0. -1.
         11    1    3    3    0    0 -0.41414133607E+02  0.78620052688E+02  0.27906800992E+03  0.29287402976E+03  0.00000000000E+00 0.  1.
        -11    1    4    4    0    0 -0.14399820936E+02 -0.58869159655E+02  0.14554696058E+03  0.15766055479E+03  0.00000000000E+00 0.  1.
         11    1    4    4    0    0  0.69827305330E+02 -0.36953416527E+02  0.13649114735E+03  0.15770618525E+03  0.00000000000E+00 0. -1.
         21    1    1    2  502  503 -0.22359467872E+02  0.51655120818E+01  0.54753085646E+02  0.59367741294E+02  0.00000000000E+00 0.  1.
         21    1    1    2  503  501 -0.32452859351E+02 -0.13572287831E+02  0.25229000975E+03  0.25473053232E+03  0.00000000000E+00 0.  1.
<scales pt_clust_5="13000.00000" pt_clust_6="13000.00000" pt_clust_7="13000.00000" pt_clust_8="13000.00000" pt_clust_9="22.94838" pt_clust_10="35.92590"></scales>
<clustering>
<clus scale="   22.948">  2  9  1 -1</clus>
<clus scale="   35.926">  1 10  2 -1</clus>
<clus scale="   87.502">  7  8 -1 -1</clus>
<clus scale="   93.266">  5  6 -1 -1</clus>
<clus scale="  135.036">  2  7  1 -1</clus>
<clus scale="   22.948">  2  5  1 -1</clus>
</clustering>
</event>
<event>
10    2  0.2445576E-006  0.9529895E+02  0.7546771E-02  0.1291527E+00
         -2   -1    0    0    0  501 -0.00000000000E+00  0.00000000000E+00  0.60046807205E+02  0.60046807205E+02  0.00000000000E+00 0.  1.
          2   -1    0    0  502    0  0.00000000000E+00 -0.00000000000E+00 -0.36530881110E+03  0.36530881110E+03  0.00000000000E+00 0. -1.
         23    2    1    2    0    0  0.10565411587E+02  0.12187495029E+02 -0.68363155767E+02  0.11644760329E+03  0.92878201366E+02 0.  0.
         23    2    1    2    0    0  0.37319514597E+02  0.40022807646E+01 -0.18835345448E+03  0.21253533475E+03  0.91024613591E+02 0.  0.
        -13    1    4    4    0    0  0.32035217579E+02  0.38122046819E+02 -0.16088593871E+03  0.16841564919E+03  0.00000000000E+00 0. -1.
         13    1    4    4    0    0  0.52842970174E+01 -0.34119766054E+02 -0.27467515773E+02  0.44119685553E+02  0.00000000000E+00 0.  1.
        -13    1    3    3    0    0 -0.17453844528E+02  0.18487536539E+02 -0.81128771210E+02  0.85019428451E+02  0.00000000000E+00 0. -1.
         13    1    3    3    0    0  0.28019256115E+02 -0.63000415109E+01  0.12765615443E+02  0.31428174842E+02  0.00000000000E+00 0.  1.
         21    1    1    2  502  503 -0.40108975150E+02  0.14458066884E+02 -0.48736128840E+02  0.64753191736E+02  0.00000000000E+00 0.  1.
         21    1    1    2  503  501 -0.77759510333E+01 -0.30647842677E+02  0.19073519015E+00  0.31619488534E+02  0.00000000000E+00 0.  1.
<scales pt_clust_5="13000.00000" pt_clust_6="13000.00000" pt_clust_7="13000.00000" pt_clust_8="13000.00000" pt_clust_9="42.46244" pt_clust_10="31.61891"></scales>
<clustering>
<clus scale="   31.619">  1 10  2 -1</clus>
<clus scale="   42.462">  1  9  2 -1</clus>
<clus scale="   91.025">  5  6 -1 -1</clus>
<clus scale="   92.878">  7  8 -1 -1</clus>
<clus scale="   93.493">  2  5  1 -1</clus>
<clus scale="   93.493">  2  5  1 -1</clus>
</clustering>
</event>
<event>
10    2  0.2445576E-006  0.1242514E+03  0.7546771E-02  0.1236764E+00
         -2   -1    0    0    0  501 -0.00000000000E+00  0.00000000000E+00  0.25145941019E+03  0.25145941019E+03  0.00000000000E+00 0.  1.
          2   -1    0    0  502    0  0.00000000000E+00 -0.00000000000E+00 -0.19625392029E+03  0.19625392029E+03  0.00000000000E+00 0. -1.
         23    2    1    2    0    0  0.13222787569E+02 -0.77865491737E+02  0.87598830764E+02  0.14813964657E+03  0.89632152831E+02 0.  0.
         23    2    1    2    0    0  0.51596374701E+02  0.78671794083E+02  0.37044338856E+01  0.13123890203E+03  0.91424775136E+02 0.  0.
        -13    1    4    4    0    0  0.50772320984E+02  0.10511918118E+02  0.27934858083E+02  0.58895545645E+02  0.00000000000E+00 0.  1.
         13    1    4    4    0    0  0.82405371670E+00  0.68159875964E+02 -0.24230424197E+02  0.72343356383E+02  0.00000000000E+00 0. -1.
        -13    1    3    3    0    0 -0.20620007322E+02  0.11620002973E+02  0.14729350425E+02  0.27877642207E+02  0.00000000000E+00 0. -1.
         13    1    3    3    0    0  0.33842794891E+02 -0.89485494709E+02  0.72869480339E+02  0.12026200437E+03  0.00000000000E+00 0.  1.
         21    1    1    2  502  503 -0.28800175976E+02  0.12993630072E+02 -0.93771460071E+02  0.98951358165E+02  0.00000000000E+00 0. -1.
         21    1    1    2  503  501 -0.36018986294E+02 -0.13799932418E+02  0.57673685317E+02  0.69383423715E+02  0.00000000000E+00 0. -1.
<scales pt_clust_5="13000.00000" pt_clust_6="13000.00000" pt_clust_7="13000.00000" pt_clust_8="13000.00000" pt_clust_9="31.59564" pt_clust_10="39.89759"></scales>
<clustering>
<clus scale="   31.596">  2  9  1 -1</clus>
<clus scale="   39.898">  1 10  2 -1</clus>
<clus scale="   89.632">  7  8 -1 -1</clus>
<clus scale="   91.425">  5  6 -1 -1</clus>
<clus scale="  122.938">  1  7  2 -1</clus>
<clus scale="   31.596">  2  5  1 -1</clus>
</clustering>
</event>
<event>
10    2  0.2445576E-006  0.1585995E+03  0.7546771E-02  0.1210817E+00
          1   -1    0    0  502    0  0.00000000000E+00  0.00000000000E+00  0.22100117022E+03  0.22100117022E+03  0.00000000000E+00 0. -1.
         -1   -1    0    0    0  501 -0.00000000000E+00 -0.00000000000E+00 -0.41284753253E+03  0.41284753253E+03  0.00000000000E+00 0.  1.
         23    2    1    2    0    0 -0.36705723981E+02 -0.12755018941E+03 -0.15125255048E+03  0.22098001578E+03  0.91315236162E+02 0.  0.
         23    2    1    2    0    0  0.62795327164E+02 -0.41863889657E+01  0.30293735790E+01  0.11151247502E+03  0.92005847717E+02 0.  0.
        -11    1    4    4    0    0 -0.18365399879E+02  0.16721191212E+02  0.11315632220E+02  0.27293399950E+02  0.00000000000E+00 0.  1.
         11    1    4    4    0    0  0.81160727044E+02 -0.20907580178E+02 -0.82862586411E+01  0.84219075068E+02  0.00000000000E+00 0. -1.
        -13    1    3    3    0    0 -0.61193526720E+02 -0.11090465927E+03 -0.14125075720E+03  0.18972682354E+03  0.00000000000E+00 0.  1.
         13    1    3    3    0    0  0.24487802738E+02 -0.16645530135E+02 -0.10001793287E+02  0.31253192243E+02  0.00000000000E+00 0. -1.
         21    1    1    2  502  503  0.73635247032E+02  0.84363145149E+02  0.78478457891E+02  0.13674120892E+03  0.00000000000E+00 0. -1.
         21    1    1    2  503  501 -0.99724850215E+02  0.47373433224E+02 -0.12210164330E+03  0.16461500303E+03  0.00000000000E+00 0.  1.
<scales pt_clust_5="13000.00000" pt_clust_6="13000.00000" pt_clust_7="13000.00000" pt_clust_8="13000.00000" pt_clust_9="129.67397" pt_clust_10="110.40511"></scales>
<clustering>
<clus scale="   91.315">  7  8 -1 -1</clus>
<clus scale="   92.006">  5  6 -1 -1</clus>
<clus scale="  110.405">  2 10  1 -1</clus>
<clus scale="  101.582">  1  5  2 -1</clus>
<clus scale="  129.674">  1  9  2 -1</clus>
<clus scale="  101.582">  1  5  2 -1</clus>
</clustering>
</event>
<event>
10    2  0.2445576E-006  0.1319214E+03  0.7546771E-02  0.1225867E+00
          1   -1    0    0  502    0  0.00000000000E+00  0.00000000000E+00  0.90887785438E+03  0.90887785438E+03  0.00000000000E+00 0. -1.
         -1   -1    0    0    0  501 -0.00000000000E+00 -0.00000000000E+00 -0.62266511747E+02  0.62266511747E+02  0.00000000000E+00 0.  1.
         23    2    1    2    0    0  0.13155070921E+02  0.31593323646E+02  0.62778377895E+02  0.11954436916E+03  0.95804684004E+02 0.  0.
         23    2    1    2    0    0 -0.28862797749E+02 -0.12724100003E+03  0.59155254792E+03  0.61258838938E+03  0.91141563871E+02 0.  0.
        -13    1    4    4    0    0 -0.40713721444E+02 -0.26262534475E+02  0.10661304942E+03  0.11710538048E+03  0.00000000000E+00 0.  1.
         13    1    4    4    0    0  0.11850923695E+02 -0.10097846556E+03  0.48493949850E+03  0.49548300890E+03  0.00000000000E+00 0. -1.
        -13    1    3    3    0    0 -0.40781966721E+02  0.50573019265E+01  0.31526842997E+02  0.51794661326E+02  0.00000000000E+00 0. -1.
         13    1    3    3    0    0  0.53937037643E+02  0.26536021720E+02  0.31251534897E+02  0.67749707835E+02  0.00000000000E+00 0.  1.
         21    1    1    2  502  503 -0.17589945983E+02  0.33354220924E+02  0.15424531389E+03  0.15878767934E+03  0.00000000000E+00 0.  1.
         21    1    1    2  503  501  0.33297672811E+02  0.62293455464E+02  0.38035102919E+02  0.80223928241E+02  0.00000000000E+00 0.  1.
<scales pt_clust_5="13000.00000" pt_clust_6="13000.00000" pt_clust_7="13000.00000" pt_clust_8="13000.00000" pt_clust_9="37.70823" pt_clust_10="72.33614"></scales>
<clustering>
<clus scale="   37.708">  1  9  2 -1</clus>
<clus scale="   72.336">  2 10  1 -1</clus>
<clus scale="   91.142">  5  6 -1 -1</clus>
<clus scale="   95.805">  7  8 -1 -1</clus>
<clus scale="  128.575">  1  5  2 -1</clus>
<clus scale="   37.708">  1  5  2 -1</clus>
</clustering>
</event>
<event>
10    2  0.2445576E-006  0.2211418E+03  0.7546771E-02  0.1157931E+00
         -1   -1    0    0    0  501 -0.00000000000E+00  0.00000000000E+00  0.34884442100E+03  0.34884442100E+03  0.00000000000E+00 0.  1.
          1   -1    0    0  502    0  0.00000000000E+00 -0.00000000000E+00 -0.31597351650E+03  0.31597351650E+03  0.00000000000E+00 0. -1.
         23    2    1    2    0    0 -0.73325428285E+02 -0.16784290944E+03  0.10724853408E+03  0.23813237007E+03  0.10796720303E+03 0.  0.
         23    2    1    2    0    0 -0.89462496829E+02  0.95289105328E+01  0.12014065887E+02  0.13069790343E+03  0.94038639436E+02 0.  0.
        -11    1    4    4    0    0 -0.36994893961E+02  0.49856469708E+02 -0.52596930457E+01  0.62305329803E+02  0.00000000000E+00 0.  1.
         11    1    4    4    0    0 -0.52467602868E+02 -0.40327559175E+02  0.17273758933E+02  0.68392573628E+02  0.00000000000E+00 0. -1.
        -11    1    3    3    0    0 -0.90647440993E+02 -0.13226181596E+03  0.11562145635E+03  0.19768274504E+03  0.00000000000E+00 0.  1.
         11    1    3    3    0    0  0.17322012707E+02 -0.35581093480E+02 -0.83729222657E+01  0.40449625025E+02  0.00000000000E+00 0. -1.
         21    1    1    2  502  503  0.48610058851E+02 -0.20737567342E+02 -0.63172840361E+02  0.82363780147E+02  0.00000000000E+00 0.  1.
         21    1    1    2  503  501  0.11417786626E+03  0.17905156625E+03 -0.23218855114E+02  0.21362388385E+03  0.00000000000E+00 0. -1.
<scales pt_clust_5="13000.00000" pt_clust_6="13000.00000" pt_clust_7="13000.00000" pt_clust_8="13000.00000" pt_clust_9="52.84869" pt_clust_10="192.99426"></scales>
<clustering>
<clus scale="   52.849">  2  9  1 -1</clus>
<clus scale="   94.039">  5  6 -1 -1</clus>
<clus scale="  107.967">  7  8 -1 -1</clus>
<clus scale="  122.005">  2  5  1 -1</clus>
<clus scale="  192.994">  2 10  1 -1</clus>
<clus scale="   52.849">  2  5  1 -1</clus>
</clustering>
</event>
<event>
10    2  0.2445576E-006  0.1124031E+03  0.7546771E-02  0.1256197E+00
         -2   -1    0    0    0  501 -0.00000000000E+00  0.00000000000E+00  0.23147190715E+03  0.23147190715E+03  0.00000000000E+00 0.  1.
          2   -1    0    0  502    0  0.00000000000E+00 -0.00000000000E+00 -0.12263581246E+03  0.12263581246E+03  0.00000000000E+00 0. -1.
         23    2    1    2    0    0 -0.91055572036E+02 -0.10928384970E+02  0.46221451444E+02  0.13683708509E+03  0.90429079859E+02 0.  0.
         23    2    1    2    0    0  0.43511252849E+02  0.96755358746E+01  0.46150582209E+02  0.11090906691E+03  0.90466014419E+02 0.  0.
        -11    1    4    4    0    0  0.69972879700E+01 -0.29797191337E+02 -0.10919833510E+02  0.32497344728E+02  0.00000000000E+00 0. -1.
         11    1    4    4    0    0  0.36513964879E+02  0.39472727211E+02  0.57070415719E+02  0.78411722179E+02  0.00000000000E+00 0.  1.
        -11    1    3    3    0    0 -0.50701939242E+02 -0.11571721990E+02 -0.22877505798E+02  0.56815241478E+02  0.00000000000E+00 0.  1.
         11    1    3    3    0    0 -0.40353632794E+02  0.64333702056E+00  0.69098957243E+02  0.80021843607E+02  0.00000000000E+00 0. -1.
         21    1    1    2  502  503  0.11716451081E+02 -0.23422677641E+02 -0.31924564120E+02  0.41292551968E+02  0.00000000000E+00 0.  1.
         21    1    1    2  503  501  0.35827868106E+02  0.24675526736E+02  0.48388625154E+02  0.65069015645E+02  0.00000000000E+00 0. -1.
<scales pt_clust_5="13000.00000" pt_clust_6="13000.00000" pt_clust_7="13000.00000" pt_clust_8="13000.00000" pt_clust_9="26.18964" pt_clust_10="43.22374"></scales>
<clustering>
<clus scale="   26.190">  2  9  1 -1</clus>
<clus scale="   43.224">  1 10  2 -1</clus>
<clus scale="   90.429">  7  8 -1 -1</clus>
<clus scale="   90.466">  5  6 -1 -1</clus>
<clus scale="  112.373">  1  7  2 -1</clus>
<clus scale="   26.190">  2  5  1 -1</clus>
</clustering>
</event>
<event>
10    2  0.2445576E-006  0.1340001E+03  0.7546771E-02  0.1223121E+00
          1   -1    0    0  502    0  0.00000000000E+00  0.00000000000E+00  0.56581655198E+03  0.56581655198E+03  0.00000000000E+00 0. -1.
         -1   -1    0    0    0  501 -0.00000000000E+00 -0.00000000000E+00 -0.63275744034E+02  0.63275744034E+02  0.00000000000E+00 0.  1.
         23    2    1    2    0    0  0.62528028968E+02 -0.57911541172E+02  0.19102230919E+03  0.22924507396E+03  0.93809809276E+02 0.  0.
         23    2    1    2    0    0 -0.61728155531E+02  0.86724560569E+02  0.27321805571E+03  0.30610469738E+03  0.87866177797E+02 0.  0.
        -11    1    3    3    0    0  0.58613556059E+02  0.83058476327E+01  0.10596781048E+03  0.12138250663E+03  0.00000000000E+00 0.  1.
         11    1    3    3    0    0  0.39144729094E+01 -0.66217388805E+02  0.85054498717E+02  0.10786256733E+03  0.00000000000E+00 0. -1.
        -13    1    4    4    0    0 -0.16459877648E+02  0.61033955957E+02  0.61912742639E+02  0.88483100381E+02  0.00000000000E+00 0.  1.
         13    1    4    4    0    0 -0.45268277883E+02  0.25690604611E+02  0.21130531308E+03  0.21762159700E+03  0.00000000000E+00 0. -1.
         21    1    1    2  502  503  0.19975652487E+02  0.98335867695E+01  0.44180224324E+02  0.49473410459E+02  0.00000000000E+00 0. -1.
         21    1    1    2  503  501 -0.20775525924E+02 -0.38646606166E+02 -0.58797812842E+01  0.44269114217E+02  0.00000000000E+00 0.  1.
<scales pt_clust_5="13000.00000" pt_clust_6="13000.00000" pt_clust_7="13000.00000" pt_clust_8="13000.00000" pt_clust_9="22.26491" pt_clust_10="43.20940"></scales>
<clustering>
<clus scale="   22.265">  1  9  2 -1</clus>
<clus scale="   43.209">  2 10  1 -1</clus>
<clus scale="   87.866">  7  8 -1 -1</clus>
<clus scale="   93.810">  5  6 -1 -1</clus>
<clus scale="  129.908">  1  7  2 -1</clus>
<clus scale="   22.265">  1  5  2 -1</clus>
</clustering>
</event>
<event>
10    2  0.2445576E-006  0.1385236E+03  0.7546771E-02  0.1218405E+00
         -1   -1    0    0    0  501 -0.00000000000E+00  0.00000000000E+00  0.12622922795E+03  0.12622922795E+03  0.00000000000E+00 0.  1.
          1   -1    0    0  502    0  0.00000000000E+00 -0.00000000000E+00 -0.46199690097E+03  0.46199690097E+03  0.00000000000E+00 0. -1.
         23    2    1    2    0    0  0.47732581156E+02 -0.67524893326E+02  0.35171253915E+00  0.12496777792E+03  0.93695310953E+02 0.  0.
         23    2    1    2    0    0 -0.13250226796E+02  0.89561494133E+02 -0.98218452242E+02  0.17017264203E+03  0.10542786155E+03 0.  0.
        -11    1    3    3    0    0  0.21848220758E+02 -0.31812140679E+02  0.46970007541E+02  0.60790942197E+02  0.00000000000E+00 0.  1.
         11    1    3    3    0    0  0.25884360398E+02 -0.35712752647E+02 -0.46618295001E+02  0.64176835725E+02  0.00000000000E+00 0. -1.
        -11    1    4    4    0    0  0.36215605590E+01 -0.23503115384E+02 -0.24527580578E+02  0.34163055231E+02  0.00000000000E+00 0.  1.
         11    1    4    4    0    0 -0.16871787355E+02  0.11306460952E+03 -0.73690871663E+02  0.13600958680E+03  0.00000000000E+00 0. -1.
         21    1    1    2  502  503 -0.77651428494E+02 -0.11403126349E+02 -0.23586454070E+03  0.24857967977E+03  0.00000000000E+00 0. -1.
         21    1    1    2  503  501  0.43169074133E+02 -0.10633474458E+02 -0.20363926186E+01  0.44506029204E+02  0.00000000000E+00 0.  1.
<scales pt_clust_5="13000.00000" pt_clust_6="13000.00000" pt_clust_7="13000.00000" pt_clust_8="13000.00000" pt_clust_9="75.99838" pt_clust_10="44.45942"></scales>
<clustering>
<clus scale="   44.459">  1 10  2 -1</clus>
<clus scale="   75.998">  2  9  1 -1</clus>
<clus scale="   93.695">  5  6 -1 -1</clus>
<clus scale="  105.428">  7  8 -1 -1</clus>
<clus scale="  129.817">  1  5  2 -1</clus>
<clus scale="   75.998">  2  5  1 -1</clus>
</clustering>
</event>
<event>
10    2  0.2445576E-006  0.9880847E+02  0.7546771E-02  0.1283357E+00
          1   -1    0    0  502    0  0.00000000000E+00  0.00000000000E+00  0.39422865702E+03  0.39422865702E+03  0.00000000000E+00 0. -1.
         -1   -1    0    0    0  501 -0.00000000000E+00 -0.00000000000E+00 -0.94477713981E+02  0.94477713981E+02  0.00000000000E+00 0.  1.
         23    2    1    2    0    0 -0.56903202533E+02 -0.13797818309E+02 -0.15048943203E+02  0.11201502466E+03  0.94300269406E+02 0.  0.
         23    2    1    2    0    0 -0.15349752451E+02 -0.86732767518E+01  0.11038313068E+03  0.14557370155E+03  0.93254632140E+02 0.  0.
        -11    1    3    3    0    0  0.66773056262E+01  0.30553115505E+02  0.56448835937E+01  0.31779615924E+02  0.00000000000E+00 0. -1.
         11    1    3    3    0    0 -0.63580508159E+02 -0.44350933814E+02 -0.20693826796E+02  0.80235408739E+02  0.00000000000E+00 0.  1.
        -13    1    4    4    0    0 -0.42222367084E+02  0.27076701156E+02  0.60003646527E+02  0.78206864304E+02  0.00000000000E+00 0.  1.
         13    1    4    4    0    0  0.26872614633E+02 -0.35749977908E+02  0.50379484152E+02  0.67366837250E+02  0.00000000000E+00 0. -1.
         21    1    1    2  502  503  0.60005360087E+02  0.64971416950E+00  0.19558092819E+03  0.20457997175E+03  0.00000000000E+00 0. -1.
         21    1    1    2  503  501  0.12247594897E+02  0.21821380891E+02  0.88358273673E+01  0.26537673033E+02  0.00000000000E+00 0. -1.
<scales pt_clust_5="13000.00000" pt_clust_6="13000.00000" pt_clust_7="13000.00000" pt_clust_8="13000.00000" pt_clust_9="60.67555" pt_clust_10="25.02351"></scales>
<clustering>
<clus scale="   25.024">  2 10  1 -1</clus>
<clus scale="   60.676">  1  9  2 -1</clus>
<clus scale="   93.255">  7  8 -1 -1</clus>
<clus scale="   94.300">  5  6 -1 -1</clus>
<clus scale="   97.811">  1  7  2 -1</clus>
<clus scale="   60.676">  1  5  2 -1</clus>
</clustering>
</event>
<event>
10    2  0.2445576E-006  0.2466578E+03  0.7546771E-02  0.1115636E+00
          2   -1    0    0  502    0  0.00000000000E+00  0.00000000000E+00  0.12263359062E+04  0.12263359062E+04  0.00000000000E+00 0. -1.
         -2   -1    0    0    0  501 -0.00000000000E+00 -0.00000000000E+00 -0.41272285005E+03  0.41272285005E+03  0.00000000000E+00 0.  1.
         23    2    1    2    0    0 -0.19997068368E+03  0.84364458443E+02 -0.25559942039E+03  0.34740887432E+03  0.90863777567E+02 0.  0.
         23    2    1    2    0    0  0.40053936065E+03 -0.80995032896E+02  0.48997238621E+03  0.64492996132E+03  0.94179302236E+02 0.  0.
        -11    1    4    4    0    0  0.23711573561E+03 -0.36416277100E+02  0.35441972789E+03  0.42797588814E+03  0.00000000000E+00 0. -1.
         11    1    4    4    0    0  0.16342362504E+03 -0.44578755797E+02  0.13555265832E+03  0.21695407318E+03  0.00000000000E+00 0.  1.
        -13    1    3    3    0    0 -0.27063428474E+02  0.32005316147E+02 -0.11015780789E+02  0.43337245515E+02  0.00000000000E+00 0. -1.
         13    1    3    3    0    0 -0.17290725521E+03  0.52359142296E+02 -0.24458363960E+03  0.30407162881E+03  0.00000000000E+00 0.  1.
         21    1    1    2  502  503 -0.22377004991E+03 -0.28381069545E+02  0.56742830389E+03  0.61061722904E+03  0.00000000000E+00 0. -1.
         21    1    1    2  503  501  0.23201372941E+02  0.25011643999E+02  0.11811786484E+02  0.36102691614E+02  0.00000000000E+00 0.  1.
<scales pt_clust_5="13000.00000" pt_clust_6="13000.00000" pt_clust_7="13000.00000" pt_clust_8="13000.00000" pt_clust_9="224.15532" pt_clust_10="34.11577"></scales>
<clustering>
<clus scale="   34.116">  2 10  1 -1</clus>
<clus scale="   90.864">  7  8 -1 -1</clus>
<clus scale="   94.179">  5  6 -1 -1</clus>
<clus scale="  224.155">  1  9  2 -1</clus>
<clus scale="  245.411">  2  7  1 -1</clus>
<clus scale="  224.155">  1  5  2 -1</clus>
</clustering>
</event>
<event>
10    2  0.2445576E-006  0.1136225E+03  0.7546771E-02  0.1254847E+00
         -1   -1    0    0    0  501 -0.00000000000E+00  0.00000000000E+00  0.16993662668E+03  0.16993662668E+03  0.00000000000E+00 0.  1.
          1   -1    0    0  502    0  0.00000000000E+00 -0.00000000000E+00 -0.23459105005E+03  0.23459105005E+03  0.00000000000E+00 0. -1.
         23    2    1    2    0    0  0.20946672170E+02  0.28778841275E+02 -0.35016623481E+02  0.10680523798E+03  0.94415094983E+02 0.  0.
         23    2    1    2    0    0 -0.40978678000E+02 -0.75473806460E+02 -0.10654212074E+03  0.16497591083E+03  0.92142716212E+02 0.  0.
        -13    1    4    4    0    0  0.15781130104E+02  0.12928211277E+02 -0.23069999522E+02  0.30796226913E+02  0.00000000000E+00 0.  1.
         13    1    4    4    0    0 -0.56759808104E+02 -0.88402017737E+02 -0.83472121219E+02  0.13417968392E+03  0.00000000000E+00 0. -1.
        -13    1    3    3    0    0  0.47627746629E+02 -0.13416247449E+02 -0.26599395860E+02  0.56177627261E+02  0.00000000000E+00 0.  1.
         13    1    3    3    0    0 -0.26681074459E+02  0.42195088724E+02 -0.84172276211E+01  0.50627610723E+02  0.00000000000E+00 0. -1.
         21    1    1    2  502  503 -0.35496439499E+01  0.41594460748E+02 -0.96886358465E+01  0.42855207404E+02  0.00000000000E+00 0.  1.
         21    1    1    2  503  501  0.23581649780E+02  0.51005044372E+01  0.86592956697E+02  0.89891320501E+02  0.00000000000E+00 0.  1.
<scales pt_clust_5="13000.00000" pt_clust_6="13000.00000" pt_clust_7="13000.00000" pt_clust_8="13000.00000" pt_clust_9="42.64777" pt_clust_10="24.12694"></scales>
<clustering>
<clus scale="   24.127">  1 10  2 -1</clus>
<clus scale="   42.648">  1  9  2 -1</clus>
<clus scale="   92.143">  5  6 -1 -1</clus>
<clus scale="   94.415">  7  8 -1 -1</clus>
<clus scale="  111.741">  2  5  1 -1</clus>
<clus scale="  111.741">  2  5  1 -1</clus>
</clustering>
</event>
<event>
10    2  0.2445576E-006  0.2160950E+03  0.7546771E-02  0.1136869E+00
          1   -1    0    0  502    0  0.00000000000E+00  0.00000000000E+00  0.33268668663E+03  0.33268668663E+03  0.00000000000E+00 0. -1.
         -1   -1    0    0    0  501 -0.00000000000E+00 -0.00000000000E+00 -0.37427128838E+03  0.37427128838E+03  0.00000000000E+00 0.  1.
         23    2    1    2    0    0 -0.35131575220E+02 -0.15821320427E+03 -0.14753809004E+03  0.23741343068E+03  0.91279808682E+02 0.  0.
         23    2    1    2    0    0  0.79082684130E+02  0.17287162978E+03  0.18644870715E+03  0.28131956407E+03  0.90768416394E+02 0.  0.
        -11    1    4    4    0    0  0.91515126840E+02  0.10040881138E+03  0.10584172924E+03  0.17221910316E+03  0.00000000000E+00 0. -1.
         11    1    4    4    0    0 -0.12432442710E+02  0.72462818398E+02  0.80606977919E+02  0.10910046091E+03  0.00000000000E+00 0.  1.
        -13    1    3    3    0    0 -0.11924131150E+02 -0.12241369371E+03 -0.15083331110E+03  0.19462267352E+03  0.00000000000E+00 0.  1.
         13    1    3    3    0    0 -0.23207444070E+02 -0.35799510564E+02  0.32952210588E+01  0.42790757165E+02  0.00000000000E+00 0. -1.
         21    1    1    2  502  503  0.27218313750E+02  0.13229511768E+02  0.37157249711E+02  0.47921996944E+02  0.00000000000E+00 0. -1.
         21    1    1    2  503  501 -0.71169422660E+02 -0.27887937279E+02 -0.11765246857E+03  0.14030298332E+03  0.00000000000E+00 0.  1.
<scales pt_clust_5="13000.00000" pt_clust_6="13000.00000" pt_clust_7="13000.00000" pt_clust_8="13000.00000" pt_clust_9="30.26312" pt_clust_10="75.26085"></scales>
<clustering>
<clus scale="   30.263">  1  9  2 -1</clus>
<clus scale="   75.261">  2 10  1 -1</clus>
<clus scale="   90.768">  5  6 -1 -1</clus>
<clus scale="   91.280">  7  8 -1 -1</clus>
<clus scale="  215.879">  1  5  2 -1</clus>
<clus scale="   30.263">  1  5  2 -1</clus>
</clustering>
</event>
<event>
10    2  0.2445576E-006  0.1064738E+03  0.7546771E-02  0.1268090E+00
         -2   -1    0    0    0  501 -0.00000000000E+00  0.00000000000E+00  0.97116204428E+02  0.97116204428E+02  0.00000000000E+00 0.  1.
          2   -1    0    0  502    0  0.00000000000E+00 -0.00000000000E+00 -0.39844367019E+03  0.39844367019E+03  0.00000000000E+00 0. -1.
         23    2    1    2    0    0  0.48165209037E+02  0.31655443061E+02  0.30265567386E+02  0.11331592967E+03  0.92749883615E+02 0.  0.
         23    2    1    2    0    0 -0.79783493086E+01 -0.67243692324E+02 -0.23727315084E+03  0.26290617480E+03  0.90750980290E+02 0.  0.
        -11    1    3    3    0    0  0.57874954236E+01  0.50601995870E+02 -0.99541682892E+01  0.51895496487E+02  0.00000000000E+00 0. -1.
         11    1    3    3    0    0  0.42377713614E+02 -0.18946552809E+02  0.40219735675E+02  0.61420433182E+02  0.00000000000E+00 0.  1.
        -13    1    4    4    0    0 -0.45381771532E+02 -0.43640642016E+02 -0.95433668544E+02  0.11433108027E+03  0.00000000000E+00 0. -1.
         13    1    4    4    0    0  0.37403422224E+02 -0.23603050308E+02 -0.14183948230E+03  0.14857509454E+03  0.00000000000E+00 0.  1.
         21    1    1    2  502  503 -0.71129476223E+01  0.20329995452E+02 -0.75153467477E+02  0.78178938422E+02  0.00000000000E+00 0. -1.
         21    1    1    2  503  501 -0.33073912107E+02  0.15258253811E+02 -0.19166414826E+02  0.41158831721E+02  0.00000000000E+00 0. -1.
<scales pt_clust_5="13000.00000" pt_clust_6="13000.00000" pt_clust_7="13000.00000" pt_clust_8="13000.00000" pt_clust_9="21.53840" pt_clust_10="37.85542"></scales>
<clustering>
<clus scale="   21.538">  2  9  1 -1</clus>
<clus scale="   37.855">  1 10  2 -1</clus>
<clus scale="   90.751">  7  8 -1 -1</clus>
<clus scale="   92.750">  5  6 -1 -1</clus>
<clus scale="  104.737">  2  7  1 -1</clus>
<clus scale="   21.538">  2  5  1 -1</clus>
</clustering>
</event>
<event>
10    2  0.2445576E-006  0.1168395E+03  0.7546771E-02  0.1251487E+00
          1   -1    0    0  502    0  0.00000000000E+00  0.00000000000E+00  0.24026733561E+03  0.24026733561E+03  0.00000000000E+00 0. -1.
         -1   -1    0    0    0  501 -0.00000000000E+00 -0.00000000000E+00 -0.34320997944E+03  0.34320997944E+03  0.00000000000E+00 0.  1.
         23    2    1    2    0    0  0.11218413405E+03 -0.18914743554E+02 -0.35395875252E+02  0.15010161486E+03  0.91293917346E+02 0.  0.
         23    2    1    2    0    0 -0.23927604844E+02 -0.10568955054E+02  0.77232723949E+02  0.12870974984E+03  0.99584501655E+02 0.  0.
        -11    1    3    3    0    0  0.43517727355E+02 -0.53043127643E+02 -0.10056772380E+02  0.69343382201E+02  0.00000000000E+00 0. -1.
         11    1    3    3    0    0  0.68666406693E+02  0.34128384089E+02 -0.25339102872E+02  0.80758232664E+02  0.00000000000E+00 0.  1.
        -13    1    4    4    0    0 -0.53062169638E+02  0.21678953812E+02  0.30642806828E+02  0.64996557566E+02  0.00000000000E+00 0.  1.
         13    1    4    4    0    0  0.29134564794E+02 -0.32247908866E+02  0.46589917121E+02  0.63713192270E+02  0.00000000000E+00 0. -1.
         21    1    1    2  502  503 -0.24565221570E+02  0.50114149103E+02  0.64291725406E+02  0.85136972032E+02  0.00000000000E+00 0. -1.
         21    1    1    2  503  501 -0.63691307635E+02 -0.20630450496E+02 -0.20907121793E+03  0.21952897832E+03  0.00000000000E+00 0.  1.
<scales pt_clust_5="13000.00000" pt_clust_6="13000.00000" pt_clust_7="13000.00000" pt_clust_8="13000.00000" pt_clust_9="55.81109" pt_clust_10="67.22224"></scales>
<clustering>
<clus scale="   55.811">  1  9  2 -1</clus>
<clus scale="   67.222">  2 10  1 -1</clus>
<clus scale="   91.294">  5  6 -1 -1</clus>
<clus scale="   99.585">  7  8 -1 -1</clus>
<clus scale="  109.859">  2  5  1 -1</clus>
<clus scale="   55.811">  1  5  2 -1</clus>
</clustering>
</event>
<event>
10    2  0.2445576E-006  0.1448822E+03  0.7546771E-02  0.1207205E+00
          1   -1    0    0  502    0  0.00000000000E+00  0.00000000000E+00  0.94970094555E+03  0.94970094555E+03  0.00000000000E+00 0. -1.
         -1   -1    0    0    0  501 -0.00000000000E+00 -0.00000000000E+00 -0.25581774896E+03  0.25581774896E+03  0.00000000000E+00 0.  1.
         23    2    1    2    0    0  0.55099021343E+02  0.58119239472E+02 -0.10645664132E+03  0.16307306235E+03  0.94053490276E+02 0.  0.
         23    2    1    2    0    0 -0.12328424971E+03  0.40034974579E+02  0.62522897259E+02  0.17114261938E+03  0.92622233145E+02 0.  0.
        -11    1    3    3    0    0  0.28292515053E+02  0.48155251796E+02 -0.11929735616E+03  0.13172415826E+03  0.00000000000E+00 0.  1.
         11    1    3    3    0    0  0.26806506289E+02  0.99639876758E+01  0.12840714839E+02  0.31348904086E+02  0.00000000000E+00 0. -1.
        -13    1    4    4    0    0 -0.10880962582E+03 -0.78974904883E+01  0.39419536230E+02  0.11599915889E+03  0.00000000000E+00 0.  1.
         13    1    4    4    0    0 -0.14474623885E+02  0.47932465067E+02  0.23103361029E+02  0.55143460490E+02  0.00000000000E+00 0. -1.
         21    1    1    2  502  503 -0.16036479237E+02 -0.10873169918E+03  0.77200797733E+03  0.77979232372E+03  0.00000000000E+00 0. -1.
         21    1    1    2  503  501  0.84221707601E+02  0.10577485125E+02 -0.34191036680E+02  0.91510689059E+02  0.00000000000E+00 0.  1.
<scales pt_clust_5="13000.00000" pt_clust_6="13000.00000" pt_clust_7="13000.00000" pt_clust_8="13000.00000" pt_clust_9="109.46142" pt_clust_10="84.88333"></scales>
<clustering>
<clus scale="   84.883">  2 10  1 -1</clus>
<clus scale="   92.622">  7  8 -1 -1</clus>
<clus scale="   94.053">  5  6 -1 -1</clus>
<clus scale="  109.461">  1  9  2 -1</clus>
<clus scale="  143.957">  1  7  2 -1</clus>
<clus scale="  109.461">  1  5  2 -1</clus>
</clustering>
</event>
<event>
10    2  0.2445576E-006  0.1146080E+03  0.7546771E-02  0.1252580E+00
          2   -1    0    0  502    0  0.00000000000E+00  0.00000000000E+00  0.37971731338E+03  0.37971731338E+03  0.00000000000E+00 0. -1.
         -2   -1    0    0    0  501 -0.00000000000E+00 -0.00000000000E+00 -0.25706781676E+03  0.25706781676E+03  0.00000000000E+00 0.  1.
         23    2    1    2    0    0  0.32368352552E+02  0.27293379630E+02 -0.11202091163E+03  0.15044374789E+03  0.91060407520E+02 0.  0.
         23    2    1    2    0    0 -0.37955939587E+02 -0.28704586544E+02  0.10162993190E+03  0.14507856013E+03  0.91948566668E+02 0.  0.
        -11    1    4    4    0    0  0.14688858544E+01  0.25557027699E+02  0.62231933309E+02  0.67291402228E+02  0.00000000000E+00 0.  1.
         11    1    4    4    0    0 -0.39424825442E+02 -0.54261614243E+02  0.39397998595E+02  0.77787157903E+02  0.00000000000E+00 0. -1.
        -13    1    3    3    0    0  0.23487381959E+02 -0.17528586212E+02 -0.98536198735E+02  0.10280219310E+03  0.00000000000E+00 0.  1.
         13    1    3    3    0    0  0.88809705931E+01  0.44821965842E+02 -0.13484712900E+02  0.47641554788E+02  0.00000000000E+00 0. -1.
         21    1    1    2  502  503  0.23867392840E+02 -0.61095332548E+02  0.22173145602E+03  0.23122960600E+03  0.00000000000E+00 0. -1.
         21    1    1    2  503  501 -0.18279805805E+02  0.62506539462E+02 -0.88690979670E+02  0.11003321612E+03  0.00000000000E+00 0. -1.
<scales pt_clust_5="13000.00000" pt_clust_6="13000.00000" pt_clust_7="13000.00000" pt_clust_8="13000.00000" pt_clust_9="63.63853" pt_clust_10="65.12464"></scales>
<clustering>
<clus scale="   65.125">  2 10  1 -1</clus>
<clus scale="   63.639">  1  9  2 -1</clus>
<clus scale="   91.060">  7  8 -1 -1</clus>
<clus scale="   91.949">  5  6 -1 -1</clus>
<clus scale="  113.897">  2  7  1 -1</clus>
<clus scale="   63.639">  1  5  2 -1</clus>
</clustering>
</event>
<event>
10    2  0.2445576E-006  0.1973948E+03  0.7546771E-02  0.1152230E+00
          1   -1    0    0  502    0  0.00000000000E+00  0.00000000000E+00  0.17292213516E+04  0.17292213516E+04  0.00000000000E+00 0. -1.
         -1   -1    0    0    0  501 -0.00000000000E+00 -0.00000000000E+00 -0.57335548944E+02  0.57335548944E+02  0.00000000000E+00 0.  1.
         23    2    1    2    0    0 -0.58848792264E+01 -0.17188230206E+03  0.43446750161E+03  0.47652058040E+03  0.93443544587E+02 0.  0.
         23    2    1    2    0    0 -0.89856776381E+02  0.16527443633E+03  0.10606282709E+04  0.10809960474E+04  0.90720702150E+02 0.  0.
        -11    1    4    4    0    0 -0.67565179833E+02  0.34012708004E+02  0.39780375611E+03  0.40493177969E+03  0.00000000000E+00 0.  1.
         11    1    4    4    0    0 -0.22291596548E+02  0.13126172833E+03  0.66282451484E+03  0.67606426771E+03  0.00000000000E+00 0. -1.
        -13    1    3    3    0    0 -0.40662402409E+02 -0.68999012507E+02  0.24936580833E+03  0.26191143744E+03  0.00000000000E+00 0.  1.
         13    1    3    3    0    0  0.34777523183E+02 -0.10288328955E+03  0.18510169328E+03  0.21460914296E+03  0.00000000000E+00 0. -1.
         21    1    1    2  502  503  0.29990323175E+02 -0.60137909485E+00  0.15722662701E+03  0.16006246712E+03  0.00000000000E+00 0.  1.
         21    1    1    2  503  501  0.65751332432E+02  0.72092448240E+01  0.19563403093E+02  0.68977805620E+02  0.00000000000E+00 0. -1.
<scales pt_clust_5="13000.00000" pt_clust_6="13000.00000" pt_clust_7="13000.00000" pt_clust_8="13000.00000" pt_clust_9="29.99635" pt_clust_10="66.98393"></scales>
<clustering>
<clus scale="   29.996">  1  9  2 -1</clus>
<clus scale="   66.984">  2 10  1 -1</clus>
<clus scale="   90.721">  5  6 -1 -1</clus>
<clus scale="   93.444">  7  8 -1 -1</clus>
<clus scale="  196.121">  1  5  2 -1</clus>
<clus scale="   29.996">  1  5  2 -1</clus>
</clustering>
</event>
<event>
10    2  0.2445576E-006  0.9329254E+02  0.7546771E-02  0.1295847E+00
          2   -1    0    0  502    0  0.00000000000E+00  0.00000000000E+00  0.11929419228E+03  0.11929419228E+03  0.00000000000E+00 0. -1.
         -2   -1    0    0    0  501 -0.00000000000E+00 -0.00000000000E+00 -0.33920392557E+03  0.33920392557E+03  0.00000000000E+00 0.  1.
         23    2    1    2    0    0 -0.11563025193E+02 -0.15751648932E+01 -0.19044469320E+03  0.21123135114E+03  0.90627357003E+02 0.  0.
         23    2    1    2    0    0 -0.26481509818E+02 -0.73556084753E+01  0.40924337368E+02  0.10436238775E+03  0.91985494783E+02 0.  0.
        -13    1    4    4    0    0  0.21809579699E+02  0.11678328806E+02 -0.14298278397E+02  0.28574147327E+02  0.00000000000E+00 0.  1.
         13    1    4    4    0    0 -0.48291089516E+02 -0.19033937282E+02  0.55222615765E+02  0.75788240427E+02  0.00000000000E+00 0. -1.
        -13    1    3    3    0    0 -0.17391735228E+01 -0.31487164694E+02 -0.17173796014E+03  0.17460925868E+03  0.00000000000E+00 0.  1.
         13    1    3    3    0    0 -0.98238516706E+01  0.29911999800E+02 -0.18706733064E+02  0.36622092453E+02  0.00000000000E+00 0. -1.
         21    1    1    2  502  503  0.26888096356E+02  0.31301859111E+02  0.22298752613E+02  0.46904269289E+02  0.00000000000E+00 0. -1.
         21    1    1    2  503  501  0.11156438655E+02 -0.22371085743E+02 -0.92688130066E+02  0.96000109666E+02  0.00000000000E+00 0.  1.
<scales pt_clust_5="13000.00000" pt_clust_6="13000.00000" pt_clust_7="13000.00000" pt_clust_8="13000.00000" pt_clust_9="40.79375" pt_clust_10="24.99863"></scales>
<clustering>
<clus scale="   24.999">  2 10  1 -1</clus>
<clus scale="   40.794">  1  9  2 -1</clus>
<clus scale="   90.627">  7  8 -1 -1</clus>
<clus scale="   91.954">  2  7  1 -1</clus>
<clus scale="   91.985">  5  6 -1 -1</clus>
<clus scale="   40.794">  1  5  2 -1</clus>
</clustering>
</event>
<event>
10    2  0.2445576E-006  0.9875552E+02  0.7546771E-02  0.1284000E+00
         -4   -1    0    0    0  501 -0.00000000000E+00  0.00000000000E+00  0.10522936931E+03  0.10522936931E+03  0.00000000000E+00 0.  1.
          4   -1    0    0  502    0  0.00000000000E+00 -0.00000000000E+00 -0.32779178898E+03  0.32779178898E+03  0.00000000000E+00 0. -1.
         23    2    1    2    0    0 -0.14412720228E+01  0.13495505861E+02 -0.78027284642E+02  0.12098932952E+03  0.91465593339E+02 0.  0.
         23    2    1    2    0    0  0.57494861383E+02 -0.13468399086E+02 -0.17675490922E+03  0.20852014407E+03  0.93548360164E+02 0.  0.
        -11    1    3    3    0    0 -0.24983159582E+02 -0.14604021737E+01  0.11263649582E+02  0.27443775963E+02  0.00000000000E+00 0.  1.
         11    1    3    3    0    0  0.23541887559E+02  0.14955908035E+02 -0.89290934224E+02  0.93545553553E+02  0.00000000000E+00 0. -1.
        -11    1    4    4    0    0  0.16160899946E+02  0.38192971924E+02 -0.45703227792E+02  0.61714364795E+02  0.00000000000E+00 0.  1.
         11    1    4    4    0    0  0.41333961437E+02 -0.51661371010E+02 -0.13105168143E+03  0.14680577928E+03  0.00000000000E+00 0. -1.
         21    1    1    2  502  503 -0.24870541658E+02 -0.56587963384E+01 -0.26504313787E+02  0.36783752768E+02  0.00000000000E+00 0. -1.
         21    1    1    2  503  501 -0.31183047702E+02  0.56316895637E+01  0.58724087975E+02  0.66727931932E+02  0.00000000000E+00 0.  1.
<scales pt_clust_5="13000.00000" pt_clust_6="13000.00000" pt_clust_7="13000.00000" pt_clust_8="13000.00000" pt_clust_9="25.50619" pt_clust_10="32.00494"></scales>
<clustering>
<clus scale="   25.506">  2  9  1 -1</clus>
<clus scale="   32.005">  1 10  2 -1</clus>
<clus scale="   91.466">  5  6 -1 -1</clus>
<clus scale="   93.548">  7  8 -1 -1</clus>
<clus scale="   96.785">  1  5  2 -1</clus>
<clus scale="   25.506">  2  5  1 -1</clus>
</clustering>
</event>
<event>
10    2  0.2445576E-006  0.1302847E+03  0.7546771E-02  0.1234224E+00
         -1   -1    0    0    0  501 -0.00000000000E+00  0.00000000000E+00  0.10106601296E+03  0.10106601296E+03  0.00000000000E+00 0.  1.
          1   -1    0    0  502    0  0.00000000000E+00 -0.00000000000E+00 -0.27621471485E+03  0.27621471485E+03  0.00000000000E+00 0. -1.
         23    2    1    2    0    0  0.48789801407E+02 -0.63788887654E+01 -0.49082201796E+02  0.10848203082E+03  0.83295579325E+02 0.  0.
         23    2    1    2    0    0 -0.10651890687E+03  0.33301619371E+02 -0.10260746123E+03  0.18514448286E+03  0.10627752849E+03 0.  0.
        -11    1    3    3    0    0 -0.73459846872E+01 -0.32242110510E+02 -0.27519809480E+02  0.43021588708E+02  0.00000000000E+00 0. -1.
         11    1    3    3    0    0  0.56135786094E+02  0.25863221745E+02 -0.21562392317E+02  0.65460442115E+02  0.00000000000E+00 0.  1.
        -13    1    4    4    0    0 -0.11470988523E+02  0.55309626118E+02 -0.35109443101E+02  0.66508731110E+02  0.00000000000E+00 0.  1.
         13    1    4    4    0    0 -0.95047918344E+02 -0.22008006747E+02 -0.67498018127E+02  0.11863575175E+03  0.00000000000E+00 0. -1.
         21    1    1    2  502  503  0.30286608854E+02 -0.68257027251E+01 -0.35875998471E+02  0.47444242642E+02  0.00000000000E+00 0. -1.
         21    1    1    2  503  501  0.27442496605E+02 -0.20097027881E+02  0.12416959601E+02  0.36209971490E+02  0.00000000000E+00 0.  1.
<scales pt_clust_5="13000.00000" pt_clust_6="13000.00000" pt_clust_7="13000.00000" pt_clust_8="13000.00000" pt_clust_9="31.04624" pt_clust_10="35.46387"></scales>
<clustering>
<clus scale="   31.046">  2  9  1 -1</clus>
<clus scale="   35.464">  1 10  2 -1</clus>
<clus scale="   83.296">  5  6 -1 -1</clus>
<clus scale="  106.278">  7  8 -1 -1</clus>
<clus scale="  112.327">  1  5  2 -1</clus>
<clus scale="   31.046">  2  5  1 -1</clus>
</clustering>
</event>
<event>
10    2  0.2445576E-006  0.2138792E+03  0.7546771E-02  0.1138914E+00
          3   -1    0    0  502    0  0.00000000000E+00  0.00000000000E+00  0.15697475053E+03  0.15697475053E+03  0.00000000000E+00 0. -1.
         -3   -1    0    0    0  501 -0.00000000000E+00 -0.00000000000E+00 -0.10634781529E+04  0.10634781529E+04  0.00000000000E+00 0.  1.
         23    2    1    2    0    0  0.89845734346E+02  0.98652285342E+02 -0.59588596802E+03  0.61823343401E+03  0.96581378469E+02 0.  0.
         23    2    1    2    0    0 -0.12682777591E+03 -0.18938304478E+03 -0.24705988373E+03  0.34853476112E+03  0.92123130487E+02 0.  0.
        -11    1    4    4    0    0 -0.23808422173E+02 -0.17904504681E+02 -0.88171166779E+02  0.93067539482E+02  0.00000000000E+00 0.  1.
         11    1    4    4    0    0 -0.10301935374E+03 -0.17147854010E+03 -0.15888871695E+03  0.25546722164E+03  0.00000000000E+00 0. -1.
        -11    1    3    3    0    0 -0.14582459236E+02  0.44271222344E+02 -0.18822879835E+03  0.19391407833E+03  0.00000000000E+00 0. -1.
         11    1    3    3    0    0  0.10442819358E+03  0.54381062998E+02 -0.40765716967E+03  0.42431935568E+03  0.00000000000E+00 0.  1.
         21    1    1    2  502  503  0.20621119488E+02  0.82953475972E+01  0.82353492077E+02  0.85300299050E+02  0.00000000000E+00 0.  1.
         21    1    1    2  503  501  0.16360922075E+02  0.82435411840E+02 -0.14591104268E+03  0.16838440924E+03  0.00000000000E+00 0.  1.
<scales pt_clust_5="13000.00000" pt_clust_6="13000.00000" pt_clust_7="13000.00000" pt_clust_8="13000.00000" pt_clust_9="22.22709" pt_clust_10="85.95745"></scales>
<clustering>
<clus scale="   22.227">  1  9  2 -1</clus>
<clus scale="   85.957">  2 10  1 -1</clus>
<clus scale="   92.123">  5  6 -1 -1</clus>
<clus scale="   96.581">  7  8 -1 -1</clus>
<clus scale="  211.903">  1  5  2 -1</clus>
<clus scale="   22.227">  1  5  2 -1</clus>
</clustering>
</event>
<event>
10    2  0.2445576E-006  0.2448629E+03  0.7546771E-02  0.1116777E+00
         -2   -1    0    0    0  501 -0.00000000000E+00  0.00000000000E+00  0.76928211617E+03  0.76928211617E+03  0.00000000000E+00 0.  1.
          2   -1    0    0  502    0  0.00000000000E+00 -0.00000000000E+00 -0.66572053371E+03  0.66572053371E+03  0.00000000000E+00 0. -1.
         23    2    1    2    0    0  0.10257840258E+03 -0.27559689230E+03  0.53335682596E+03  0.61554963775E+03  0.89195723125E+02 0.  0.
         23    2    1    2    0    0 -0.76758028624E+02  0.15556178509E+03 -0.56327814411E+03  0.59655351817E+03  0.92209372972E+02 0.  0.
        -11    1    3    3    0    0  0.24566673913E+02 -0.43237530216E+01  0.39453685813E+02  0.46677720934E+02  0.00000000000E+00 0. -1.
         11    1    3    3    0    0  0.78011728671E+02 -0.27127313928E+03  0.49390314014E+03  0.56887191682E+03  0.00000000000E+00 0.  1.
        -13    1    4    4    0    0 -0.12535026233E+02  0.12327853116E+03 -0.33245581307E+03  0.35479795767E+03  0.00000000000E+00 0. -1.
         13    1    4    4    0    0 -0.64223002390E+02  0.32283253934E+02 -0.23082233104E+03  0.24175556049E+03  0.00000000000E+00 0.  1.
         21    1    1    2  502  503 -0.20761695040E+02  0.48401031581E+02 -0.17672980438E+02  0.55552156363E+02  0.00000000000E+00 0. -1.
         21    1    1    2  503  501 -0.50586789213E+01  0.71634075628E+02  0.15115588105E+03  0.16734733759E+03  0.00000000000E+00 0. -1.
<scales pt_clust_5="13000.00000" pt_clust_6="13000.00000" pt_clust_7="13000.00000" pt_clust_8="13000.00000" pt_clust_9="52.66600" pt_clust_10="72.45294"></scales>
<clustering>
<clus scale="   52.666">  2  9  1 -1</clus>
<clus scale="   72.453">  1 10  2 -1</clus>
<clus scale="   89.196">  5  6 -1 -1</clus>
<clus scale="   92.209">  7  8 -1 -1</clus>
<clus scale="  243.744">  1  5  2 -1</clus>
<clus scale="   52.666">  2  5  1 -1</clus>
</clustering>
</event>
<event>
10    2  0.2445576E-006  0.1135989E+03  0.7546771E-02  0.1254211E+00
          1   -1    0    0  502    0  0.00000000000E+00  0.00000000000E+00  0.10505287573E+03  0.10505287573E+03  0.00000000000E+00 0. -1.
         -1   -1    0    0    0  501 -0.00000000000E+00 -0.00000000000E+00 -0.31727369003E+03  0.31727369003E+03  0.00000000000E+00 0.  1.
         23    2    1    2    0    0  0.59130773323E+02 -0.54649396469E+02 -0.13555042517E+03  0.18339494232E+03  0.93684482272E+02 0.  0.
         23    2    1    2    0    0 -0.24302017919E+02  0.24594979872E+02  0.13412555556E+02  0.10117270453E+03  0.94130326597E+02 0.  0.
        -11    1    3    3    0    0  0.22780845445E+02 -0.64653940382E+02 -0.12762444704E+03  0.14486924590E+03  0.00000000000E+00 0.  1.
         11    1    3    3    0    0  0.36349927877E+02  0.10004543914E+02 -0.79259781314E+01  0.38525696424E+02  0.00000000000E+00 0. -1.
        -13    1    4    4    0    0  0.23259128110E+02 -0.16173915271E+02  0.24622249646E+02  0.37534487518E+02  0.00000000000E+00 0.  1.
         13    1    4    4    0    0 -0.47561146028E+02  0.40768895143E+02 -0.11209694089E+02  0.63638217010E+02  0.00000000000E+00 0. -1.
         21    1    1    2  502  503 -0.47881828867E+02  0.82322821329E+00 -0.65914752408E+01  0.48340405317E+02  0.00000000000E+00 0. -1.
         21    1    1    2  503  501  0.13053073463E+02  0.29231188384E+02 -0.83491469445E+02  0.89418513582E+02  0.00000000000E+00 0. -1.
<scales pt_clust_5="13000.00000" pt_clust_6="13000.00000" pt_clust_7="13000.00000" pt_clust_8="13000.00000" pt_clust_9="46.52787" pt_clust_10="32.01320"></scales>
<clustering>
<clus scale="   32.013">  2 10  1 -1</clus>
<clus scale="   46.528">  1  9  2 -1</clus>
<clus scale="   93.684">  5  6 -1 -1</clus>
<clus scale="   94.130">  7  8 -1 -1</clus>
<clus scale="  113.230">  2  5  1 -1</clus>
<clus scale="   46.528">  1  5  2 -1</clus>
</clustering>
</event>
<event>
10    2  0.2445576E-006  0.1377650E+03  0.7546771E-02  0.1238697E+00
         -1   -1    0    0    0  501 -0.00000000000E+00  0.00000000000E+00  0.26777467020E+03  0.26777467020E+03  0.00000000000E+00 0.  1.
          1   -1    0    0  502    0  0.00000000000E+00 -0.00000000000E+00 -0.42867974243E+03  0.42867974243E+03  0.00000000000E+00 0. -1.
         23    2    1    2    0    0  0.40117983393E+02 -0.71059949141E+01  0.20645362136E+03  0.22553564235E+03  0.81137417024E+02 0.  0.
         23    2    1    2    0    0  0.78928313485E+02  0.13722909104E+02 -0.12602558741E+03  0.17690592724E+03  0.94843352468E+02 0.  0.
        -11    1    3    3    0    0  0.26255829447E+02  0.32026090076E+02  0.14902967523E+03  0.15467670518E+03  0.00000000000E+00 0.  1.
         11    1    3    3    0    0  0.13862153946E+02 -0.39132084990E+02  0.57423946129E+02  0.70858937169E+02  0.00000000000E+00 0. -1.
        -11    1    4    4    0    0  0.41085582800E+02 -0.39442813551E+02 -0.74395303482E+02  0.93693232600E+02  0.00000000000E+00 0. -1.
         11    1    4    4    0    0  0.37842730685E+02  0.53165722655E+02 -0.51630283931E+02  0.83212694644E+02  0.00000000000E+00 0.  1.
         21    1    1    2  502  503 -0.10535161445E+03 -0.28143348577E+02 -0.24506216195E+03  0.26822839887E+03  0.00000000000E+00 0. -1.
         21    1    1    2  503  501 -0.13694682424E+02  0.21526434387E+02  0.37290557797E+01  0.25784444169E+02  0.00000000000E+00 0. -1.
<scales pt_clust_5="13000.00000" pt_clust_6="13000.00000" pt_clust_7="13000.00000" pt_clust_8="13000.00000" pt_clust_9="99.91957" pt_clust_10="25.51336"></scales>
<clustering>
<clus scale="   25.513">  1 10  2 -1</clus>
<clus scale="   81.137">  5  6 -1 -1</clus>
<clus scale="   86.709">  1  5  2 -1</clus>
<clus scale="   94.843">  7  8 -1 -1</clus>
<clus scale="   99.920">  2  9  1 -1</clus>
<clus scale="   99.920">  2  5  1 -1</clus>
</clustering>
</event>
<event>
10    2  0.2445576E-006  0.1339379E+03  0.7546771E-02  0.1223007E+00
         -3   -1    0    0    0  501 -0.00000000000E+00  0.00000000000E+00  0.82593917088E+03  0.82593917088E+03  0.00000000000E+00 0.  1.
          3   -1    0    0  503    0  0.00000000000E+00 -0.00000000000E+00 -0.24035585232E+03  0.24035585232E+03  0.00000000000E+00 0. -1.
         23    2    1    2    0    0 -0.10690044627E+03  0.28341362828E+02  0.19547728421E+03  0.24421383965E+03  0.95906686801E+02 0.  0.
         23    2    1    2    0    0  0.78228776354E+02  0.54374649691E+02 -0.18528031943E+03  0.22730620594E+03  0.90900882890E+02 0.  0.
        -11    1    4    4    0    0  0.19369188494E+02 -0.19893415543E+02 -0.12944933374E+02  0.30634698382E+02  0.00000000000E+00 0.  1.
         11    1    4    4    0    0  0.58859587860E+02  0.74268065234E+02 -0.17233538606E+03  0.19667150756E+03  0.00000000000E+00 0. -1.
        -11    1    3    3    0    0 -0.58428158024E+02 -0.27485595408E+02  0.13127110866E+03  0.14629221296E+03  0.00000000000E+00 0.  1.
         11    1    3    3    0    0 -0.48472288250E+02  0.55826958236E+02  0.64206175558E+02  0.97921626691E+02  0.00000000000E+00 0. -1.
         21    1    1    2  502  501 -0.20133980464E+02 -0.13671205766E+02  0.16207615027E+02  0.29239798585E+02  0.00000000000E+00 0.  1.
         21    1    1    2  503  502  0.48805650384E+02 -0.69044806752E+02  0.55917873875E+03  0.56553517903E+03  0.00000000000E+00 0.  1.
<scales pt_clust_5="13000.00000" pt_clust_6="13000.00000" pt_clust_7="13000.00000" pt_clust_8="13000.00000" pt_clust_9="24.33678" pt_clust_10="85.93763"></scales>
<clustering>
<clus scale="   24.337">  1  9  2 -1</clus>
<clus scale="   85.938">  1 10  2 -1</clus>
<clus scale="   90.901">  5  6 -1 -1</clus>
<clus scale="   95.907">  7  8 -1 -1</clus>
<clus scale="  130.400">  2  5  1 -1</clus>
<clus scale="  130.400">  2  5  1 -1</clus>
</clustering>
</event>
<event>
10    2  0.2445576E-006  0.1016834E+03  0.7546771E-02  0.1279978E+00
         -1   -1    0    0    0  501 -0.00000000000E+00  0.00000000000E+00  0.29663811200E+03  0.29663811200E+03  0.00000000000E+00 0.  1.
          1   -1    0    0  502    0  0.00000000000E+00 -0.00000000000E+00 -0.10707715191E+03  0.10707715191E+03  0.00000000000E+00 0. -1.
         23    2    1    2    0    0  0.77031620355E+01  0.15782479528E+02  0.97849089945E+02  0.13525788791E+03  0.91716009908E+02 0.  0.
         23    2    1    2    0    0 -0.27818060613E+02 -0.15163075723E+02 -0.69361948881E+01  0.10318005205E+03  0.97950237265E+02 0.  0.
        -13    1    3    3    0    0 -0.24368881937E+02 -0.10290451436E+02  0.89186794284E+02  0.93026985721E+02  0.00000000000E+00 0.  1.
         13    1    3    3    0    0  0.32072043973E+02  0.26072930965E+02  0.86622956615E+01  0.42230902190E+02  0.00000000000E+00 0. -1.
        -13    1    4    4    0    0  0.17491517258E+02  0.28632234651E+02  0.14592479815E+02  0.36588229040E+02  0.00000000000E+00 0. -1.
         13    1    4    4    0    0 -0.45309577871E+02 -0.43795310374E+02 -0.21528674703E+02  0.66591823012E+02  0.00000000000E+00 0.  1.
         21    1    1    2  502  503 -0.10456145894E+02  0.17470501553E+02 -0.27503574447E+02  0.34219819094E+02  0.00000000000E+00 0. -1.
         21    1    1    2  503  501  0.30571044472E+02 -0.18089905359E+02  0.12615163948E+03  0.13105750486E+03  0.00000000000E+00 0. -1.
<scales pt_clust_5="13000.00000" pt_clust_6="13000.00000" pt_clust_7="13000.00000" pt_clust_8="13000.00000" pt_clust_9="20.36049" pt_clust_10="34.94773"></scales>
<clustering>
<clus scale="   20.360">  2  9  1 -1</clus>
<clus scale="   34.948">  1 10  2 -1</clus>
<clus scale="   91.716">  5  6 -1 -1</clus>
<clus scale="   95.693">  1  5  2 -1</clus>
<clus scale="   97.950">  7  8 -1 -1</clus>
<clus scale="   20.360">  2  5  1 -1</clus>
</clustering>
</event>
<event>
10    2  0.2445576E-006  0.1131119E+03  0.7546771E-02  0.1255673E+00
          1   -1    0    0  502    0  0.00000000000E+00  0.00000000000E+00  0.75698255211E+03  0.75698255211E+03  0.00000000000E+00 0. -1.
         -1   -1    0    0    0  501 -0.00000000000E+00 -0.00000000000E+00 -0.56741293910E+02  0.56741293910E+02  0.00000000000E+00 0.  1.
         23    2    1    2    0    0  0.70981501157E+02 -0.13900242739E+01  0.49243400443E+02  0.12603630406E+03  0.91760186250E+02 0.  0.
         23    2    1    2    0    0 -0.13761182344E+02  0.70625397444E+02  0.46376313680E+03  0.47859471164E+03  0.93804765598E+02 0.  0.
        -11    1    4    4    0    0  0.36163370712E+02  0.33029885988E+02  0.12770684746E+03  0.13677646595E+03  0.00000000000E+00 0.  1.
         11    1    4    4    0    0 -0.49924553056E+02  0.37595511456E+02  0.33605628934E+03  0.34181824569E+03  0.00000000000E+00 0. -1.
        -11    1    3    3    0    0  0.63850840510E+02 -0.34070207376E+02  0.78188646664E+01  0.72793155648E+02  0.00000000000E+00 0.  1.
         11    1    3    3    0    0  0.71306606474E+01  0.32680183102E+02  0.41424535777E+02  0.53243148416E+02  0.00000000000E+00 0. -1.
         21    1    1    2  502  503 -0.32236284021E+02 -0.38313602702E+02  0.13085067622E+03  0.14010356750E+03  0.00000000000E+00 0. -1.
         21    1    1    2  503  501 -0.24984034792E+02 -0.30921770469E+02  0.56384044745E+02  0.68989262825E+02  0.00000000000E+00 0. -1.
<scales pt_clust_5="13000.00000" pt_clust_6="13000.00000" pt_clust_7="13000.00000" pt_clust_8="13000.00000" pt_clust_9="93.07508" pt_clust_10="21.73963"></scales>
<clustering>
<clus scale="   21.740">  9 10 -1 -1</clus>
<clus scale="   91.760">  7  8 -1 -1</clus>
<clus scale="   93.075">  1  9  2 -1</clus>
<clus scale="   93.805">  5  6 -1 -1</clus>
<clus scale="  111.422">  2  7  1 -1</clus>
<clus scale="   93.075">  1  5  2 -1</clus>
</clustering>
</event>
<event>
10    2  0.2445576E-006  0.1025667E+03  0.7546771E-02  0.1275331E+00
         -1   -1    0    0    0  501 -0.00000000000E+00  0.00000000000E+00  0.30044279909E+03  0.30044279909E+03  0.00000000000E+00 0.  1.
          1   -1    0    0  502    0  0.00000000000E+00 -0.00000000000E+00 -0.14953845833E+03  0.14953845833E+03  0.00000000000E+00 0. -1.
         23    2    1    2    0    0 -0.25377768258E+02  0.18646968893E+02  0.10813739483E+03  0.14448131229E+03  0.90495374860E+02 0.  0.
         23    2    1    2    0    0  0.18499750007E+02 -0.48598632497E+02  0.26073712561E+02  0.10821336586E+03  0.91248157428E+02 0.  0.
        -11    1    3    3    0    0 -0.22913658964E+02  0.38963230535E+02  0.11445977969E+03  0.12306181482E+03  0.00000000000E+00 0.  1.
         11    1    3    3    0    0 -0.24641092934E+01 -0.20316261641E+02 -0.63223848592E+01  0.21419497473E+02  0.00000000000E+00 0. -1.
        -13    1    4    4    0    0  0.20941517622E+02 -0.74523131081E+02  0.27463652451E+02  0.82137058825E+02  0.00000000000E+00 0. -1.
         13    1    4    4    0    0 -0.24417676149E+01  0.25924498584E+02 -0.13899398899E+01  0.26076307040E+02  0.00000000000E+00 0.  1.
         21    1    1    2  502  503  0.60932719413E+02  0.28400743584E+02 -0.68758075726E+02  0.96161694602E+02  0.00000000000E+00 0. -1.
         21    1    1    2  503  501 -0.54054701162E+02  0.15509200193E+01  0.85451309099E+02  0.10112488466E+03  0.00000000000E+00 0.  1.
<scales pt_clust_5="13000.00000" pt_clust_6="13000.00000" pt_clust_7="13000.00000" pt_clust_8="13000.00000" pt_clust_9="64.04927" pt_clust_10="54.07695"></scales>
<clustering>
<clus scale="   54.077">  1 10  2 -1</clus>
<clus scale="   64.049">  2  9  1 -1</clus>
<clus scale="   90.495">  5  6 -1 -1</clus>
<clus scale="   91.248">  7  8 -1 -1</clus>
<clus scale="  101.898">  1  5  2 -1</clus>
<clus scale="   64.049">  2  5  1 -1</clus>
</clustering>
</event>
<event>
10    2  0.2445576E-006  0.1041558E+03  0.7546771E-02  0.1272078E+00
         -1   -1    0    0    0  501 -0.00000000000E+00  0.00000000000E+00  0.18238744829E+03  0.18238744829E+03  0.00000000000E+00 0.  1.
          1   -1    0    0  502    0  0.00000000000E+00 -0.00000000000E+00 -0.65565227393E+03  0.65565227393E+03  0.00000000000E+00 0. -1.
         23    2    1    2    0    0  0.21441995663E+02 -0.72657950205E+02 -0.21857247191E+03  0.24945259419E+03  0.93347385419E+02 0.  0.
         23    2    1    2    0    0 -0.23702243387E+02  0.21334519837E+02 -0.26010497009E+03  0.27796806672E+03  0.92707564811E+02 0.  0.
        -13    1    3    3    0    0  0.54498180864E+02 -0.53949620606E+02 -0.17831264928E+03  0.19410310191E+03  0.00000000000E+00 0. -1.
         13    1    3    3    0    0 -0.33056185202E+02 -0.18708329599E+02 -0.40259822635E+02  0.55349492275E+02  0.00000000000E+00 0.  1.
        -13    1    4    4    0    0 -0.54461917480E+02  0.97390161189E+01 -0.97772134861E+02  0.11234028327E+03  0.00000000000E+00 0.  1.
         13    1    4    4    0    0  0.30759674093E+02  0.11595503718E+02 -0.16233283522E+03  0.16562778344E+03  0.00000000000E+00 0. -1.
         21    1    1    2  502  503  0.17446001992E+02  0.67953437867E+02 -0.14364903832E+03  0.15986581534E+03  0.00000000000E+00 0.  1.
         21    1    1    2  503  501 -0.15185754268E+02 -0.16630007499E+02  0.14906165466E+03  0.15075324598E+03  0.00000000000E+00 0.  1.
<scales pt_clust_5="13000.00000" pt_clust_6="13000.00000" pt_clust_7="13000.00000" pt_clust_8="13000.00000" pt_clust_9="65.24675" pt_clust_10="22.52031"></scales>
<clustering>
<clus scale="   22.520">  1 10  2 -1</clus>
<clus scale="   65.247">  1  9  2 -1</clus>
<clus scale="   92.708">  7  8 -1 -1</clus>
<clus scale="   93.347">  5  6 -1 -1</clus>
<clus scale="  103.583">  2  7  1 -1</clus>
<clus scale="  103.583">  2  5  1 -1</clus>
</clustering>
</event>
<event>
10    2  0.2445576E-006  0.1084187E+03  0.7546771E-02  0.1268014E+00
          2   -1    0    0  502    0  0.00000000000E+00  0.00000000000E+00  0.80377751627E+03  0.80377751627E+03  0.00000000000E+00 0. -1.
         -2   -1    0    0    0  501 -0.00000000000E+00 -0.00000000000E+00 -0.28957659710E+02  0.28957659710E+02  0.00000000000E+00 0.  1.
         23    2    1    2    0    0 -0.10668943065E+02 -0.31119445662E+02  0.16409142354E+03  0.19557277470E+03  0.10119520088E+03 0.  0.
         23    2    1    2    0    0  0.45998542244E+02  0.72176356744E+01  0.36491351358E+03  0.37905899640E+03  0.91410558517E+02 0.  0.
        -11    1    3    3    0    0 -0.38965114993E+02 -0.23964596307E+02  0.22452226474E+02  0.50957673968E+02  0.00000000000E+00 0.  1.
         11    1    3    3    0    0  0.28296171928E+02 -0.71548493552E+01  0.14163919707E+03  0.14461510074E+03  0.00000000000E+00 0. -1.
        -11    1    4    4    0    0 -0.27574453081E+02 -0.24612462786E+01  0.80645867511E+02  0.85265257535E+02  0.00000000000E+00 0.  1.
         11    1    4    4    0    0  0.73572995325E+02  0.96788819530E+01  0.28426764607E+03  0.29379373887E+03  0.00000000000E+00 0. -1.
         21    1    1    2  502  503 -0.18996016861E+02  0.38163962870E+02  0.22132544305E+03  0.22539363003E+03  0.00000000000E+00 0. -1.
         21    1    1    2  503  501 -0.16333582318E+02 -0.14262152882E+02  0.24489476388E+02  0.32709774838E+02  0.00000000000E+00 0. -1.
<scales pt_clust_5="13000.00000" pt_clust_6="13000.00000" pt_clust_7="13000.00000" pt_clust_8="13000.00000" pt_clust_9="42.21577" pt_clust_10="21.68398"></scales>
<clustering>
<clus scale="   21.684">  2 10  1 -1</clus>
<clus scale="   42.216">  1  9  2 -1</clus>
<clus scale="   91.411">  7  8 -1 -1</clus>
<clus scale="   99.348">  1  7  2 -1</clus>
<clus scale="  101.195">  5  6 -1 -1</clus>
<clus scale="   42.216">  1  5  2 -1</clus>
</clustering>
</event>
<event>
10    2  0.2445576E-006  0.1434635E+03  0.7546771E-02  0.1208830E+00
         -1   -1    0    0    0  501 -0.00000000000E+00  0.00000000000E+00  0.16676298937E+03  0.16676298937E+03  0.00000000000E+00 0.  1.
          1   -1    0    0  502    0  0.00000000000E+00 -0.00000000000E+00 -0.87554023401E+03  0.87554023401E+03  0.00000000000E+00 0. -1.
         23    2    1    2    0    0 -0.98378465494E+02 -0.11525648396E+03 -0.56443558432E+02  0.18664900640E+03  0.93218006484E+02 0.  0.
         23    2    1    2    0    0  0.46188336713E+02  0.28098757904E+02 -0.52502249749E+03  0.53603851032E+03  0.93625632348E+02 0.  0.
        -11    1    4    4    0    0  0.69169920696E+02  0.42293169140E+02 -0.39895112748E+03  0.40710587346E+03  0.00000000000E+00 0. -1.
         11    1    4    4    0    0 -0.22981583983E+02 -0.14194411236E+02 -0.12607137001E+03  0.12893263687E+03  0.00000000000E+00 0.  1.
        -13    1    3    3    0    0 -0.58888532280E+02 -0.11191890536E+03 -0.11895918113E+02  0.12702446016E+03  0.00000000000E+00 0.  1.
         13    1    3    3    0    0 -0.39489933214E+02 -0.33375786014E+01 -0.44547640319E+02  0.59624546239E+02  0.00000000000E+00 0. -1.
         21    1    1    2  502  503  0.67914702819E+00  0.76389670706E+02 -0.20895500697E+03  0.22248154523E+03  0.00000000000E+00 0. -1.
         21    1    1    2  503  501  0.51510981753E+02  0.10768055351E+02  0.81643818256E+02  0.97134161429E+02  0.00000000000E+00 0.  1.
<scales pt_clust_5="13000.00000" pt_clust_6="13000.00000" pt_clust_7="13000.00000" pt_clust_8="13000.00000" pt_clust_9="77.50432" pt_clust_10="52.62445"></scales>
<clustering>
<clus scale="   52.624">  1 10  2 -1</clus>
<clus scale="   77.504">  2  9  1 -1</clus>
<clus scale="   93.218">  7  8 -1 -1</clus>
<clus scale="   93.626">  5  6 -1 -1</clus>
<clus scale="  143.198">  1  7  2 -1</clus>
<clus scale="   77.504">  2  5  1 -1</clus>
</clustering>
</event>
<event>
10    2  0.2445576E-006  0.1758295E+03  0.7546771E-02  0.1172130E+00
          1   -1    0    0  502    0  0.00000000000E+00  0.00000000000E+00  0.20304893357E+03  0.20304893357E+03  0.00000000000E+00 0. -1.
         -1   -1    0    0    0  501 -0.00000000000E+00 -0.00000000000E+00 -0.54820724712E+03  0.54820724712E+03  0.00000000000E+00 0.  1.
         23    2    1    2    0    0 -0.50875697187E+02 -0.19938343850E+03 -0.30436934911E+03  0.37878369938E+03  0.92164516616E+02 0.  0.
         23    2    1    2    0    0 -0.81275090052E+02  0.11599218624E+03  0.47005918609E+02  0.17447974308E+03  0.90409052809E+02 0.  0.
        -11    1    3    3    0    0 -0.39393902486E+02 -0.11965718311E+03 -0.25470269386E+03  0.28415345024E+03  0.00000000000E+00 0.  1.
         11    1    3    3    0    0 -0.11481794701E+02 -0.79726255392E+02 -0.49666655252E+02  0.94630249140E+02  0.00000000000E+00 0. -1.
        -11    1    4    4    0    0  0.14669081489E+02  0.47581266102E+02  0.84974972528E+01  0.50511051218E+02  0.00000000000E+00 0. -1.
         11    1    4    4    0    0 -0.95944171541E+02  0.68410920138E+02  0.38508421356E+02  0.12396869186E+03  0.00000000000E+00 0.  1.
         21    1    1    2  502  503  0.43921288900E+02  0.27489578279E+02  0.12377500326E+02  0.53272498035E+02  0.00000000000E+00 0. -1.
         21    1    1    2  503  501  0.88229498339E+02  0.55901673981E+02 -0.10017238337E+03  0.14472024019E+03  0.00000000000E+00 0. -1.
<scales pt_clust_5="13000.00000" pt_clust_6="13000.00000" pt_clust_7="13000.00000" pt_clust_8="13000.00000" pt_clust_9="51.81464" pt_clust_10="111.22816"></scales>
<clustering>
<clus scale="   51.815">  1  9  2 -1</clus>
<clus scale="   90.409">  7  8 -1 -1</clus>
<clus scale="   92.165">  5  6 -1 -1</clus>
<clus scale="  111.228">  2 10  1 -1</clus>
<clus scale="  174.916">  1  7  2 -1</clus>
<clus scale="   51.815">  1  5  2 -1</clus>
</clustering>
</event>
<event>
10    2  0.2445576E-006  0.1162260E+03  0.7546771E-02  0.1251775E+00
          1   -1    0    0  502    0  0.00000000000E+00  0.00000000000E+00  0.74088096837E+03  0.74088096837E+03  0.00000000000E+00 0. -1.
         -1   -1    0    0    0  501 -0.00000000000E+00 -0.00000000000E+00 -0.12399345084E+03  0.12399345084E+03  0.00000000000E+00 0.  1.
         23    2    1    2    0    0 -0.59880158531E+01 -0.77043260782E+02 -0.60654217455E+02  0.13421457271E+03  0.91449970288E+02 0.  0.
         23    2    1    2    0    0 -0.22347482674E+02  0.99097343194E+02  0.47106640528E+03  0.48927713298E+03  0.84669128145E+02 0.  0.
        -11    1    4    4    0    0 -0.46127014096E+02  0.21346542202E+02  0.17152320941E+03  0.17889546573E+03  0.00000000000E+00 0. -1.
         11    1    4    4    0    0  0.23779531421E+02  0.77750800992E+02  0.29954319587E+03  0.31038166724E+03  0.00000000000E+00 0.  1.
        -13    1    3    3    0    0  0.37667225382E+02 -0.32738918231E+02 -0.39745901990E+01  0.50064498421E+02  0.00000000000E+00 0.  1.
         13    1    3    3    0    0 -0.43655241235E+02 -0.44304342550E+02 -0.56679627256E+02  0.84150074284E+02  0.00000000000E+00 0. -1.
         21    1    1    2  502  503  0.62343247210E+02 -0.40388612169E+02  0.17949707605E+03  0.19426044573E+03  0.00000000000E+00 0. -1.
         21    1    1    2  503  501 -0.34007748682E+02  0.18334529756E+02  0.26978253664E+02  0.47122267799E+02  0.00000000000E+00 0.  1.
<scales pt_clust_5="13000.00000" pt_clust_6="13000.00000" pt_clust_7="13000.00000" pt_clust_8="13000.00000" pt_clust_9="71.78765" pt_clust_10="38.63524"></scales>
<clustering>
<clus scale="   38.635">  2 10  1 -1</clus>
<clus scale="   71.788">  1  9  2 -1</clus>
<clus scale="   84.669">  5  6 -1 -1</clus>
<clus scale="   91.450">  7  8 -1 -1</clus>
<clus scale="  110.970">  1  5  2 -1</clus>
<clus scale="   71.788">  1  5  2 -1</clus>
</clustering>
</event>
<event>
10    2  0.2445576E-006  0.1646495E+03  0.7546771E-02  0.1183720E+00
          1   -1    0    0  502    0  0.00000000000E+00  0.00000000000E+00  0.12738871616E+03  0.12738871616E+03  0.00000000000E+00 0. -1.
         -1   -1    0    0    0  501 -0.00000000000E+00 -0.00000000000E+00 -0.83373132268E+03  0.83373132268E+03  0.00000000000E+00 0.  1.
         23    2    1    2    0    0  0.15091242473E+03  0.39689645438E+02 -0.57059925808E+03  0.59861482511E+03  0.91686245586E+02 0.  0.
         23    2    1    2    0    0 -0.10507011339E+03 -0.20235919822E+02 -0.43728195678E+01  0.14172346105E+03  0.92828856947E+02 0.  0.
        -11    1    3    3    0    0  0.10941991143E+03  0.69236599107E+02 -0.38746559775E+03  0.40852908478E+03  0.00000000000E+00 0.  1.
         11    1    3    3    0    0  0.41492513306E+02 -0.29546953669E+02 -0.18313366033E+03  0.19008574033E+03  0.00000000000E+00 0. -1.
        -13    1    4    4    0    0 -0.83567864803E+02 -0.34350249742E+02  0.33141299057E+02  0.96238627319E+02  0.00000000000E+00 0. -1.
         13    1    4    4    0    0 -0.21502248588E+02  0.14114329920E+02 -0.37514118624E+02  0.45484833732E+02  0.00000000000E+00 0.  1.
         21    1    1    2  502  503 -0.26219579905E+02 -0.25608701192E+02  0.36459223579E+02  0.51696682012E+02  0.00000000000E+00 0. -1.
         21    1    1    2  503  501 -0.19622731436E+02  0.61549755754E+01 -0.16782975245E+03  0.16908507066E+03  0.00000000000E+00 0. -1.
<scales pt_clust_5="13000.00000" pt_clust_6="13000.00000" pt_clust_7="13000.00000" pt_clust_8="13000.00000" pt_clust_9="36.76277" pt_clust_10="20.56539"></scales>
<clustering>
<clus scale="   20.565">  2 10  1 -1</clus>
<clus scale="   36.763">  1  9  2 -1</clus>
<clus scale="   91.686">  5  6 -1 -1</clus>
<clus scale="   92.829">  7  8 -1 -1</clus>
<clus scale="  164.008">  2  5  1 -1</clus>
<clus scale="   36.763">  1  5  2 -1</clus>
</clustering>
</event>
<event>
10    2  0.2445576E-006  0.1281622E+03  0.7546771E-02  0.1234273E+00
         -2   -1    0    0    0  501 -0.00000000000E+00  0.00000000000E+00  0.85558367913E+02  0.85558367913E+02  0.00000000000E+00 0.  1.
          2   -1    0    0  502    0  0.00000000000E+00 -0.00000000000E+00 -0.46124865213E+03  0.46124865213E+03  0.00000000000E+00 0. -1.
         23    2    1    2    0    0  0.23181961346E+02 -0.13130229154E+03 -0.73594073872E+02  0.17136671004E+03  0.78566955540E+02 0.  0.
         23    2    1    2    0    0  0.15696310589E+02  0.60760976006E+02 -0.14560688962E+03  0.18396198603E+03  0.93286524374E+02 0.  0.
        -13    1    3    3    0    0  0.50908901231E+02 -0.81737517327E+02 -0.58230262861E+02  0.11253222417E+03  0.00000000000E+00 0. -1.
         13    1    3    3    0    0 -0.27726939884E+02 -0.49564774217E+02 -0.15363811010E+02  0.58834485868E+02  0.00000000000E+00 0.  1.
        -13    1    4    4    0    0 -0.13012767361E+02  0.45139179792E+02 -0.14979653546E+02  0.49307886662E+02  0.00000000000E+00 0.  1.
         13    1    4    4    0    0  0.28709077950E+02  0.15621796215E+02 -0.13062723607E+03  0.13465409937E+03  0.00000000000E+00 0. -1.
         21    1    1    2  502  503 -0.62043790994E+01  0.20153495336E+02 -0.11862313905E+03  0.12048280712E+03  0.00000000000E+00 0.  1.
         21    1    1    2  503  501 -0.32673892836E+02  0.50387820202E+02 -0.37866181674E+02  0.70995516847E+02  0.00000000000E+00 0.  1.
<scales pt_clust_5="13000.00000" pt_clust_6="13000.00000" pt_clust_7="13000.00000" pt_clust_8="13000.00000" pt_clust_9="21.08691" pt_clust_10="63.29228"></scales>
<clustering>
<clus scale="   21.087">  2  9  1 -1</clus>
<clus scale="   63.292">  1 10  2 -1</clus>
<clus scale="   78.567">  5  6 -1 -1</clus>
<clus scale="   93.287">  7  8 -1 -1</clus>
<clus scale="  117.881">  1  5  2 -1</clus>
<clus scale="   21.087">  2  5  1 -1</clus>
</clustering>
</event>
<event>
10    2  0.2445576E-006  0.1788166E+03  0.7546771E-02  0.1173169E+00
          2   -1    0    0  502    0  0.00000000000E+00  0.00000000000E+00  0.44590240435E+03  0.44590240435E+03  0.00000000000E+00 0. -1.
         -2   -1    0    0    0  501 -0.00000000000E+00 -0.00000000000E+00 -0.16489215411E+03  0.16489215411E+03  0.00000000000E+00 0.  1.
         23    2    1    2    0    0 -0.89907348171E+01 -0.96878244168E+02 -0.31216092587E+01  0.15324499327E+03  0.11835563364E+03 0.  0.
         23    2    1    2    0    0  0.14417412243E+02  0.14303532727E+03  0.33092242432E+03  0.37227024547E+03  0.91697972297E+02 0.  0.
        -11    1    3    3    0    0  0.43276063940E+02 -0.25020047237E+02 -0.32539186884E+02  0.59645780714E+02  0.00000000000E+00 0.  1.
         11    1    3    3    0    0 -0.52266798757E+02 -0.71858196931E+02  0.29417577626E+02  0.93599212560E+02  0.00000000000E+00 0. -1.
        -13    1    4    4    0    0 -0.22615799315E+01  0.98389536013E+02  0.29932199375E+03  0.31508613344E+03  0.00000000000E+00 0. -1.
         13    1    4    4    0    0  0.16678992174E+02  0.44645791262E+02  0.31600430566E+02  0.57184112035E+02  0.00000000000E+00 0.  1.
         21    1    1    2  502  503  0.45596521953E+01 -0.25279518148E+02  0.70822571768E+01  0.26645878343E+02  0.00000000000E+00 0. -1.
         21    1    1    2  503  501 -0.99863296211E+01 -0.20877564958E+02 -0.53872821993E+02  0.58633441374E+02  0.00000000000E+00 0.  1.
<scales pt_clust_5="13000.00000" pt_clust_6="13000.00000" pt_clust_7="13000.00000" pt_clust_8="13000.00000" pt_clust_9="27.40489" pt_clust_10="23.14302"></scales>
<clustering>
<clus scale="   23.143">  2 10  1 -1</clus>
<clus scale="   27.405">  2  9  1 -1</clus>
<clus scale="   91.698">  7  8 -1 -1</clus>
<clus scale="  118.356">  5  6 -1 -1</clus>
<clus scale="  162.406">  1  7  2 -1</clus>
<clus scale="  162.406">  1  5  2 -1</clus>
</clustering>
</event>
<event>
10    2  0.2445576E-006  0.9952157E+02  0.7546771E-02  0.1282473E+00
         -2   -1    0    0    0  501 -0.00000000000E+00  0.00000000000E+00  0.10362790218E+03  0.10362790218E+03  0.00000000000E+00 0.  1.
          2   -1    0    0  502    0  0.00000000000E+00 -0.00000000000E+00 -0.34734209568E+03  0.34734209568E+03  0.00000000000E+00 0. -1.
         23    2    1    2    0    0 -0.46965119432E+02  0.44379084466E+02  0.27789629710E+02  0.11759979160E+03  0.94245540387E+02 0.  0.
         23    2    1    2    0    0 -0.19794749605E+02 -0.74048027731E+01 -0.17833197738E+03  0.20174746104E+03  0.91940636613E+02 0.  0.
        -13    1    4    4    0    0  0.50949940374E+01  0.26539744157E+02 -0.14650684442E+03  0.14897842946E+03  0.00000000000E+00 0. -1.
         13    1    4    4    0    0 -0.24889743642E+02 -0.33944546930E+02 -0.31825132968E+02  0.52769031574E+02  0.00000000000E+00 0.  1.
        -13    1    3    3    0    0 -0.44725891130E+02  0.21640516605E+02  0.60130140548E+02  0.78002250599E+02  0.00000000000E+00 0.  1.
         13    1    3    3    0    0 -0.22392283020E+01  0.22738567861E+02 -0.32340510838E+02  0.39597540997E+02  0.00000000000E+00 0. -1.
         21    1    1    2  502  503  0.40144796503E+02 -0.21918298868E+02 -0.89904232470E+02  0.10087015182E+03  0.00000000000E+00 0. -1.
         21    1    1    2  503  501  0.26615072534E+02 -0.15055982825E+02 -0.32676133547E+01  0.30752593416E+02  0.00000000000E+00 0. -1.
<scales pt_clust_5="13000.00000" pt_clust_6="13000.00000" pt_clust_7="13000.00000" pt_clust_8="13000.00000" pt_clust_9="47.60364" pt_clust_10="30.57850"></scales>
<clustering>
<clus scale="   30.579">  1 10  2 -1</clus>
<clus scale="   47.604">  2  9  1 -1</clus>
<clus scale="   91.941">  5  6 -1 -1</clus>
<clus scale="   94.246">  7  8 -1 -1</clus>
<clus scale="   97.342">  2  5  1 -1</clus>
<clus scale="   47.604">  2  5  1 -1</clus>
</clustering>
</event>
<event>
10    2  0.2445576E-006  0.1287265E+03  0.7546771E-02  0.1231541E+00
          1   -1    0    0  502    0  0.00000000000E+00  0.00000000000E+00  0.45656147643E+02  0.45656147643E+02  0.00000000000E+00 0. -1.
         -1   -1    0    0    0  501 -0.00000000000E+00 -0.00000000000E+00 -0.57113992657E+03  0.57113992657E+03  0.00000000000E+00 0.  1.
         23    2    1    2    0    0 -0.64691481043E+02  0.84645003178E+02 -0.23325323360E+03  0.27205350745E+03  0.90864050386E+02 0.  0.
         23    2    1    2    0    0  0.26882605011E+02 -0.76287622066E+02 -0.15959142415E+03  0.19707924051E+03  0.82633701630E+02 0.  0.
        -13    1    3    3    0    0 -0.47955778351E+02  0.10098553053E+03 -0.16022672179E+03  0.19537255802E+03  0.00000000000E+00 0.  1.
         13    1    3    3    0    0 -0.16735702692E+02 -0.16340527352E+02 -0.73026511807E+02  0.76680949430E+02  0.00000000000E+00 0. -1.
        -13    1    4    4    0    0  0.18485778132E+01 -0.87717070051E+02 -0.11443729575E+03  0.14419984839E+03  0.00000000000E+00 0. -1.
         13    1    4    4    0    0  0.25034027198E+02  0.11429447985E+02 -0.45154128403E+02  0.52879392118E+02  0.00000000000E+00 0.  1.
         21    1    1    2  502  503  0.20060882076E+02  0.47688172896E+01 -0.97527429992E+01  0.22810011048E+02  0.00000000000E+00 0. -1.
         21    1    1    2  503  501  0.17747993955E+02 -0.13126198401E+02 -0.12288637818E+03  0.12485331520E+03  0.00000000000E+00 0. -1.
<scales pt_clust_5="13000.00000" pt_clust_6="13000.00000" pt_clust_7="13000.00000" pt_clust_8="13000.00000" pt_clust_9="20.61991" pt_clust_10="22.41224"></scales>
<clustering>
<clus scale="   20.620">  1  9  2 -1</clus>
<clus scale="   22.412">  2 10  1 -1</clus>
<clus scale="   82.634">  7  8 -1 -1</clus>
<clus scale="   90.864">  5  6 -1 -1</clus>
<clus scale="  123.055">  1  7  2 -1</clus>
<clus scale="   20.620">  1  5  2 -1</clus>
</clustering>
</event>
<event>
10    2  0.2445576E-006  0.9939234E+02  0.7546771E-02  0.1283413E+00
          1   -1    0    0  502    0  0.00000000000E+00  0.00000000000E+00  0.17659976030E+03  0.17659976030E+03  0.00000000000E+00 0. -1.
         -1   -1    0    0    0  501 -0.00000000000E+00 -0.00000000000E+00 -0.10955890779E+03  0.10955890779E+03  0.00000000000E+00 0.  1.
         23    2    1    2    0    0 -0.15086670082E+01  0.22172306242E+02  0.23236205095E+02  0.93551467730E+02  0.87852539217E+02 0.  0.
         23    2    1    2    0    0  0.27073879346E+02 -0.49761491545E+02  0.47174516792E+02  0.11754198758E+03  0.91550438699E+02 0.  0.
        -13    1    3    3    0    0 -0.22827741800E+02  0.23648827431E+02 -0.24668490057E+02  0.41096316577E+02  0.00000000000E+00 0.  1.
         13    1    3    3    0    0  0.21319074792E+02 -0.14765211886E+01  0.47904695152E+02  0.52455151152E+02  0.00000000000E+00 0. -1.
        -13    1    4    4    0    0 -0.17725838470E+01 -0.27839942158E+02 -0.24566402398E+02  0.37171394372E+02  0.00000000000E+00 0.  1.
         13    1    4    4    0    0  0.28846463193E+02 -0.21921549388E+02  0.71740919190E+02  0.80370593207E+02  0.00000000000E+00 0. -1.
         21    1    1    2  502  503 -0.47492790002E+02  0.19052146426E+02 -0.53529086318E+01  0.51450976826E+02  0.00000000000E+00 0.  1.
         21    1    1    2  503  501  0.21927577664E+02  0.85370388773E+01  0.19830392556E+01  0.23614235954E+02  0.00000000000E+00 0. -1.
<scales pt_clust_5="13000.00000" pt_clust_6="13000.00000" pt_clust_7="13000.00000" pt_clust_8="13000.00000" pt_clust_9="46.46332" pt_clust_10="23.53082"></scales>
<clustering>
<clus scale="   23.531">  2 10  1 -1</clus>
<clus scale="   46.463">  2  9  1 -1</clus>
<clus scale="   87.853">  5  6 -1 -1</clus>
<clus scale="   91.550">  7  8 -1 -1</clus>
<clus scale="   95.997">  2  5  1 -1</clus>
<clus scale="   99.392">  1  5  2 -1</clus>
</clustering>
</event>
<event>
10    2  0.2445576E-006  0.1449783E+03  0.7546771E-02  0.1206836E+00
         -3   -1    0    0    0  501 -0.00000000000E+00  0.00000000000E+00  0.26752328821E+03  0.26752328821E+03  0.00000000000E+00 0.  1.
          3   -1    0    0  502    0  0.00000000000E+00 -0.00000000000E+00 -0.12260286055E+03  0.12260286055E+03  0.00000000000E+00 0. -1.
         23    2    1    2    0    0  0.44059267091E+02  0.82229677313E+02  0.64094717699E+02  0.14542800713E+03  0.91313928690E+02 0.  0.
         23    2    1    2    0    0 -0.92286019057E+02 -0.10003604995E+03  0.66848319942E+02  0.17686901578E+03  0.91049603293E+02 0.  0.
        -11    1    3    3    0    0  0.60638330930E+01  0.22690380353E+02  0.70691216928E+02  0.74490748306E+02  0.00000000000E+00 0.  1.
         11    1    3    3    0    0  0.37995433998E+02  0.59539296960E+02 -0.65964992296E+01  0.70937258822E+02  0.00000000000E+00 0. -1.
        -13    1    4    4    0    0 -0.14623331444E+02 -0.69721916808E+02  0.60140707255E+02  0.93230317896E+02  0.00000000000E+00 0.  1.
         13    1    4    4    0    0 -0.77662687612E+02 -0.30314133145E+02  0.67076126875E+01  0.83638697883E+02  0.00000000000E+00 0. -1.
         21    1    1    2  502  503  0.24727760408E+02  0.83838184595E+01 -0.14384863086E+02  0.29810649654E+02  0.00000000000E+00 0. -1.
         21    1    1    2  503  501  0.23498991557E+02  0.94225541817E+01  0.28362253098E+02  0.38018476197E+02  0.00000000000E+00 0. -1.
<scales pt_clust_5="13000.00000" pt_clust_6="13000.00000" pt_clust_7="13000.00000" pt_clust_8="13000.00000" pt_clust_9="26.94247" pt_clust_10="25.31772"></scales>
<clustering>
<clus scale="   25.318">  1 10  2 -1</clus>
<clus scale="   26.942">  2  9  1 -1</clus>
<clus scale="   91.050">  7  8 -1 -1</clus>
<clus scale="   91.314">  5  6 -1 -1</clus>
<clus scale="  144.812">  2  7  1 -1</clus>
<clus scale="   26.942">  2  5  1 -1</clus>
</clustering>
</event>
<event>
10    2  0.2445576E-006  0.1023595E+03  0.7546771E-02  0.1275625E+00
          2   -1    0    0  502    0  0.00000000000E+00  0.00000000000E+00  0.44554552794E+03  0.44554552794E+03  0.00000000000E+00 0. -1.
         -2   -1    0    0    0  501 -0.00000000000E+00 -0.00000000000E+00 -0.67342055228E+02  0.67342055228E+02  0.00000000000E+00 0.  1.
         23    2    1    2    0    0  0.68796555125E+02 -0.90126950267E+01  0.31580678546E+02  0.12040485009E+03  0.93197607257E+02 0.  0.
         23    2    1    2    0    0 -0.31311879959E+02  0.20092774446E+02  0.31374303737E+03  0.32953042982E+03  0.93656058363E+02 0.  0.
        -11    1    4    4    0    0  0.61191433557E+01 -0.26541714680E+02  0.34499535738E+02  0.43955938162E+02  0.00000000000E+00 0.  1.
         11    1    4    4    0    0 -0.37431023315E+02  0.46634489126E+02  0.27924350163E+03  0.28557449166E+03  0.00000000000E+00 0. -1.
        -11    1    3    3    0    0  0.91624380824E+02 -0.14360320222E+02  0.25378447536E+02  0.96152543168E+02  0.00000000000E+00 0.  1.
         11    1    3    3    0    0 -0.22827825700E+02  0.53476251958E+01  0.62022310104E+01  0.24252306920E+02  0.00000000000E+00 0. -1.
         21    1    1    2  502  503 -0.18568297493E+02 -0.24301852014E+02  0.19602274359E+02  0.36326448259E+02  0.00000000000E+00 0.  1.
         21    1    1    2  503  501 -0.18916377672E+02  0.13221772595E+02  0.13277482443E+02  0.26625855006E+02  0.00000000000E+00 0.  1.
<scales pt_clust_5="13000.00000" pt_clust_6="13000.00000" pt_clust_7="13000.00000" pt_clust_8="13000.00000" pt_clust_9="30.88255" pt_clust_10="23.07909"></scales>
<clustering>
<clus scale="   23.079">  2 10  1 -1</clus>
<clus scale="   30.883">  2  9  1 -1</clus>
<clus scale="   93.198">  7  8 -1 -1</clus>
<clus scale="   93.656">  5  6 -1 -1</clus>
<clus scale="  101.940">  2  7  1 -1</clus>
<clus scale="  102.360">  1  5  2 -1</clus>
</clustering>
</event>
<event>
10    2  0.2445576E-006  0.9902856E+02  0.7546771E-02  0.1284217E+00
          1   -1    0    0  502    0  0.00000000000E+00  0.00000000000E+00  0.21934247092E+03  0.21934247092E+03  0.00000000000E+00 0. -1.
         -1   -1    0    0    0  501 -0.00000000000E+00 -0.00000000000E+00 -0.91352052264E+02  0.91352052264E+02  0.00000000000E+00 0.  1.
         23    2    1    2    0    0  0.19330063263E+02  0.20036356591E+02  0.31843071219E+02  0.10681508031E+03  0.98083501496E+02 0.  0.
         23    2    1    2    0    0  0.19489143331E+02  0.35700930705E+02  0.78329686726E+02  0.12938975029E+03  0.94613870524E+02 0.  0.
        -13    1    3    3    0    0  0.24919697540E+02 -0.72560608091E+01  0.61119364503E+02  0.66401946216E+02  0.00000000000E+00 0.  1.
         13    1    3    3    0    0 -0.55896342773E+01  0.27292417401E+02 -0.29276293284E+02  0.40413134095E+02  0.00000000000E+00 0. -1.
        -13    1    4    4    0    0  0.20956668922E+02  0.55838845564E+02  0.13042173830E+02  0.61051264889E+02  0.00000000000E+00 0.  1.
         13    1    4    4    0    0 -0.14675255916E+01 -0.20137914860E+02  0.65287512896E+02  0.68338485398E+02  0.00000000000E+00 0. -1.
         21    1    1    2  502  503 -0.23498027135E+02 -0.27906198779E+02  0.21756940331E+02  0.42476789687E+02  0.00000000000E+00 0. -1.
         21    1    1    2  503  501 -0.15321179459E+02 -0.27831088517E+02 -0.39392796224E+01  0.32012902899E+02  0.00000000000E+00 0. -1.
<scales pt_clust_5="13000.00000" pt_clust_6="13000.00000" pt_clust_7="13000.00000" pt_clust_8="13000.00000" pt_clust_9="72.32735" pt_clust_10="23.19244"></scales>
<clustering>
<clus scale="   23.192">  9 10 -1 -1</clus>
<clus scale="   72.327">  2  9  1 -1</clus>
<clus scale="   94.614">  7  8 -1 -1</clus>
<clus scale="   95.593">  1  7  2 -1</clus>
<clus scale="   98.084">  5  6 -1 -1</clus>
<clus scale="   95.593">  1  5  2 -1</clus>
</clustering>
</event>
<event>
10    2  0.2445576E-006  0.9763949E+02  0.7546771E-02  0.1285735E+00
          1   -1    0    0  502    0  0.00000000000E+00  0.00000000000E+00  0.83711937051E+03  0.83711937051E+03  0.00000000000E+00 0. -1.
         -1   -1    0    0    0  501 -0.00000000000E+00 -0.00000000000E+00 -0.14905076936E+03  0.14905076936E+03  0.00000000000E+00 0.  1.
         23    2    1    2    0    0 -0.37461754249E+01  0.71610106731E+02  0.46326639114E+03  0.47741940184E+03  0.90396321160E+02 0.  0.
         23    2    1    2    0    0 -0.25440688010E+02  0.66181894185E+00  0.30350052094E+03  0.31747551809E+03  0.89612899537E+02 0.  0.
        -11    1    4    4    0    0 -0.38605404328E+02 -0.30211409480E+02  0.24650481840E+03  0.25133191601E+03  0.00000000000E+00 0.  1.
         11    1    4    4    0    0  0.13164716318E+02  0.30873228422E+02  0.56995702536E+02  0.66143602083E+02  0.00000000000E+00 0. -1.
        -13    1    3    3    0    0  0.25983998533E+02  0.66779663916E+02  0.41010592096E+03  0.41631905805E+03  0.00000000000E+00 0. -1.
         13    1    3    3    0    0 -0.29730173958E+02  0.48304428152E+01  0.53160470184E+02  0.61100343793E+02  0.00000000000E+00 0.  1.
         21    1    1    2  502  503  0.21130993636E+02  0.44210637859E+01  0.42474041259E+02  0.47645659592E+02  0.00000000000E+00 0. -1.
         21    1    1    2  503  501  0.80558697991E+01 -0.76692989459E+02 -0.12117235219E+03  0.14362956035E+03  0.00000000000E+00 0.  1.
<scales pt_clust_5="13000.00000" pt_clust_6="13000.00000" pt_clust_7="13000.00000" pt_clust_8="13000.00000" pt_clust_9="21.58853" pt_clust_10="77.08449"></scales>
<clustering>
<clus scale="   21.589">  1  9  2 -1</clus>
<clus scale="   77.084">  2 10  1 -1</clus>
<clus scale="   89.613">  5  6 -1 -1</clus>
<clus scale="   90.396">  7  8 -1 -1</clus>
<clus scale="   96.915">  1  5  2 -1</clus>
<clus scale="   21.589">  1  5  2 -1</clus>
</clustering>
</event>
<event>
10    2  0.2445576E-006  0.1510680E+03  0.7546771E-02  0.1199300E+00
         -2   -1    0    0    0  501 -0.00000000000E+00  0.00000000000E+00  0.24924187238E+03  0.24924187238E+03  0.00000000000E+00 0.  1.
          2   -1    0    0  502    0  0.00000000000E+00 -0.00000000000E+00 -0.16556627258E+03  0.16556627258E+03  0.00000000000E+00 0. -1.
         23    2    1    2    0    0 -0.44331862410E+02 -0.97457035318E+02  0.73676924715E+02  0.15889369081E+03  0.91409671193E+02 0.  0.
         23    2    1    2    0    0  0.88746260219E+02  0.10011253737E+03  0.18560743704E+02  0.16349500530E+03  0.92128696447E+02 0.  0.
        -11    1    4    4    0    0  0.58478757950E+02  0.71866138003E+02  0.55506242647E+02  0.10800671227E+03  0.00000000000E+00 0.  1.
         11    1    4    4    0    0  0.30267502268E+02  0.28246399364E+02 -0.36945498943E+02  0.55488293025E+02  0.00000000000E+00 0. -1.
        -13    1    3    3    0    0 -0.56310312296E+02 -0.63258837397E+02  0.85922637318E+02  0.12064506365E+03  0.00000000000E+00 0.  1.
         13    1    3    3    0    0  0.11978449886E+02 -0.34198197921E+02 -0.12245712603E+02  0.38248627163E+02  0.00000000000E+00 0. -1.
         21    1    1    2  502  503 -0.31851223899E+02  0.12979041803E+02 -0.41472607254E+02  0.53878874732E+02  0.00000000000E+00 0.  1.
         21    1    1    2  503  501 -0.12563173910E+02 -0.15634543853E+02  0.32910538638E+02  0.38540574121E+02  0.00000000000E+00 0. -1.
<scales pt_clust_5="13000.00000" pt_clust_6="13000.00000" pt_clust_7="13000.00000" pt_clust_8="13000.00000" pt_clust_9="34.56524" pt_clust_10="20.05673"></scales>
<clustering>
<clus scale="   20.057">  1 10  2 -1</clus>
<clus scale="   34.565">  2  9  1 -1</clus>
<clus scale="   91.410">  7  8 -1 -1</clus>
<clus scale="   92.129">  5  6 -1 -1</clus>
<clus scale="  150.631">  1  7  2 -1</clus>
<clus scale="   34.565">  2  5  1 -1</clus>
</clustering>
</event>
<event>
10    2  0.2445576E-006  0.1034028E+03  0.7546771E-02  0.1273707E+00
         -1   -1    0    0    0  501 -0.00000000000E+00  0.00000000000E+00  0.71235291249E+02  0.71235291249E+02  0.00000000000E+00 0.  1.
          1   -1    0    0  503    0  0.00000000000E+00 -0.00000000000E+00 -0.66814752313E+03  0.66814752313E+03  0.00000000000E+00 0. -1.
         23    2    1    2    0    0 -0.33374892996E+02  0.35679592537E+02 -0.17426737332E+03  0.20319902324E+03  0.92378616758E+02 0.  0.
         23    2    1    2    0    0  0.43392281505E+01 -0.45672424658E+02 -0.43544723148E+03  0.44768241059E+03  0.93276203155E+02 0.  0.
        -11    1    3    3    0    0 -0.58038574225E+02 -0.18347499953E+01 -0.11518849489E+03  0.12899702229E+03  0.00000000000E+00 0. -1.
         11    1    3    3    0    0  0.24663681228E+02  0.37514342532E+02 -0.59078878434E+02  0.74202000946E+02  0.00000000000E+00 0.  1.
        -13    1    4    4    0    0 -0.44116220046E+02 -0.16720766449E+02 -0.21595878339E+03  0.22105207763E+03  0.00000000000E+00 0. -1.
         13    1    4    4    0    0  0.48455448197E+02 -0.28951658209E+02 -0.21948844809E+03  0.22663033296E+03  0.00000000000E+00 0.  1.
         21    1    1    2  502  501 -0.19903136190E+02  0.47954105125E+01 -0.20583930236E+02  0.29031516946E+02  0.00000000000E+00 0. -1.
         21    1    1    2  503  502  0.48938801036E+02  0.51974216086E+01  0.33386303158E+02  0.59469863602E+02  0.00000000000E+00 0.  1.
<scales pt_clust_5="13000.00000" pt_clust_6="13000.00000" pt_clust_7="13000.00000" pt_clust_8="13000.00000" pt_clust_9="20.47268" pt_clust_10="36.16700"></scales>
<clustering>
<clus scale="   20.473">  1  9  2 -1</clus>
<clus scale="   36.167">  1 10  2 -1</clus>
<clus scale="   92.379">  5  6 -1 -1</clus>
<clus scale="   93.276">  7  8 -1 -1</clus>
<clus scale="  102.594">  1  5  2 -1</clus>
<clus scale="  103.403">  2  5  1 -1</clus>
</clustering>
</event>
<event>
10    2  0.2445576E-006  0.1071655E+03  0.7546771E-02  0.1270563E+00
          2   -1    0    0  502    0  0.00000000000E+00  0.00000000000E+00  0.39946038358E+03  0.39946038358E+03  0.00000000000E+00 0. -1.
         -2   -1    0    0    0  501 -0.00000000000E+00 -0.00000000000E+00 -0.11259304453E+03  0.11259304453E+03  0.00000000000E+00 0.  1.
         23    2    1    2    0    0  0.29011867206E+02 -0.24399603410E+02 -0.26924980123E+02  0.10956693477E+03  0.99211539422E+02 0.  0.
         23    2    1    2    0    0  0.15115970066E+02  0.42576240618E+02  0.10449554713E+03  0.14459302779E+03  0.89143678959E+02 0.  0.
        -11    1    4    4    0    0 -0.93647679858E+01 -0.23532779680E+02  0.47922199019E+02  0.54203576983E+02  0.00000000000E+00 0. -1.
         11    1    4    4    0    0  0.24480738052E+02  0.66109020297E+02  0.56573348112E+02  0.90389450805E+02  0.00000000000E+00 0.  1.
        -11    1    3    3    0    0 -0.31899505560E+02 -0.26875769997E+02 -0.24885127565E+02  0.48571133833E+02  0.00000000000E+00 0. -1.
         11    1    3    3    0    0  0.60911372766E+02  0.24761665876E+01 -0.20398525584E+01  0.60995800935E+02  0.00000000000E+00 0.  1.
         21    1    1    2  502  503 -0.35245578216E+02  0.64308609786E+00  0.22751829929E+03  0.23023301426E+03  0.00000000000E+00 0. -1.
         21    1    1    2  503  501 -0.88822590559E+01 -0.18819723306E+02 -0.18221527240E+02  0.27660451301E+02  0.00000000000E+00 0.  1.
<scales pt_clust_5="13000.00000" pt_clust_6="13000.00000" pt_clust_7="13000.00000" pt_clust_8="13000.00000" pt_clust_9="35.38187" pt_clust_10="20.81049"></scales>
<clustering>
<clus scale="   20.810">  2 10  1 -1</clus>
<clus scale="   35.382">  1  9  2 -1</clus>
<clus scale="   89.144">  5  6 -1 -1</clus>
<clus scale="   97.919">  1  5  2 -1</clus>
<clus scale="   99.212">  7  8 -1 -1</clus>
<clus scale="   35.382">  1  5  2 -1</clus>
</clustering>
</event>
<event>
10    2  0.2445576E-006  0.1397151E+03  0.7546771E-02  0.1214116E+00
          2   -1    0    0  502    0  0.00000000000E+00  0.00000000000E+00  0.79020620273E+03  0.79020620273E+03  0.00000000000E+00 0. -1.
         -2   -1    0    0    0  501 -0.00000000000E+00 -0.00000000000E+00 -0.39956607706E+02  0.39956607706E+02  0.00000000000E+00 0.  1.
         23    2    1    2    0    0  0.39668947455E+01  0.11290584273E+03  0.35520015676E+03  0.38400139744E+03  0.92338812539E+02 0.  0.
         23    2    1    2    0    0  0.85621112541E+00 -0.97458254535E+02  0.31996314655E+03  0.34651184795E+03  0.90527350282E+02 0.  0.
        -11    1    3    3    0    0 -0.31733825937E+02  0.25824864958E+02  0.49926621280E+02  0.64549414182E+02  0.00000000000E+00 0.  1.
         11    1    3    3    0    0  0.35700720683E+02  0.87080977771E+02  0.30527353548E+03  0.31945198326E+03  0.00000000000E+00 0. -1.
        -11    1    4    4    0    0 -0.38412483672E+02 -0.81418299709E+02  0.23202799804E+03  0.24888039357E+03  0.00000000000E+00 0.  1.
         11    1    4    4    0    0  0.39268694798E+02 -0.16039954826E+02  0.87935148511E+02  0.97631454386E+02  0.00000000000E+00 0. -1.
         21    1    1    2  502  503 -0.26877488037E+02  0.28334884437E+01  0.63011013155E+02  0.68562495570E+02  0.00000000000E+00 0.  1.
         21    1    1    2  503  501  0.22054382166E+02 -0.18281076638E+02  0.12075278562E+02  0.31087069469E+02  0.00000000000E+00 0. -1.
<scales pt_clust_5="13000.00000" pt_clust_6="13000.00000" pt_clust_7="13000.00000" pt_clust_8="13000.00000" pt_clust_9="27.02643" pt_clust_10="27.97923"></scales>
<clustering>
<clus scale="   27.026">  1  9  2 -1</clus>
<clus scale="   27.979">  2 10  1 -1</clus>
<clus scale="   90.527">  7  8 -1 -1</clus>
<clus scale="   92.339">  5  6 -1 -1</clus>
<clus scale="  138.525">  1  7  2 -1</clus>
<clus scale="   27.026">  1  5  2 -1</clus>
</clustering>
</event>
<event>
10    2  0.2445576E-006  0.1076345E+03  0.7546771E-02  0.1265274E+00
          1   -1    0    0  502    0  0.00000000000E+00  0.00000000000E+00  0.97324753110E+02  0.97324753110E+02  0.00000000000E+00 0. -1.
         -1   -1    0    0    0  501 -0.00000000000E+00 -0.00000000000E+00 -0.27744589022E+03  0.27744589022E+03  0.00000000000E+00 0.  1.
         23    2    1    2    0    0 -0.40991640319E+02 -0.58946466298E+02 -0.14890481948E+03  0.18904137183E+03  0.91700569980E+02 0.  0.
         23    2    1    2    0    0  0.43644655645E+02  0.29524717990E+02  0.13369332663E+02  0.10714988439E+03  0.92335224759E+02 0.  0.
        -11    1    4    4    0    0  0.40336417097E+02 -0.27511156862E+02  0.10529695755E+02  0.49947620452E+02  0.00000000000E+00 0.  1.
         11    1    4    4    0    0  0.33082385485E+01  0.57035874852E+02  0.28396369079E+01  0.57202263943E+02  0.00000000000E+00 0. -1.
        -13    1    3    3    0    0  0.59912909823E+01  0.19517037844E+02 -0.10001107343E+02  0.22733949985E+02  0.00000000000E+00 0. -1.
         13    1    3    3    0    0 -0.46982931302E+02 -0.78463504142E+02 -0.13890371214E+03  0.16630742185E+03  0.00000000000E+00 0.  1.
         21    1    1    2  502  503 -0.17167706605E+02  0.13569325718E+02  0.67710023921E+01  0.22906401374E+02  0.00000000000E+00 0. -1.
         21    1    1    2  503  501  0.14514691279E+02  0.15852422591E+02 -0.51356652684E+02  0.55672985727E+02  0.00000000000E+00 0. -1.
<scales pt_clust_5="13000.00000" pt_clust_6="13000.00000" pt_clust_7="13000.00000" pt_clust_8="13000.00000" pt_clust_9="21.84035" pt_clust_10="21.49362"></scales>
<clustering>
<clus scale="   21.494">  2 10  1 -1</clus>
<clus scale="   21.840">  1  9  2 -1</clus>
<clus scale="   91.701">  7  8 -1 -1</clus>
<clus scale="   92.335">  5  6 -1 -1</clus>
<clus scale="  107.091">  2  7  1 -1</clus>
<clus scale="   21.840">  1  5  2 -1</clus>
</clustering>
</event>
<event>
10    2  0.2445576E-006  0.3088572E+03  0.7546771E-02  0.1080926E+00
         -2   -1    0    0    0  501 -0.00000000000E+00  0.00000000000E+00  0.46908053276E+03  0.46908053276E+03  0.00000000000E+00 0.  1.
          2   -1    0    0  502    0  0.00000000000E+00 -0.00000000000E+00 -0.42756304787E+03  0.42756304787E+03  0.00000000000E+00 0. -1.
         23    2    1    2    0    0  0.29090139684E+03  0.26806731769E+02  0.25736864918E+03  0.39983919986E+03  0.91052405840E+02 0.  0.
         23    2    1    2    0    0 -0.27249444262E+03 -0.24037520798E+02 -0.88368492781E+02  0.30181440913E+03  0.91934342773E+02 0.  0.
        -11    1    4    4    0    0 -0.20477141309E+03 -0.72187563942E+00 -0.10221155979E+03  0.22886471043E+03  0.00000000000E+00 0. -1.
         11    1    4    4    0    0 -0.67723029526E+02 -0.23315645159E+02  0.13843067009E+02  0.72949698708E+02  0.00000000000E+00 0.  1.
        -13    1    3    3    0    0  0.14396596464E+03  0.48139271507E+02  0.91592275448E+02  0.17729278992E+03  0.00000000000E+00 0.  1.
         13    1    3    3    0    0  0.14693543220E+03 -0.21332539739E+02  0.16577637374E+03  0.22254640994E+03  0.00000000000E+00 0. -1.
         21    1    1    2  502  503 -0.40066010453E+02  0.30376297949E+02 -0.14367019978E+03  0.15221409585E+03  0.00000000000E+00 0. -1.
         21    1    1    2  503  501  0.21659056233E+02 -0.33145508920E+02  0.16187528263E+02  0.42775875792E+02  0.00000000000E+00 0.  1.
<scales pt_clust_5="13000.00000" pt_clust_6="13000.00000" pt_clust_7="13000.00000" pt_clust_8="13000.00000" pt_clust_9="49.91711" pt_clust_10="39.59469"></scales>
<clustering>
<clus scale="   39.595">  1 10  2 -1</clus>
<clus scale="   49.917">  2  9  1 -1</clus>
<clus scale="   91.052">  7  8 -1 -1</clus>
<clus scale="   91.934">  5  6 -1 -1</clus>
<clus scale="  308.596">  1  7  2 -1</clus>
<clus scale="   49.917">  2  5  1 -1</clus>
</clustering>
</event>
<event>
10    2  0.2445576E-006  0.3481711E+03  0.7546771E-02  0.1071534E+00
          2   -1    0    0  502    0  0.00000000000E+00  0.00000000000E+00  0.50715378787E+03  0.50715378787E+03  0.00000000000E+00 0. -1.
         -2   -1    0    0    0  501 -0.00000000000E+00 -0.00000000000E+00 -0.71416990729E+03  0.71416990729E+03  0.00000000000E+00 0.  1.
         23    2    1    2    0    0 -0.34449558575E+03 -0.20406860862E+03 -0.27396726684E+03  0.49368401060E+03  0.91348964930E+02 0.  0.
         23    2    1    2    0    0  0.76339860520E+01  0.26288668990E+03  0.20670440498E+03  0.34659676455E+03  0.90746441732E+02 0.  0.
        -11    1    3    3    0    0 -0.73937743300E+02 -0.29705564322E+02 -0.16192461963E+02  0.81310554422E+02  0.00000000000E+00 0.  1.
         11    1    3    3    0    0 -0.27055784245E+03 -0.17436304430E+03 -0.25777480488E+03  0.41237345617E+03  0.00000000000E+00 0. -1.
        -13    1    4    4    0    0  0.41747259383E+02  0.11546723566E+03  0.12245193544E+03  0.17340701448E+03  0.00000000000E+00 0.  1.
         13    1    4    4    0    0 -0.34113273331E+02  0.14741945424E+03  0.84252469540E+02  0.17318975007E+03  0.00000000000E+00 0. -1.
         21    1    1    2  502  503  0.31096884360E+03 -0.55217486286E+02 -0.96045919599E+02  0.33011423955E+03  0.00000000000E+00 0.  1.
         21    1    1    2  503  501  0.25892756096E+02 -0.36005949956E+01 -0.43707337955E+02  0.50928680463E+02  0.00000000000E+00 0.  1.
<scales pt_clust_5="13000.00000" pt_clust_6="13000.00000" pt_clust_7="13000.00000" pt_clust_8="13000.00000" pt_clust_9="335.97396" pt_clust_10="26.14190"></scales>
<clustering>
<clus scale="   26.142">  2 10  1 -1</clus>
<clus scale="   90.746">  7  8 -1 -1</clus>
<clus scale="   91.349">  5  6 -1 -1</clus>
<clus scale="  277.944">  1  7  2 -1</clus>
<clus scale="  335.974">  1  9  2 -1</clus>
<clus scale="  277.944">  1  5  2 -1</clus>
</clustering>
</event>
<event>
10    2  0.2445576E-006  0.1442146E+03  0.7546771E-02  0.1218605E+00
          2   -1    0    0  502    0  0.00000000000E+00  0.00000000000E+00  0.79411259506E+02  0.79411259506E+02  0.00000000000E+00 0. -1.
         -2   -1    0    0    0  501 -0.00000000000E+00 -0.00000000000E+00 -0.77314684310E+03  0.77314684310E+03  0.00000000000E+00 0.  1.
         23    2    1    2    0    0  0.40732162148E+02 -0.46530873899E+02 -0.20969883055E+03  0.23742147559E+03  0.92580377392E+02 0.  0.
         23    2    1    2    0    0  0.12671960947E+02 -0.90053357165E+02 -0.75760614353E+02  0.14876444376E+03  0.90116609513E+02 0.  0.
        -13    1    4    4    0    0  0.49175213191E+01 -0.68690029681E+02  0.83222014523E+00  0.68870855838E+02  0.00000000000E+00 0. -1.
         13    1    4    4    0    0  0.77544396280E+01 -0.21363327484E+02 -0.76592834498E+02  0.79893587926E+02  0.00000000000E+00 0.  1.
        -13    1    3    3    0    0 -0.21389364769E+02  0.24817996619E+01 -0.99212970925E+02  0.10152279475E+03  0.00000000000E+00 0.  1.
         13    1    3    3    0    0  0.62121526917E+02 -0.49012673561E+02 -0.11048585963E+03  0.13589868084E+03  0.00000000000E+00 0. -1.
         21    1    1    2  502  503  0.41853263677E+02  0.25241234578E+01 -0.23830903377E+02  0.48228402787E+02  0.00000000000E+00 0. -1.
         21    1    1    2  503  501 -0.95257386772E+02  0.13406010761E+03 -0.38444523531E+03  0.41814378046E+03  0.00000000000E+00 0.  1.
<scales pt_clust_5="13000.00000" pt_clust_6="13000.00000" pt_clust_7="13000.00000" pt_clust_8="13000.00000" pt_clust_9="41.92931" pt_clust_10="112.59145"></scales>
<clustering>
<clus scale="   41.929">  1  9  2 -1</clus>
<clus scale="   90.117">  5  6 -1 -1</clus>
<clus scale="   92.580">  7  8 -1 -1</clus>
<clus scale="  114.564">  2  7  1 -1</clus>
<clus scale="  112.591">  2 10  1 -1</clus>
<clus scale="   41.929">  1  5  2 -1</clus>
</clustering>
</event>
<event>
10    2  0.2445576E-006  0.9895893E+02  0.7546771E-02  0.1283163E+00
         -2   -1    0    0    0  501 -0.00000000000E+00  0.00000000000E+00  0.38883292577E+03  0.38883292577E+03  0.00000000000E+00 0.  1.
          2   -1    0    0  502    0  0.00000000000E+00 -0.00000000000E+00 -0.61233662179E+02  0.61233662179E+02  0.00000000000E+00 0. -1.
         23    2    1    2    0    0  0.57925742379E+02 -0.15160478681E+02  0.21259239470E+03  0.23913668742E+03  0.91682044263E+02 0.  0.
         23    2    1    2    0    0 -0.11698930019E+02 -0.49327103195E+01  0.60624211970E+02  0.11173559305E+03  0.92996511130E+02 0.  0.
        -13    1    4    4    0    0  0.23741549971E+02 -0.11480969916E+02  0.69740521729E+02  0.74560138387E+02  0.00000000000E+00 0.  1.
         13    1    4    4    0    0 -0.35440479990E+02  0.65482595962E+01 -0.91163097596E+01  0.37175454662E+02  0.00000000000E+00 0. -1.
        -13    1    3    3    0    0  0.11587428983E+02 -0.46992656481E+02  0.13426570043E+03  0.14272300650E+03  0.00000000000E+00 0. -1.
         13    1    3    3    0    0  0.46338313396E+02  0.31832177800E+02  0.78326694276E+02  0.96413680918E+02  0.00000000000E+00 0.  1.
         21    1    1    2  502  503 -0.16717100403E+02  0.32692441108E+02  0.78605258114E+00  0.36727034050E+02  0.00000000000E+00 0.  1.
         21    1    1    2  503  501 -0.29509711957E+02 -0.12599252108E+02  0.53596604334E+02  0.62467273429E+02  0.00000000000E+00 0.  1.
<scales pt_clust_5="13000.00000" pt_clust_6="13000.00000" pt_clust_7="13000.00000" pt_clust_8="13000.00000" pt_clust_9="36.88902" pt_clust_10="32.08682"></scales>
<clustering>
<clus scale="   32.087">  1 10  2 -1</clus>
<clus scale="   36.889">  2  9  1 -1</clus>
<clus scale="   91.682">  7  8 -1 -1</clus>
<clus scale="   92.997">  5  6 -1 -1</clus>
<clus scale="   97.725">  1  7  2 -1</clus>
<clus scale="   36.889">  2  5  1 -1</clus>
</clustering>
</event>
<event>
10    2  0.2445576E-006  0.2396601E+03  0.7546771E-02  0.1121223E+00
         -2   -1    0    0    0  501 -0.00000000000E+00  0.00000000000E+00  0.95388763375E+02  0.95388763375E+02  0.00000000000E+00 0.  1.
          2   -1    0    0  502    0  0.00000000000E+00 -0.00000000000E+00 -0.11366252908E+04  0.11366252908E+04  0.00000000000E+00 0. -1.
         23    2    1    2    0    0 -0.21982502108E+03  0.56241541306E+02 -0.27352623546E+03  0.36267095742E+03  0.72301251761E+02 0.  0.
         23    2    1    2    0    0  0.21837926919E+03 -0.58159919257E+02 -0.74493109688E+03  0.78394694172E+03  0.92619581679E+02 0.  0.
        -11    1    3    3    0    0 -0.17792160326E+03  0.59346541782E+02 -0.25549391690E+03  0.31694676288E+03  0.00000000000E+00 0.  1.
         11    1    3    3    0    0 -0.41903417827E+02 -0.31050004762E+01 -0.18032318562E+02  0.45724194539E+02  0.00000000000E+00 0. -1.
        -13    1    4    4    0    0  0.47954054749E+02 -0.38068089249E+02 -0.31758157405E+03  0.32342978676E+03  0.00000000000E+00 0.  1.
         13    1    4    4    0    0  0.17042521444E+03 -0.20091830008E+02 -0.42734952283E+03  0.46051715496E+03  0.00000000000E+00 0. -1.
         21    1    1    2  502  503 -0.82570072100E+01  0.20550687101E+02 -0.47826470083E+02  0.52705598839E+02  0.00000000000E+00 0.  1.
         21    1    1    2  503  501  0.97027591066E+01 -0.18632309151E+02  0.25047275011E+02  0.32690556191E+02  0.00000000000E+00 0.  1.
<scales pt_clust_5="13000.00000" pt_clust_6="13000.00000" pt_clust_7="13000.00000" pt_clust_8="13000.00000" pt_clust_9="21.38084" pt_clust_10="21.00730"></scales>
<clustering>
<clus scale="   21.007">  1 10  2 -1</clus>
<clus scale="   21.381">  2  9  1 -1</clus>
<clus scale="   72.301">  5  6 -1 -1</clus>
<clus scale="   92.620">  7  8 -1 -1</clus>
<clus scale="  232.564">  1  5  2 -1</clus>
<clus scale="   21.381">  2  5  1 -1</clus>
</clustering>
</event>
<event>
10    2  0.2445576E-006  0.2352819E+03  0.7546771E-02  0.1155078E+00
          2   -1    0    0  502    0  0.00000000000E+00  0.00000000000E+00  0.29637315970E+03  0.29637315970E+03  0.00000000000E+00 0. -1.
         -2   -1    0    0    0  501 -0.00000000000E+00 -0.00000000000E+00 -0.46344611618E+03  0.46344611618E+03  0.00000000000E+00 0.  1.
         23    2    1    2    0    0 -0.50158444239E+01  0.44783487209E+02 -0.46818488331E+02  0.11475203230E+03  0.94579800411E+02 0.  0.
         23    2    1    2    0    0  0.21899912858E+03 -0.89378100190E+02 -0.21553760944E+02  0.25473398705E+03  0.92063980115E+02 0.  0.
        -11    1    3    3    0    0 -0.19889858380E+02 -0.76318424255E+01 -0.55620427283E+02  0.59560753994E+02  0.00000000000E+00 0. -1.
         11    1    3    3    0    0  0.14874013956E+02  0.52415329635E+02  0.88019389524E+01  0.55191278308E+02  0.00000000000E+00 0.  1.
        -13    1    4    4    0    0  0.92905547434E+02 -0.62462269771E+02  0.29959026036E+02  0.11589011662E+03  0.00000000000E+00 0. -1.
         13    1    4    4    0    0  0.12609358115E+03 -0.26915830419E+02 -0.51512786981E+02  0.13884387043E+03  0.00000000000E+00 0.  1.
         21    1    1    2  502  503 -0.20862006829E+03  0.16921897266E+02  0.68919027050E+02  0.22035996866E+03  0.00000000000E+00 0. -1.
         21    1    1    2  503  501 -0.53632158717E+01  0.27672715714E+02 -0.16761973425E+03  0.16997328787E+03  0.00000000000E+00 0.  1.
<scales pt_clust_5="13000.00000" pt_clust_6="13000.00000" pt_clust_7="13000.00000" pt_clust_8="13000.00000" pt_clust_9="216.52204" pt_clust_10="28.18764"></scales>
<clustering>
<clus scale="   28.188">  2 10  1 -1</clus>
<clus scale="   92.064">  7  8 -1 -1</clus>
<clus scale="   94.580">  5  6 -1 -1</clus>
<clus scale="  108.306">  2  5  1 -1</clus>
<clus scale="  216.522">  1  9  2 -1</clus>
<clus scale="  216.522">  1  5  2 -1</clus>
</clustering>
</event>
<event>
10    2  0.2445576E-006  0.9292794E+02  0.7546771E-02  0.1296645E+00
          1   -1    0    0  502    0  0.00000000000E+00  0.00000000000E+00  0.35730283738E+02  0.35730283738E+02  0.00000000000E+00 0. -1.
         -1   -1    0    0    0  501 -0.00000000000E+00 -0.00000000000E+00 -0.70523160735E+03  0.70523160735E+03  0.00000000000E+00 0.  1.
         23    2    1    2    0    0 -0.10412962769E+02  0.52253083499E+02 -0.21498352829E+03  0.23977150419E+03  0.91834864070E+02 0.  0.
         23    2    1    2    0    0 -0.83574350793E+01  0.18672384414E+02 -0.99826746122E+02  0.13633086863E+03  0.90566118613E+02 0.  0.
        -11    1    3    3    0    0 -0.76410059865E+00 -0.20352077275E+02 -0.10934397009E+03  0.11122452380E+03  0.00000000000E+00 0.  1.
         11    1    3    3    0    0 -0.96488621700E+01  0.72605160774E+02 -0.10563955820E+03  0.12854698039E+03  0.00000000000E+00 0. -1.
        -11    1    4    4    0    0 -0.30617446745E+02 -0.20190694859E+01 -0.10135814263E+03  0.10590079208E+03  0.00000000000E+00 0.  1.
         11    1    4    4    0    0  0.22260011666E+02  0.20691453900E+02  0.15313965036E+01  0.30430076554E+02  0.00000000000E+00 0. -1.
         21    1    1    2  502  503 -0.41066588783E+01 -0.25676972345E+02 -0.54130675400E+02  0.60052490166E+02  0.00000000000E+00 0. -1.
         21    1    1    2  503  501  0.22877056726E+02 -0.45248495568E+02 -0.30056037380E+03  0.30480702809E+03  0.00000000000E+00 0. -1.
<scales pt_clust_5="13000.00000" pt_clust_6="13000.00000" pt_clust_7="13000.00000" pt_clust_8="13000.00000" pt_clust_9="26.00330" pt_clust_10="52.07702"></scales>
<clustering>
<clus scale="   26.003">  1  9  2 -1</clus>
<clus scale="   52.077">  2 10  1 -1</clus>
<clus scale="   90.566">  7  8 -1 -1</clus>
<clus scale="   91.674">  1  7  2 -1</clus>
<clus scale="   91.835">  5  6 -1 -1</clus>
<clus scale="   26.003">  1  5  2 -1</clus>
</clustering>
</event>
<event>
10    2  0.2445576E-006  0.1109467E+03  0.7546771E-02  0.1260480E+00
          2   -1    0    0  502    0  0.00000000000E+00  0.00000000000E+00  0.21439644847E+03  0.21439644847E+03  0.00000000000E+00 0. -1.
         -2   -1    0    0    0  501 -0.00000000000E+00 -0.00000000000E+00 -0.14851206730E+03  0.14851206730E+03  0.00000000000E+00 0.  1.
         23    2    1    2    0    0 -0.55828093751E+01 -0.36941303513E+02 -0.38843990418E+02  0.10885920031E+03  0.94581405334E+02 0.  0.
         23    2    1    2    0    0 -0.25907753397E+02  0.70986982204E+02  0.90481964151E+02  0.14855381554E+03  0.90392958499E+02 0.  0.
        -11    1    3    3    0    0  0.27414022358E+02 -0.42541190076E+02  0.80514472629E+01  0.51245558617E+02  0.00000000000E+00 0.  1.
         11    1    3    3    0    0 -0.32996831733E+02  0.55998865632E+01 -0.46895437681E+02  0.57613641694E+02  0.00000000000E+00 0. -1.
        -11    1    4    4    0    0  0.18663573367E+02 -0.11221482641E+02  0.61466502857E+01  0.22628123060E+02  0.00000000000E+00 0.  1.
         11    1    4    4    0    0 -0.44571326764E+02  0.82208464845E+02  0.84335313866E+02  0.12592569248E+03  0.00000000000E+00 0. -1.
         21    1    1    2  502  503 -0.14303321274E+02 -0.19112368615E+02  0.43156093409E+02  0.49318516115E+02  0.00000000000E+00 0. -1.
         21    1    1    2  503  501  0.45793884046E+02 -0.14933310077E+02 -0.28909685974E+02  0.56176983801E+02  0.00000000000E+00 0.  1.
<scales pt_clust_5="13000.00000" pt_clust_6="13000.00000" pt_clust_7="13000.00000" pt_clust_8="13000.00000" pt_clust_9="23.87190" pt_clust_10="47.58045"></scales>
<clustering>
<clus scale="   23.872">  1  9  2 -1</clus>
<clus scale="   47.580">  2 10  1 -1</clus>
<clus scale="   90.393">  7  8 -1 -1</clus>
<clus scale="   94.581">  5  6 -1 -1</clus>
<clus scale="  107.398">  1  7  2 -1</clus>
<clus scale="   23.872">  1  5  2 -1</clus>
</clustering>
</event>
<event>
10    2  0.2445576E-006  0.1203125E+03  0.7546771E-02  0.1246965E+00
          1   -1    0    0  502    0  0.00000000000E+00  0.00000000000E+00  0.29320764198E+03  0.29320764198E+03  0.00000000000E+00 0. -1.
         -1   -1    0    0    0  501 -0.00000000000E+00 -0.00000000000E+00 -0.16877983885E+03  0.16877983885E+03  0.00000000000E+00 0.  1.
         23    2    1    2    0    0  0.60994587709E+01 -0.97099310497E+02 -0.47793502089E+02  0.14156805758E+03  0.91059412408E+02 0.  0.
         23    2    1    2    0    0 -0.34143356277E+02  0.39156494665E+02  0.67179384305E+02  0.11471850558E+03  0.77125002400E+02 0.  0.
        -11    1    3    3    0    0 -0.10173109574E+02 -0.50048630111E+02 -0.70331629042E+02  0.86918902307E+02  0.00000000000E+00 0. -1.
         11    1    3    3    0    0  0.16272568345E+02 -0.47050680385E+02  0.22538126953E+02  0.54649155271E+02  0.00000000000E+00 0.  1.
        -13    1    4    4    0    0  0.14884726606E+02  0.40802579354E+02  0.37511851554E+02  0.57389411699E+02  0.00000000000E+00 0. -1.
         13    1    4    4    0    0 -0.49028082883E+02 -0.16460846894E+01  0.29667532751E+02  0.57329093883E+02  0.00000000000E+00 0.  1.
         21    1    1    2  502  503 -0.30788969987E+02  0.44216044141E+02  0.12970258343E+03  0.14044849370E+03  0.00000000000E+00 0. -1.
         21    1    1    2  503  501  0.58832867492E+02  0.13726771690E+02 -0.24660662518E+02  0.65252423972E+02  0.00000000000E+00 0. -1.
<scales pt_clust_5="13000.00000" pt_clust_6="13000.00000" pt_clust_7="13000.00000" pt_clust_8="13000.00000" pt_clust_9="53.87967" pt_clust_10="58.20973"></scales>
<clustering>
<clus scale="   53.880">  1  9  2 -1</clus>
<clus scale="   58.210">  2 10  1 -1</clus>
<clus scale="   77.125">  7  8 -1 -1</clus>
<clus scale="   91.059">  5  6 -1 -1</clus>
<clus scale="  110.143">  1  7  2 -1</clus>
<clus scale="   53.880">  1  5  2 -1</clus>
</clustering>
</event>
<event>
10    2  0.2445576E-006  0.1028631E+03  0.7546771E-02  0.1275168E+00
          2   -1    0    0  502    0  0.00000000000E+00  0.00000000000E+00  0.64175585135E+03  0.64175585135E+03  0.00000000000E+00 0. -1.
         -2   -1    0    0    0  501 -0.00000000000E+00 -0.00000000000E+00 -0.13234211921E+03  0.13234211921E+03  0.00000000000E+00 0.  1.
         23    2    1    2    0    0  0.54742491130E+01 -0.30488721229E+02  0.67660567797E+02  0.11838488269E+03  0.92073332134E+02 0.  0.
         23    2    1    2    0    0 -0.79929423163E+02 -0.28569548987E+02  0.41793770414E+03  0.43593831514E+03  0.90362371827E+02 0.  0.
        -11    1    3    3    0    0  0.26291522432E+02 -0.48692701578E+02  0.12575944933E+02  0.56748372044E+02  0.00000000000E+00 0. -1.
         11    1    3    3    0    0 -0.20817273319E+02  0.18203980348E+02  0.55084622864E+02  0.61636510649E+02  0.00000000000E+00 0.  1.
        -13    1    4    4    0    0 -0.33289881345E+02  0.27937925865E+02  0.23294429711E+03  0.23696368806E+03  0.00000000000E+00 0.  1.
         13    1    4    4    0    0 -0.46639541818E+02 -0.56507474852E+02  0.18499340703E+03  0.19897462708E+03  0.00000000000E+00 0. -1.
         21    1    1    2  502  503  0.30609546807E+02  0.18008055973E+01  0.10605219603E+03  0.11039590364E+03  0.00000000000E+00 0.  1.
         21    1    1    2  503  501  0.43845627244E+02  0.57257464619E+02 -0.82236735837E+02  0.10937886909E+03  0.00000000000E+00 0.  1.
<scales pt_clust_5="13000.00000" pt_clust_6="13000.00000" pt_clust_7="13000.00000" pt_clust_8="13000.00000" pt_clust_9="30.66247" pt_clust_10="72.62910"></scales>
<clustering>
<clus scale="   30.662">  1  9  2 -1</clus>
<clus scale="   72.629">  2 10  1 -1</clus>
<clus scale="   90.362">  7  8 -1 -1</clus>
<clus scale="   92.073">  5  6 -1 -1</clus>
<clus scale="  101.334">  1  7  2 -1</clus>
<clus scale="   30.662">  1  5  2 -1</clus>
</clustering>
</event>
<event>
10    2  0.2445576E-006  0.1302475E+03  0.7546771E-02  0.1227100E+00
         -2   -1    0    0    0  501 -0.00000000000E+00  0.00000000000E+00  0.34851251945E+03  0.34851251945E+03  0.00000000000E+00 0.  1.
          2   -1    0    0  502    0  0.00000000000E+00 -0.00000000000E+00 -0.19889779858E+03  0.19889779858E+03  0.00000000000E+00 0. -1.
         23    2    1    2    0    0  0.90202939761E+02  0.17290449603E+01  0.55166772780E+02  0.13964027605E+03  0.91194703461E+02 0.  0.
         23    2    1    2    0    0 -0.65894570849E+02  0.94438595404E+02 -0.73092538742E+00  0.14686650185E+03  0.91150931666E+02 0.  0.
        -11    1    3    3    0    0  0.72123269269E+02  0.25343352503E+02  0.72381683825E+02  0.10527658638E+03  0.00000000000E+00 0.  1.
         11    1    3    3    0    0  0.18079670491E+02 -0.23614307542E+02 -0.17214911045E+02  0.34363689675E+02  0.00000000000E+00 0. -1.
        -13    1    4    4    0    0  0.14560242095E+02  0.55237296944E+02  0.38385281429E+01  0.57252894441E+02  0.00000000000E+00 0.  1.
         13    1    4    4    0    0 -0.80454812944E+02  0.39201298460E+02 -0.45694535303E+01  0.89613607407E+02  0.00000000000E+00 0. -1.
         21    1    1    2  502  503 -0.17467967550E+02 -0.25771308262E+02 -0.72508789724E+02  0.78910169225E+02  0.00000000000E+00 0. -1.
         21    1    1    2  503  501 -0.68404013617E+01 -0.70396332103E+02  0.16768766320E+03  0.18199337090E+03  0.00000000000E+00 0. -1.
<scales pt_clust_5="13000.00000" pt_clust_6="13000.00000" pt_clust_7="13000.00000" pt_clust_8="13000.00000" pt_clust_9="31.13343" pt_clust_10="72.32054"></scales>
<clustering>
<clus scale="   31.133">  2  9  1 -1</clus>
<clus scale="   72.321">  1 10  2 -1</clus>
<clus scale="   91.151">  7  8 -1 -1</clus>
<clus scale="   91.195">  5  6 -1 -1</clus>
<clus scale="  130.217">  2  7  1 -1</clus>
<clus scale="   31.133">  2  5  1 -1</clus>
</clustering>
</event>
<event>
10    2  0.2445576E-006  0.1651857E+03  0.7546771E-02  0.1204796E+00
          1   -1    0    0  503    0  0.00000000000E+00  0.00000000000E+00  0.43006643179E+03  0.43006643179E+03  0.00000000000E+00 0. -1.
         -1   -1    0    0    0  501 -0.00000000000E+00 -0.00000000000E+00 -0.16901585157E+03  0.16901585157E+03  0.00000000000E+00 0.  1.
         23    2    1    2    0    0 -0.30792873110E+02 -0.36102009106E+02  0.12764678972E+02  0.10400849601E+03  0.91669373935E+02 0.  0.
         23    2    1    2    0    0 -0.46641457737E+02  0.17423600189E+03  0.36853285714E+02  0.20566539259E+03  0.91686853514E+02 0.  0.
        -11    1    4    4    0    0  0.15767814086E+02  0.11561610715E+03  0.19573101912E+02  0.11831658595E+03  0.00000000000E+00 0.  1.
         11    1    4    4    0    0 -0.62409271823E+02  0.58619894744E+02  0.17280183802E+02  0.87348806641E+02  0.00000000000E+00 0. -1.
        -13    1    3    3    0    0 -0.55180813227E+02 -0.41387917356E+02 -0.10643401048E+02  0.69793723481E+02  0.00000000000E+00 0.  1.
         13    1    3    3    0    0  0.24387940117E+02  0.52859082496E+01  0.23408080020E+02  0.34214772532E+02  0.00000000000E+00 0. -1.
         21    1    1    2  502  501 -0.22237492541E+01 -0.10347460259E+03  0.15298076816E+03  0.18470260926E+03  0.00000000000E+00 0. -1.
         21    1    1    2  503  502  0.79658080102E+02 -0.34659390195E+02  0.58451847372E+02  0.10470578549E+03  0.00000000000E+00 0. -1.
<scales pt_clust_5="13000.00000" pt_clust_6="13000.00000" pt_clust_7="13000.00000" pt_clust_8="13000.00000" pt_clust_9="137.40393" pt_clust_10="86.87165"></scales>
<clustering>
<clus scale="   86.872">  1 10  2 -1</clus>
<clus scale="   91.669">  7  8 -1 -1</clus>
<clus scale="   91.687">  5  6 -1 -1</clus>
<clus scale="  102.294">  2  7  1 -1</clus>
<clus scale="  137.404">  1  9  2 -1</clus>
<clus scale="   86.872">  1  5  2 -1</clus>
</clustering>
</event>
<event>
10    2  0.2445576E-006  0.1429763E+03  0.7546771E-02  0.1209677E+00
         -2   -1    0    0    0  501 -0.00000000000E+00  0.00000000000E+00  0.87826437134E+02  0.87826437134E+02  0.00000000000E+00 0.  1.
          2   -1    0    0  502    0  0.00000000000E+00 -0.00000000000E+00 -0.65045500051E+03  0.65045500051E+03  0.00000000000E+00 0. -1.
         23    2    1    2    0    0  0.77961882849E+02 -0.39462520912E+01 -0.96500153328E+02  0.15387580539E+03  0.90949743323E+02 0.  0.
         23    2    1    2    0    0 -0.14232305333E+03  0.25595981557E+02 -0.21378295126E+03  0.27318051299E+03  0.89517800713E+02 0.  0.
        -13    1    4    4    0    0 -0.44977298894E+02 -0.32808309327E+02 -0.83755190721E+02  0.10056974967E+03  0.00000000000E+00 0. -1.
         13    1    4    4    0    0 -0.97345754432E+02  0.58404290884E+02 -0.13002776054E+03  0.17261076331E+03  0.00000000000E+00 0.  1.
        -13    1    3    3    0    0  0.15360883874E+02  0.35723700568E+02 -0.10361910095E+02  0.40243120114E+02  0.00000000000E+00 0.  1.
         13    1    3    3    0    0  0.62600998975E+02 -0.39669952660E+02 -0.86138243233E+02  0.11363268528E+03  0.00000000000E+00 0. -1.
         21    1    1    2  502  503  0.20281242553E+02  0.39778053521E+02 -0.22720080683E+03  0.23154660215E+03  0.00000000000E+00 0. -1.
         21    1    1    2  503  501  0.44079927924E+02 -0.61427782987E+02 -0.25144651960E+02  0.79678517122E+02  0.00000000000E+00 0. -1.
<scales pt_clust_5="13000.00000" pt_clust_6="13000.00000" pt_clust_7="13000.00000" pt_clust_8="13000.00000" pt_clust_9="44.65000" pt_clust_10="73.22277"></scales>
<clustering>
<clus scale="   44.650">  2  9  1 -1</clus>
<clus scale="   73.223">  1 10  2 -1</clus>
<clus scale="   89.518">  5  6 -1 -1</clus>
<clus scale="   90.950">  7  8 -1 -1</clus>
<clus scale="  142.070">  2  5  1 -1</clus>
<clus scale="   44.650">  2  5  1 -1</clus>
</clustering>
</event>
<event>
10    2  0.2445576E-006  0.1592384E+03  0.7546771E-02  0.1189672E+00
          2   -1    0    0  502    0  0.00000000000E+00  0.00000000000E+00  0.21935389834E+03  0.21935389834E+03  0.00000000000E+00 0. -1.
         -2   -1    0    0    0  501 -0.00000000000E+00 -0.00000000000E+00 -0.28418036252E+03  0.28418036252E+03  0.00000000000E+00 0.  1.
         23    2    1    2    0    0 -0.10090818544E+03  0.52899000533E+02  0.19970237165E+02  0.14690019765E+03  0.90554356885E+02 0.  0.
         23    2    1    2    0    0  0.99833736148E+02 -0.11823375614E+03  0.47110758287E+02  0.18503880474E+03  0.89855104189E+02 0.  0.
        -11    1    4    4    0    0  0.58767475611E+02 -0.42051995455E+02 -0.20612385735E+02  0.75145571773E+02  0.00000000000E+00 0.  1.
         11    1    4    4    0    0  0.41066260538E+02 -0.76181760689E+02  0.67723144022E+02  0.10989323297E+03  0.00000000000E+00 0. -1.
        -11    1    3    3    0    0 -0.67240583951E+02  0.76812363908E+02  0.25536130429E+02  0.10523083833E+03  0.00000000000E+00 0.  1.
         11    1    3    3    0    0 -0.33667601485E+02 -0.23913363375E+02 -0.55658932641E+01  0.41669359312E+02  0.00000000000E+00 0. -1.
         21    1    1    2  502  503 -0.65774294014E+01  0.19020743459E+02  0.97495778379E+01  0.22363039312E+02  0.00000000000E+00 0. -1.
         21    1    1    2  503  501  0.76518786894E+01  0.46314012152E+02 -0.14165703747E+03  0.14923221916E+03  0.00000000000E+00 0.  1.
<scales pt_clust_5="13000.00000" pt_clust_6="13000.00000" pt_clust_7="13000.00000" pt_clust_8="13000.00000" pt_clust_9="20.12589" pt_clust_10="47.27186"></scales>
<clustering>
<clus scale="   20.126">  1  9  2 -1</clus>
<clus scale="   47.272">  2 10  1 -1</clus>
<clus scale="   89.855">  5  6 -1 -1</clus>
<clus scale="   90.554">  7  8 -1 -1</clus>
<clus scale="  158.842">  1  5  2 -1</clus>
<clus scale="   20.126">  1  5  2 -1</clus>
</clustering>
</event>
<event>
10    2  0.2445576E-006  0.2046658E+03  0.7546771E-02  0.1146944E+00
          2   -1    0    0  502    0  0.00000000000E+00  0.00000000000E+00  0.10104216742E+04  0.10104216742E+04  0.00000000000E+00 0. -1.
         -2   -1    0    0    0  501 -0.00000000000E+00 -0.00000000000E+00 -0.36013492250E+03  0.36013492250E+03  0.00000000000E+00 0.  1.
         23    2    1    2    0    0 -0.19751337811E+03  0.89847729705E+02 -0.28796577544E+03  0.36919478148E+03  0.79349541776E+02 0.  0.
         23    2    1    2    0    0  0.17167962577E+03 -0.10844921514E+03  0.72466998888E+03  0.75814647541E+03  0.91675292281E+02 0.  0.
        -13    1    4    4    0    0  0.14247389533E+03 -0.12364116978E+03  0.58565881677E+03  0.61529033746E+03  0.00000000000E+00 0. -1.
         13    1    4    4    0    0  0.29205730437E+02  0.15191954634E+02  0.13901117212E+03  0.14285613795E+03  0.00000000000E+00 0.  1.
        -13    1    3    3    0    0 -0.16273697263E+03  0.96774275488E+02 -0.20548562843E+03  0.27941532912E+03  0.00000000000E+00 0.  1.
         13    1    3    3    0    0 -0.34776405479E+02 -0.69265457830E+01 -0.82480147010E+02  0.89779452355E+02  0.00000000000E+00 0. -1.
         21    1    1    2  502  503 -0.12227204406E+02  0.26066423509E+02  0.20008780890E+03  0.20214869337E+03  0.00000000000E+00 0.  1.
         21    1    1    2  503  501  0.38060956746E+02 -0.74649380706E+01  0.13494729361E+02  0.41066646434E+02  0.00000000000E+00 0. -1.
<scales pt_clust_5="13000.00000" pt_clust_6="13000.00000" pt_clust_7="13000.00000" pt_clust_8="13000.00000" pt_clust_9="28.79172" pt_clust_10="38.22055"></scales>
<clustering>
<clus scale="   28.792">  1  9  2 -1</clus>
<clus scale="   38.221">  2 10  1 -1</clus>
<clus scale="   79.350">  7  8 -1 -1</clus>
<clus scale="   91.675">  5  6 -1 -1</clus>
<clus scale="  199.449">  2  7  1 -1</clus>
<clus scale="   28.792">  1  5  2 -1</clus>
</clustering>
</event>
<event>
10    2  0.2445576E-006  0.9569103E+02  0.7546771E-02  0.1289650E+00
          1   -1    0    0  502    0  0.00000000000E+00  0.00000000000E+00  0.21389207990E+03  0.21389207990E+03  0.00000000000E+00 0. -1.
         -1   -1    0    0    0  501 -0.00000000000E+00 -0.00000000000E+00 -0.13224213080E+03  0.13224213080E+03  0.00000000000E+00 0.  1.
         23    2    1    2    0    0  0.26973553437E+02  0.15676366424E+02 -0.45565694848E+02  0.10729358333E+03  0.91991083409E+02 0.  0.
         23    2    1    2    0    0 -0.11222927151E+02  0.15027015848E+02  0.59592962949E+02  0.11116433408E+03  0.91947934398E+02 0.  0.
        -11    1    3    3    0    0  0.27042174290E+02  0.40790703658E+02  0.66133043916E+01  0.49385184927E+02  0.00000000000E+00 0. -1.
         11    1    3    3    0    0 -0.68620852987E-01 -0.25114337234E+02 -0.52178999240E+02  0.57908398400E+02  0.00000000000E+00 0.  1.
        -13    1    4    4    0    0 -0.50183575537E+02  0.24998301148E+01  0.19571588274E+02  0.53922977216E+02  0.00000000000E+00 0.  1.
         13    1    4    4    0    0  0.38960648386E+02  0.12527185734E+02  0.40021374676E+02  0.57241356867E+02  0.00000000000E+00 0. -1.
         21    1    1    2  502  503 -0.21281517519E+02  0.10084228989E+02  0.81033192689E+02  0.84385857699E+02  0.00000000000E+00 0. -1.
         21    1    1    2  503  501  0.55308912330E+01 -0.40787611262E+02 -0.13410511689E+02  0.43290435595E+02  0.00000000000E+00 0.  1.
<scales pt_clust_5="13000.00000" pt_clust_6="13000.00000" pt_clust_7="13000.00000" pt_clust_8="13000.00000" pt_clust_9="23.54983" pt_clust_10="39.76075"></scales>
<clustering>
<clus scale="   23.550">  1  9  2 -1</clus>
<clus scale="   39.761">  2 10  1 -1</clus>
<clus scale="   91.948">  7  8 -1 -1</clus>
<clus scale="   91.991">  5  6 -1 -1</clus>
<clus scale="   95.650">  1  7  2 -1</clus>
<clus scale="   23.550">  1  5  2 -1</clus>
</clustering>
</event>
<event>
10    2  0.2445576E-006  0.1652964E+03  0.7546771E-02  0.1182929E+00
         -2   -1    0    0    0  501 -0.00000000000E+00  0.00000000000E+00  0.12437509701E+03  0.12437509701E+03  0.00000000000E+00 0.  1.
          2   -1    0    0  502    0  0.00000000000E+00 -0.00000000000E+00 -0.73051233567E+03  0.73051233567E+03  0.00000000000E+00 0. -1.
         23    2    1    2    0    0  0.11630384527E+02 -0.92586490233E+02  0.17056594884E+01  0.13091766776E+03  0.91809598840E+02 0.  0.
         23    2    1    2    0    0  0.38831951637E+01  0.17687439470E+03 -0.29488327099E+03  0.35578162173E+03  0.91240276990E+02 0.  0.
        -11    1    3    3    0    0  0.51811529750E+02 -0.48403506430E+02  0.51990999309E+01  0.71094055236E+02  0.00000000000E+00 0. -1.
         11    1    3    3    0    0 -0.40181145223E+02 -0.44182983803E+02 -0.34934404425E+01  0.59823612523E+02  0.00000000000E+00 0.  1.
        -11    1    4    4    0    0  0.16272324328E+02  0.20850973106E+02 -0.11194040767E+03  0.11502263467E+03  0.00000000000E+00 0. -1.
         11    1    4    4    0    0 -0.12389129164E+02  0.15602342159E+03 -0.18294286332E+03  0.24075898705E+03  0.00000000000E+00 0.  1.
         21    1    1    2  502  503  0.23863076038E+02 -0.33759516548E+02 -0.29999437789E+03  0.30282961896E+03  0.00000000000E+00 0. -1.
         21    1    1    2  503  501 -0.39376655729E+02 -0.50528387917E+02 -0.12965249266E+02  0.65358524237E+02  0.00000000000E+00 0. -1.
<scales pt_clust_5="13000.00000" pt_clust_6="13000.00000" pt_clust_7="13000.00000" pt_clust_8="13000.00000" pt_clust_9="41.34188" pt_clust_10="65.25123"></scales>
<clustering>
<clus scale="   41.342">  2  9  1 -1</clus>
<clus scale="   65.251">  1 10  2 -1</clus>
<clus scale="   91.240">  7  8 -1 -1</clus>
<clus scale="   91.810">  5  6 -1 -1</clus>
<clus scale="  164.981">  2  7  1 -1</clus>
<clus scale="   41.342">  2  5  1 -1</clus>
</clustering>
</event>
<event>
10    2  0.2445576E-006  0.3567588E+03  0.7546771E-02  0.1084198E+00
          1   -1    0    0  502    0  0.00000000000E+00  0.00000000000E+00  0.67713372143E+03  0.67713372143E+03  0.00000000000E+00 0. -1.
         -1   -1    0    0    0  501 -0.00000000000E+00 -0.00000000000E+00 -0.64288048085E+03  0.64288048085E+03  0.00000000000E+00 0.  1.
         23    2    1    2    0    0 -0.33195641562E+02  0.36040889645E+03 -0.30639809693E+03  0.48279064844E+03  0.90611771611E+02 0.  0.
         23    2    1    2    0    0  0.61748704413E+02 -0.14601834159E+03  0.28821496120E+03  0.34183924806E+03  0.93015853889E+02 0.  0.
        -11    1    3    3    0    0 -0.25723773980E+02  0.24439910059E+03 -0.25961248774E+03  0.35747905772E+03  0.00000000000E+00 0.  1.
         11    1    3    3    0    0 -0.74718675823E+01  0.11600979586E+03 -0.46785609193E+02  0.12531159072E+03  0.00000000000E+00 0. -1.
        -13    1    4    4    0    0  0.37535343336E+02 -0.15384714957E+03  0.24896632042E+03  0.29506283421E+03  0.00000000000E+00 0. -1.
         13    1    4    4    0    0  0.24213361077E+02  0.78288079787E+01  0.39248640783E+02  0.46776413846E+02  0.00000000000E+00 0.  1.
         21    1    1    2  502  503 -0.78841565251E+02 -0.24513269296E+03  0.20672937205E+03  0.33021669073E+03  0.00000000000E+00 0. -1.
         21    1    1    2  503  501  0.50288502400E+02  0.30742138104E+02 -0.15429299573E+03  0.16516761505E+03  0.00000000000E+00 0. -1.
<scales pt_clust_5="13000.00000" pt_clust_6="13000.00000" pt_clust_7="13000.00000" pt_clust_8="13000.00000" pt_clust_9="345.05987" pt_clust_10="58.94075"></scales>
<clustering>
<clus scale="   58.941">  2 10  1 -1</clus>
<clus scale="   90.612">  5  6 -1 -1</clus>
<clus scale="   93.016">  7  8 -1 -1</clus>
<clus scale="  183.421">  1  7  2 -1</clus>
<clus scale="  345.060">  1  9  2 -1</clus>
<clus scale="  183.421">  1  5  2 -1</clus>
</clustering>
</event>
<event>
10    2  0.2445576E-006  0.9482070E+02  0.7546771E-02  0.1292628E+00
          1   -1    0    0  502    0  0.00000000000E+00  0.00000000000E+00  0.24100962304E+03  0.24100962304E+03  0.00000000000E+00 0. -1.
         -1   -1    0    0    0  501 -0.00000000000E+00 -0.00000000000E+00 -0.27826134394E+03  0.27826134394E+03  0.00000000000E+00 0.  1.
         23    2    1    2    0    0 -0.66021686813E+02 -0.34463588600E+02 -0.18934693916E+03  0.22353482596E+03  0.92568639290E+02 0.  0.
         23    2    1    2    0    0 -0.28518199921E+02  0.31632738576E+02  0.92157623954E+02  0.13612901354E+03  0.90687169979E+02 0.  0.
        -11    1    4    4    0    0  0.20952400948E+02 -0.12453973823E+02  0.23027418685E+01  0.24482793745E+02  0.00000000000E+00 0.  1.
         11    1    4    4    0    0 -0.49470600869E+02  0.44086712398E+02  0.89854882085E+02  0.11164621980E+03  0.00000000000E+00 0. -1.
        -13    1    3    3    0    0 -0.37258549997E+02 -0.11982954360E+02 -0.98437063935E+01  0.40357022916E+02  0.00000000000E+00 0. -1.
         13    1    3    3    0    0 -0.28763136816E+02 -0.22480634240E+02 -0.17950323277E+03  0.18317780305E+03  0.00000000000E+00 0.  1.
         21    1    1    2  502  503  0.29698802124E+02 -0.17622312926E+02  0.81307619261E+02  0.88337385689E+02  0.00000000000E+00 0. -1.
         21    1    1    2  503  501  0.64841084610E+02  0.20453162951E+02 -0.21370024947E+02  0.71269741787E+02  0.00000000000E+00 0. -1.
<scales pt_clust_5="13000.00000" pt_clust_6="13000.00000" pt_clust_7="13000.00000" pt_clust_8="13000.00000" pt_clust_9="34.53353" pt_clust_10="71.78588"></scales>
<clustering>
<clus scale="   34.534">  1  9  2 -1</clus>
<clus scale="   71.786">  2 10  1 -1</clus>
<clus scale="   90.687">  5  6 -1 -1</clus>
<clus scale="   92.569">  7  8 -1 -1</clus>
<clus scale="   92.985">  1  5  2 -1</clus>
<clus scale="   34.534">  1  5  2 -1</clus>
</clustering>
</event>
<event>
10    2  0.2445576E-006  0.9601496E+02  0.7546771E-02  0.1293899E+00
         -1   -1    0    0    0  501 -0.00000000000E+00  0.00000000000E+00  0.26808189530E+03  0.26808189530E+03  0.00000000000E+00 0.  1.
          1   -1    0    0  502    0  0.00000000000E+00 -0.00000000000E+00 -0.21572397339E+03  0.21572397339E+03  0.00000000000E+00 0. -1.
         23    2    1    2    0    0 -0.12351433507E+02 -0.16964912209E+02  0.14335517727E+03  0.17342440081E+03  0.95315002966E+02 0.  0.
         23    2    1    2    0    0 -0.22266032955E+02 -0.84500494214E+01  0.61467460110E+02  0.10890787307E+03  0.86691963906E+02 0.  0.
        -11    1    4    4    0    0  0.11018976225E+02 -0.32229539728E+02 -0.11870135431E+01  0.34081814348E+02  0.00000000000E+00 0.  1.
         11    1    4    4    0    0 -0.33285009180E+02  0.23779490307E+02  0.62654473653E+02  0.74826058724E+02  0.00000000000E+00 0. -1.
        -11    1    3    3    0    0  0.24763131523E+02 -0.66503683616E+01  0.13022759234E+03  0.13272778869E+03  0.00000000000E+00 0. -1.
         11    1    3    3    0    0 -0.37114565030E+02 -0.10314543848E+02  0.13127584923E+02  0.40696612120E+02  0.00000000000E+00 0.  1.
         21    1    1    2  502  503  0.17231232622E+02  0.43822843566E+02 -0.16614822567E+03  0.17269218247E+03  0.00000000000E+00 0. -1.
         21    1    1    2  503  501  0.17386233840E+02 -0.18407881935E+02  0.13683510201E+02  0.28781412333E+02  0.00000000000E+00 0.  1.
<scales pt_clust_5="13000.00000" pt_clust_6="13000.00000" pt_clust_7="13000.00000" pt_clust_8="13000.00000" pt_clust_9="46.94706" pt_clust_10="25.32057"></scales>
<clustering>
<clus scale="   25.321">  1 10  2 -1</clus>
<clus scale="   46.947">  2  9  1 -1</clus>
<clus scale="   86.692">  5  6 -1 -1</clus>
<clus scale="   87.461">  2  5  1 -1</clus>
<clus scale="   95.315">  7  8 -1 -1</clus>
<clus scale="   46.947">  2  5  1 -1</clus>
</clustering>
</event>
<event>
10    2  0.2445576E-006  0.1669863E+03  0.7546771E-02  0.1200621E+00
          1   -1    0    0  503    0  0.00000000000E+00  0.00000000000E+00  0.51550579862E+03  0.51550579862E+03  0.00000000000E+00 0. -1.
         -1   -1    0    0    0  501 -0.00000000000E+00 -0.00000000000E+00 -0.24577037205E+03  0.24577037205E+03  0.00000000000E+00 0.  1.
         23    2    1    2    0    0 -0.11390153769E+03  0.16072486552E+03  0.34458914511E+03  0.40663577810E+03  0.88345539920E+02 0.  0.
         23    2    1    2    0    0  0.59611131657E+02 -0.33441253366E+02  0.64072140423E+02  0.12640581935E+03  0.84860989529E+02 0.  0.
        -13    1    4    4    0    0  0.38889242360E+02 -0.59192068892E+02  0.60524993482E+02  0.93163023926E+02  0.00000000000E+00 0.  1.
         13    1    4    4    0    0  0.20721889297E+02  0.25750815527E+02  0.35471469408E+01  0.33242795426E+02  0.00000000000E+00 0. -1.
        -13    1    3    3    0    0 -0.47842267189E+02  0.94333276601E+01  0.10387986534E+03  0.11475581302E+03  0.00000000000E+00 0.  1.
         13    1    3    3    0    0 -0.66059270500E+02  0.15129153786E+03  0.24070927977E+03  0.29187996508E+03  0.00000000000E+00 0. -1.
         21    1    1    2  502  501 -0.20357602088E+02 -0.20171998776E+02  0.98425534205E+01  0.30302101499E+02  0.00000000000E+00 0. -1.
         21    1    1    2  503  502  0.74648008121E+02 -0.10711161338E+03 -0.14876841238E+03  0.19793247171E+03  0.00000000000E+00 0.  1.
<scales pt_clust_5="13000.00000" pt_clust_6="13000.00000" pt_clust_7="13000.00000" pt_clust_8="13000.00000" pt_clust_9="28.65906" pt_clust_10="141.70209"></scales>
<clustering>
<clus scale="   28.659">  2  9  1 -1</clus>
<clus scale="   84.861">  5  6 -1 -1</clus>
<clus scale="   88.346">  7  8 -1 -1</clus>
<clus scale="  108.374">  1  5  2 -1</clus>
<clus scale="  141.702">  2 10  1 -1</clus>
<clus scale="  108.374">  1  5  2 -1</clus>
</clustering>
</event>
<event>
10    2  0.2445576E-006  0.1253923E+03  0.7546771E-02  0.1234787E+00
         -1   -1    0    0    0  501 -0.00000000000E+00  0.00000000000E+00  0.36305565226E+03  0.36305565226E+03  0.00000000000E+00 0.  1.
          1   -1    0    0  502    0  0.00000000000E+00 -0.00000000000E+00 -0.11664250381E+03  0.11664250381E+03  0.00000000000E+00 0. -1.
         23    2    1    2    0    0 -0.68135322528E+02 -0.34768857599E+02  0.15930272121E+03  0.19963386415E+03  0.92871023987E+02 0.  0.
         23    2    1    2    0    0  0.86062553918E+02 -0.26099830742E+02  0.11146312487E+02  0.12894341783E+03  0.91728950540E+02 0.  0.
        -11    1    4    4    0    0  0.11355903629E+02 -0.37756756203E+02  0.31698035900E+02  0.50589471891E+02  0.00000000000E+00 0.  1.
         11    1    4    4    0    0  0.74706650288E+02  0.11656925461E+02 -0.20551723414E+02  0.78353945936E+02  0.00000000000E+00 0. -1.
        -13    1    3    3    0    0 -0.13968510925E+01 -0.51248633538E+02  0.61062965439E+02  0.79731169442E+02  0.00000000000E+00 0. -1.
         13    1    3    3    0    0 -0.66738471436E+02  0.16479775939E+02  0.98239755771E+02  0.11990269471E+03  0.00000000000E+00 0.  1.
         21    1    1    2  502  503  0.72316263802E+01  0.53787266374E+02 -0.15138639851E+02  0.56343099494E+02  0.00000000000E+00 0. -1.
         21    1    1    2  503  501 -0.25158857769E+02  0.70814219676E+01  0.91102754600E+02  0.94777774595E+02  0.00000000000E+00 0.  1.
<scales pt_clust_5="13000.00000" pt_clust_6="13000.00000" pt_clust_7="13000.00000" pt_clust_8="13000.00000" pt_clust_9="54.58653" pt_clust_10="26.13646"></scales>
<clustering>
<clus scale="   26.136">  1 10  2 -1</clus>
<clus scale="   54.587">  2  9  1 -1</clus>
<clus scale="   91.729">  5  6 -1 -1</clus>
<clus scale="   92.871">  7  8 -1 -1</clus>
<clus scale="  124.549">  2  5  1 -1</clus>
<clus scale="   54.587">  2  5  1 -1</clus>
</clustering>
</event>
<event>
10    2  0.2445576E-006  0.1101483E+03  0.7546771E-02  0.1261948E+00
         -3   -1    0    0    0  501 -0.00000000000E+00  0.00000000000E+00  0.11792847421E+03  0.11792847421E+03  0.00000000000E+00 0.  1.
          3   -1    0    0  502    0  0.00000000000E+00 -0.00000000000E+00 -0.36399269365E+03  0.36399269365E+03  0.00000000000E+00 0. -1.
         23    2    1    2    0    0 -0.38081319413E+01  0.30943991974E+02  0.47871162920E+02  0.10354594065E+03  0.86360182243E+02 0.  0.
         23    2    1    2    0    0  0.51904109571E+02 -0.67169374797E+02 -0.21951337538E+03  0.25221320919E+03  0.90662116769E+02 0.  0.
        -11    1    3    3    0    0  0.34658641662E+02 -0.43495478441E+01  0.36341414950E+01  0.35119040316E+02  0.00000000000E+00 0. -1.
         11    1    3    3    0    0 -0.38466773604E+02  0.35293539818E+02  0.44237021425E+02  0.68426900331E+02  0.00000000000E+00 0.  1.
        -13    1    4    4    0    0 -0.10425018784E+02 -0.46421661002E+02 -0.14633247529E+03  0.15387282070E+03  0.00000000000E+00 0.  1.
         13    1    4    4    0    0  0.62329128355E+02 -0.20747713795E+02 -0.73180900093E+02  0.98340388486E+02  0.00000000000E+00 0. -1.
         21    1    1    2  502  503 -0.40170814449E+02 -0.64617207491E+00 -0.78544918719E+02  0.88223671021E+02  0.00000000000E+00 0. -1.
         21    1    1    2  503  501 -0.79251631809E+01  0.36871554898E+02  0.41229117362E+01  0.37938347002E+02  0.00000000000E+00 0. -1.
<scales pt_clust_5="13000.00000" pt_clust_6="13000.00000" pt_clust_7="13000.00000" pt_clust_8="13000.00000" pt_clust_9="40.58423" pt_clust_10="37.71365"></scales>
<clustering>
<clus scale="   37.714">  1 10  2 -1</clus>
<clus scale="   40.584">  2  9  1 -1</clus>
<clus scale="   86.360">  5  6 -1 -1</clus>
<clus scale="   90.662">  7  8 -1 -1</clus>
<clus scale="  106.635">  1  5  2 -1</clus>
<clus scale="   40.584">  2  5  1 -1</clus>
</clustering>
</event>
<event>
10    2  0.2445576E-006  0.1026356E+03  0.7546771E-02  0.1279042E+00
         -1   -1    0    0    0  501 -0.00000000000E+00  0.00000000000E+00  0.31200802880E+03  0.31200802880E+03  0.00000000000E+00 0.  1.
          1   -1    0    0  502    0  0.00000000000E+00 -0.00000000000E+00 -0.97152835597E+02  0.97152835597E+02  0.00000000000E+00 0. -1.
         23    2    1    2    0    0 -0.11390599207E+02 -0.95468030425E+01  0.14658434279E+03  0.17404295876E+03  0.92644993087E+02 0.  0.
         23    2    1    2    0    0  0.69682052373E+02 -0.20719441744E+02 -0.11869983072E+02  0.11157053780E+03  0.83798596150E+02 0.  0.
        -13    1    4    4    0    0  0.35029407477E+02  0.19169615317E+02  0.25025137383E+02  0.47125269661E+02  0.00000000000E+00 0.  1.
         13    1    4    4    0    0  0.34652644896E+02 -0.39889057061E+02 -0.36895120455E+02  0.64445268134E+02  0.00000000000E+00 0. -1.
        -13    1    3    3    0    0 -0.17618197115E+02 -0.31132250801E+02  0.14728440357E+03  0.15156620153E+03  0.00000000000E+00 0.  1.
         13    1    3    3    0    0  0.62275979078E+01  0.21585447758E+02 -0.70006078217E+00  0.22476757233E+02  0.00000000000E+00 0. -1.
         21    1    1    2  502  503 -0.21832290065E+02  0.17624079057E+02 -0.64124401962E+01  0.28781529517E+02  0.00000000000E+00 0.  1.
         21    1    1    2  503  501 -0.36459163101E+02  0.12642165730E+02  0.86553273676E+02  0.94765838319E+02  0.00000000000E+00 0.  1.
<scales pt_clust_5="13000.00000" pt_clust_6="13000.00000" pt_clust_7="13000.00000" pt_clust_8="13000.00000" pt_clust_9="28.05810" pt_clust_10="39.95451"></scales>
<clustering>
<clus scale="   28.058">  2  9  1 -1</clus>
<clus scale="   39.955">  1 10  2 -1</clus>
<clus scale="   83.799">  5  6 -1 -1</clus>
<clus scale="   92.645">  7  8 -1 -1</clus>
<clus scale="   94.727">  2  5  1 -1</clus>
<clus scale="   28.058">  2  5  1 -1</clus>
</clustering>
</event>
<event>
10    2  0.2445576E-006  0.1366257E+03  0.7546771E-02  0.1218116E+00
         -2   -1    0    0    0  501 -0.00000000000E+00  0.00000000000E+00  0.57305125601E+02  0.57305125601E+02  0.00000000000E+00 0.  1.
          2   -1    0    0  502    0  0.00000000000E+00 -0.00000000000E+00 -0.64736625889E+03  0.64736625889E+03  0.00000000000E+00 0. -1.
         23    2    1    2    0    0 -0.23875723513E+02  0.10264190841E+03 -0.15389735604E+03  0.20768880916E+03  0.91350061412E+02 0.  0.
         23    2    1    2    0    0  0.45224171519E+02 -0.77663847193E+02 -0.27866860417E+03  0.30650030296E+03  0.90605440869E+02 0.  0.
        -11    1    4    4    0    0 -0.25483902952E+02 -0.16570963968E+02 -0.40367682753E+02  0.50532919640E+02  0.00000000000E+00 0.  1.
         11    1    4    4    0    0  0.70708074471E+02 -0.61092883224E+02 -0.23830092142E+03  0.25596738332E+03  0.00000000000E+00 0. -1.
        -13    1    3    3    0    0  0.32191483865E+02  0.15280634811E+02 -0.41051016384E+02  0.54359685244E+02  0.00000000000E+00 0. -1.
         13    1    3    3    0    0 -0.56067207378E+02  0.87361273594E+02 -0.11284633966E+03  0.15332912392E+03  0.00000000000E+00 0.  1.
         21    1    1    2  502  503  0.20320841034E+02 -0.29617030210E+02 -0.14087448063E+03  0.14538130675E+03  0.00000000000E+00 0. -1.
         21    1    1    2  503  501 -0.41669289039E+02  0.46389689980E+01 -0.16620692447E+02  0.45100965620E+02  0.00000000000E+00 0.  1.
<scales pt_clust_5="13000.00000" pt_clust_6="13000.00000" pt_clust_7="13000.00000" pt_clust_8="13000.00000" pt_clust_9="35.91803" pt_clust_10="40.52428"></scales>
<clustering>
<clus scale="   35.918">  2  9  1 -1</clus>
<clus scale="   40.524">  1 10  2 -1</clus>
<clus scale="   90.605">  5  6 -1 -1</clus>
<clus scale="   91.350">  7  8 -1 -1</clus>
<clus scale="  136.129">  2  5  1 -1</clus>
<clus scale="   35.918">  2  5  1 -1</clus>
</clustering>
</event>
<event>
10    2  0.2445576E-006  0.9352081E+02  0.7546771E-02  0.1296610E+00
          1   -1    0    0  502    0  0.00000000000E+00  0.00000000000E+00  0.74410990593E+02  0.74410990593E+02  0.00000000000E+00 0. -1.
         -1   -1    0    0    0  501 -0.00000000000E+00 -0.00000000000E+00 -0.41278760659E+03  0.41278760659E+03  0.00000000000E+00 0.  1.
         23    2    1    2    0    0  0.36378972110E+02 -0.17036517817E+02 -0.26556032969E+03  0.28271549577E+03  0.88272817384E+02 0.  0.
         23    2    1    2    0    0  0.29773742355E+02  0.16626016761E+02 -0.53632545214E+02  0.11170293507E+03  0.91859651807E+02 0.  0.
        -11    1    3    3    0    0 -0.15901734762E+02 -0.34153594793E+02 -0.69151391121E+02  0.78748003783E+02  0.00000000000E+00 0. -1.
         11    1    3    3    0    0  0.52280706873E+02  0.17117076976E+02 -0.19640893857E+03  0.20396749199E+03  0.00000000000E+00 0.  1.
        -13    1    4    4    0    0 -0.26757253899E+02 -0.13685407375E+02 -0.32262773572E+02  0.44092262018E+02  0.00000000000E+00 0. -1.
         13    1    4    4    0    0  0.56530996254E+02  0.30311424136E+02 -0.21369771642E+02  0.67610673053E+02  0.00000000000E+00 0.  1.
         21    1    1    2  502  503 -0.34362548349E+02  0.14487781985E+01  0.21936983964E+02  0.40793565090E+02  0.00000000000E+00 0. -1.
         21    1    1    2  503  501 -0.31790166116E+02 -0.10382771420E+01 -0.41120725051E+02  0.51986601253E+02  0.00000000000E+00 0. -1.
<scales pt_clust_5="13000.00000" pt_clust_6="13000.00000" pt_clust_7="13000.00000" pt_clust_8="13000.00000" pt_clust_9="35.20968" pt_clust_10="31.80712"></scales>
<clustering>
<clus scale="   31.807">  2 10  1 -1</clus>
<clus scale="   35.210">  1  9  2 -1</clus>
<clus scale="   88.273">  5  6 -1 -1</clus>
<clus scale="   90.000">  2  5  1 -1</clus>
<clus scale="   91.860">  7  8 -1 -1</clus>
<clus scale="   35.210">  1  5  2 -1</clus>
</clustering>
</event>
<event>
10    2  0.2445576E-006  0.9292374E+02  0.7546771E-02  0.1297567E+00
         -1   -1    0    0    0  501 -0.00000000000E+00  0.00000000000E+00  0.11540449377E+03  0.11540449377E+03  0.00000000000E+00 0.  1.
          1   -1    0    0  502    0  0.00000000000E+00 -0.00000000000E+00 -0.15467626769E+03  0.15467626769E+03  0.00000000000E+00 0. -1.
         23    2    1    2    0    0  0.22346955676E+02  0.67690022011E+01 -0.70961213833E+01  0.93160566645E+02  0.89907343527E+02 0.  0.
         23    2    1    2    0    0  0.12776476544E+02  0.26904323309E+01 -0.52956470641E+02  0.10755831939E+03  0.92703438488E+02 0.  0.
        -11    1    3    3    0    0  0.12991853499E+02  0.48443053105E+02 -0.27812589755E+01  0.50231992325E+02  0.00000000000E+00 0.  1.
         11    1    3    3    0    0  0.93551021766E+01 -0.41674050904E+02 -0.43148624078E+01  0.42928574319E+02  0.00000000000E+00 0. -1.
        -13    1    4    4    0    0  0.47764376226E+02  0.55939408350E+00 -0.54501180474E+02  0.72471561533E+02  0.00000000000E+00 0. -1.
         13    1    4    4    0    0 -0.34987899682E+02  0.21310382474E+01  0.15447098333E+01  0.35086757853E+02  0.00000000000E+00 0.  1.
         21    1    1    2  502  503 -0.15355538459E+02 -0.15423080274E+02 -0.16115586770E+02  0.27080917700E+02  0.00000000000E+00 0. -1.
         21    1    1    2  503  501 -0.19767893761E+02  0.59636457421E+01  0.36896404876E+02  0.42280957735E+02  0.00000000000E+00 0.  1.
<scales pt_clust_5="13000.00000" pt_clust_6="13000.00000" pt_clust_7="13000.00000" pt_clust_8="13000.00000" pt_clust_9="22.50540" pt_clust_10="20.64787"></scales>
<clustering>
<clus scale="   20.648">  1 10  2 -1</clus>
<clus scale="   22.505">  2  9  1 -1</clus>
<clus scale="   89.907">  5  6 -1 -1</clus>
<clus scale="   90.134">  1  5  2 -1</clus>
<clus scale="   92.703">  7  8 -1 -1</clus>
<clus scale="   22.505">  2  5  1 -1</clus>
</clustering>
</event>
<event>
10    2  0.2445576E-006  0.1411624E+03  0.7546771E-02  0.1212820E+00
         -1   -1    0    0    0  501 -0.00000000000E+00  0.00000000000E+00  0.48907849858E+02  0.48907849858E+02  0.00000000000E+00 0.  1.
          1   -1    0    0  503    0  0.00000000000E+00 -0.00000000000E+00 -0.66834832769E+03  0.66834832769E+03  0.00000000000E+00 0. -1.
         23    2    1    2    0    0  0.78249878228E+02 -0.72124623842E+02 -0.12283369559E+03  0.18416514417E+03  0.86623777023E+02 0.  0.
         23    2    1    2    0    0 -0.69072692584E+02  0.87390701632E+02 -0.40181776603E+03  0.42689260013E+03  0.91496466335E+02 0.  0.
        -11    1    4    4    0    0  0.98677635209E+01  0.57593118698E+02 -0.19367367621E+03  0.20229639872E+03  0.00000000000E+00 0. -1.
         11    1    4    4    0    0 -0.78940456105E+02  0.29797582933E+02 -0.20814408982E+03  0.22459620140E+03  0.00000000000E+00 0.  1.
        -13    1    3    3    0    0  0.13312062778E+02 -0.47697553165E+02 -0.82345525057E+01  0.50200353069E+02  0.00000000000E+00 0.  1.
         13    1    3    3    0    0  0.64937815450E+02 -0.24427070677E+02 -0.11459914309E+03  0.13396479110E+03  0.00000000000E+00 0. -1.
         21    1    1    2  502  501  0.13175613111E+02 -0.20867935131E+02 -0.53388912846E+02  0.58817034203E+02  0.00000000000E+00 0.  1.
         21    1    1    2  503  502 -0.22352798754E+02  0.56018573413E+01 -0.41400103356E+02  0.47381399048E+02  0.00000000000E+00 0.  1.
<scales pt_clust_5="13000.00000" pt_clust_6="13000.00000" pt_clust_7="13000.00000" pt_clust_8="13000.00000" pt_clust_9="23.22449" pt_clust_10="23.04405"></scales>
<clustering>
<clus scale="   23.044">  2 10  1 -1</clus>
<clus scale="   23.224">  2  9  1 -1</clus>
<clus scale="   86.624">  7  8 -1 -1</clus>
<clus scale="   91.496">  5  6 -1 -1</clus>
<clus scale="  138.054">  1  7  2 -1</clus>
<clus scale="   23.044">  2  5  1 -1</clus>
</clustering>
</event>
<event>
10    2  0.2445576E-006  0.1260815E+03  0.7546771E-02  0.1233541E+00
         -1   -1    0    0    0  501 -0.00000000000E+00  0.00000000000E+00  0.19903991215E+03  0.19903991215E+03  0.00000000000E+00 0.  1.
          1   -1    0    0  502    0  0.00000000000E+00 -0.00000000000E+00 -0.25198640696E+03  0.25198640696E+03  0.00000000000E+00 0. -1.
         23    2    1    2    0    0  0.51640965887E+02 -0.94539644676E+02  0.69246857335E+02  0.15609079304E+03  0.89245025896E+02 0.  0.
         23    2    1    2    0    0 -0.14935944994E+02  0.68261763483E+02 -0.13915438118E+02  0.11462990657E+03  0.89797690705E+02 0.  0.
        -11    1    3    3    0    0  0.45822271382E+02 -0.66605005563E+02  0.89871330317E+02  0.12088326325E+03  0.00000000000E+00 0.  1.
         11    1    3    3    0    0  0.58186945047E+01 -0.27934639113E+02 -0.20624472982E+02  0.35207529790E+02  0.00000000000E+00 0. -1.
        -13    1    4    4    0    0  0.16479872733E+02  0.57436116749E+02  0.23840672352E+02  0.64334060735E+02  0.00000000000E+00 0.  1.
         13    1    4    4    0    0 -0.31415817727E+02  0.10825646735E+02 -0.37756110469E+02  0.50295845837E+02  0.00000000000E+00 0. -1.
         21    1    1    2  502  503 -0.46857973653E+02  0.64672299519E+01 -0.13644053759E+03  0.14440746191E+03  0.00000000000E+00 0. -1.
         21    1    1    2  503  501  0.10152952760E+02  0.19810651241E+02  0.28162623563E+02  0.35898157589E+02  0.00000000000E+00 0.  1.
<scales pt_clust_5="13000.00000" pt_clust_6="13000.00000" pt_clust_7="13000.00000" pt_clust_8="13000.00000" pt_clust_9="47.12954" pt_clust_10="22.26083"></scales>
<clustering>
<clus scale="   22.261">  1 10  2 -1</clus>
<clus scale="   47.130">  2  9  1 -1</clus>
<clus scale="   89.245">  5  6 -1 -1</clus>
<clus scale="   89.798">  7  8 -1 -1</clus>
<clus scale="  125.688">  1  5  2 -1</clus>
<clus scale="   47.130">  2  5  1 -1</clus>
</clustering>
</event>
<event>
10    2  0.2445576E-006  0.1537774E+03  0.7546771E-02  0.1196000E+00
         -2   -1    0    0    0  501 -0.00000000000E+00  0.00000000000E+00  0.57612218934E+03  0.57612218934E+03  0.00000000000E+00 0.  1.
          2   -1    0    0  502    0  0.00000000000E+00 -0.00000000000E+00 -0.83867249489E+03  0.83867249489E+03  0.00000000000E+00 0. -1.
         23    2    1    2    0    0 -0.85147596970E+02  0.29559988990E+02 -0.28165137193E+03  0.30985409712E+03  0.92510323600E+02 0.  0.
         23    2    1    2    0    0  0.16471057931E+03 -0.93191617798E+01 -0.41350095614E+03  0.45460033777E+03  0.91989155141E+02 0.  0.
        -11    1    4    4    0    0  0.66808455426E+02 -0.26202024054E+01 -0.28598521189E+03  0.29369674257E+03  0.00000000000E+00 0.  1.
         11    1    4    4    0    0  0.97902123885E+02 -0.66989593744E+01 -0.12751574425E+03  0.16090359520E+03  0.00000000000E+00 0. -1.
        -11    1    3    3    0    0  0.13492787557E+02  0.25458270209E+02 -0.44982873060E+02  0.53419450641E+02  0.00000000000E+00 0.  1.
         11    1    3    3    0    0 -0.98640384528E+02  0.41017187807E+01 -0.23666849887E+03  0.25643464648E+03  0.00000000000E+00 0. -1.
         21    1    1    2  502  503 -0.28281267787E+02  0.40907451977E+02 -0.10005765518E+03  0.11173533056E+03  0.00000000000E+00 0. -1.
         21    1    1    2  503  501 -0.51281714553E+02 -0.61148279187E+02  0.53265967770E+03  0.53860491878E+03  0.00000000000E+00 0.  1.
<scales pt_clust_5="13000.00000" pt_clust_6="13000.00000" pt_clust_7="13000.00000" pt_clust_8="13000.00000" pt_clust_9="49.73178" pt_clust_10="79.75236"></scales>
<clustering>
<clus scale="   49.732">  2  9  1 -1</clus>
<clus scale="   79.752">  1 10  2 -1</clus>
<clus scale="   91.989">  5  6 -1 -1</clus>
<clus scale="   92.510">  7  8 -1 -1</clus>
<clus scale="  153.464">  2  5  1 -1</clus>
<clus scale="   49.732">  2  5  1 -1</clus>
</clustering>
</event>
<event>
10    2  0.2445576E-006  0.1759779E+03  0.7546771E-02  0.1171825E+00
          1   -1    0    0  502    0  0.00000000000E+00  0.00000000000E+00  0.86854887263E+02  0.86854887263E+02  0.00000000000E+00 0. -1.
         -1   -1    0    0    0  501 -0.00000000000E+00 -0.00000000000E+00 -0.77813953847E+03  0.77813953847E+03  0.00000000000E+00 0.  1.
         23    2    1    2    0    0  0.16459271575E+03 -0.13404991413E+02 -0.54068679614E+03  0.57249007022E+03  0.90178784133E+02 0.  0.
         23    2    1    2    0    0 -0.14161337635E+03  0.78919670007E+01 -0.77447299076E+02  0.18478561815E+03  0.89615897225E+02 0.  0.
        -11    1    3    3    0    0  0.13407735446E+03  0.64899862920E+01 -0.50077327594E+03  0.51845224544E+03  0.00000000000E+00 0.  1.
         11    1    3    3    0    0  0.30515361293E+02 -0.19894977705E+02 -0.39913520195E+02  0.54037824781E+02  0.00000000000E+00 0. -1.
        -13    1    4    4    0    0 -0.31938544807E+02 -0.33836105724E+02 -0.48065990183E+01  0.46776661800E+02  0.00000000000E+00 0. -1.
         13    1    4    4    0    0 -0.10967483154E+03  0.41728072725E+02 -0.72640700058E+02  0.13800895635E+03  0.00000000000E+00 0.  1.
         21    1    1    2  502  503 -0.84354779737E+01 -0.28873679606E+02 -0.56878349997E+01  0.30613691865E+02  0.00000000000E+00 0. -1.
         21    1    1    2  503  501 -0.14543861428E+02  0.34386704018E+02 -0.67462720994E+02  0.77105045505E+02  0.00000000000E+00 0.  1.
<scales pt_clust_5="13000.00000" pt_clust_6="13000.00000" pt_clust_7="13000.00000" pt_clust_8="13000.00000" pt_clust_9="30.08067" pt_clust_10="35.84662"></scales>
<clustering>
<clus scale="   30.081">  1  9  2 -1</clus>
<clus scale="   35.847">  2 10  1 -1</clus>
<clus scale="   89.616">  7  8 -1 -1</clus>
<clus scale="   90.179">  5  6 -1 -1</clus>
<clus scale="  175.690">  1  7  2 -1</clus>
<clus scale="   30.081">  1  5  2 -1</clus>
</clustering>
</event>
<event>
10    2  0.2445576E-006  0.1101178E+03  0.7546771E-02  0.1262387E+00
          1   -1    0    0  502    0  0.00000000000E+00  0.00000000000E+00  0.33891693828E+03  0.33891693828E+03  0.00000000000E+00 0. -1.
         -1   -1    0    0    0  501 -0.00000000000E+00 -0.00000000000E+00 -0.13837882172E+03  0.13837882172E+03  0.00000000000E+00 0.  1.
         23    2    1    2    0    0 -0.77492859671E+02  0.16013922407E+02  0.16118131238E+02  0.12362361542E+03  0.93602431189E+02 0.  0.
         23    2    1    2    0    0  0.51909695828E+02 -0.48075750380E-01  0.67054515758E+02  0.12256362628E+03  0.88492460533E+02 0.  0.
        -11    1    4    4    0    0  0.27650382215E+02  0.26317663593E+02 -0.83541783182E+01  0.39076276038E+02  0.00000000000E+00 0.  1.
         11    1    4    4    0    0  0.24259313613E+02 -0.26365739344E+02  0.75408694076E+02  0.83487350242E+02  0.00000000000E+00 0. -1.
        -11    1    3    3    0    0 -0.15043751591E+02  0.35256105607E+02  0.38714695634E+02  0.54480593816E+02  0.00000000000E+00 0. -1.
         11    1    3    3    0    0 -0.62449108080E+02 -0.19242183199E+02 -0.22596564396E+02  0.69143021606E+02  0.00000000000E+00 0.  1.
         21    1    1    2  502  503 -0.13851496358E+02 -0.23658661441E+02  0.16587247476E+03  0.16812279470E+03  0.00000000000E+00 0. -1.
         21    1    1    2  503  501  0.39434660201E+02  0.76928147835E+01 -0.48507005201E+02  0.62985723604E+02  0.00000000000E+00 0.  1.
<scales pt_clust_5="13000.00000" pt_clust_6="13000.00000" pt_clust_7="13000.00000" pt_clust_8="13000.00000" pt_clust_9="27.41526" pt_clust_10="39.42429"></scales>
<clustering>
<clus scale="   27.415">  1  9  2 -1</clus>
<clus scale="   39.424">  2 10  1 -1</clus>
<clus scale="   88.492">  5  6 -1 -1</clus>
<clus scale="   93.602">  7  8 -1 -1</clus>
<clus scale="  105.808">  1  5  2 -1</clus>
<clus scale="   27.415">  1  5  2 -1</clus>
</clustering>
</event>
<event>
10    2  0.2445576E-006  0.2106438E+03  0.7546771E-02  0.1141060E+00
          1   -1    0    0  502    0  0.00000000000E+00  0.00000000000E+00  0.17681020125E+03  0.17681020125E+03  0.00000000000E+00 0. -1.
         -1   -1    0    0    0  501 -0.00000000000E+00 -0.00000000000E+00 -0.33843462014E+03  0.33843462014E+03  0.00000000000E+00 0.  1.
         23    2    1    2    0    0  0.94971773835E+02  0.17114351829E+03 -0.11390168459E+03  0.24429494660E+03  0.91633430052E+02 0.  0.
         23    2    1    2    0    0 -0.94219230246E+02 -0.15671593439E+03 -0.48704170945E+02  0.21026692352E+03  0.91667526520E+02 0.  0.
        -11    1    3    3    0    0  0.54209847914E+02  0.16524114505E+03 -0.10113023449E+03  0.20117322873E+03  0.00000000000E+00 0.  1.
         11    1    3    3    0    0  0.40761925921E+02  0.59023732448E+01 -0.12771450091E+02  0.43121717871E+02  0.00000000000E+00 0. -1.
        -11    1    4    4    0    0 -0.41616016562E+02 -0.12452500064E+02 -0.35583249824E+02  0.56152695932E+02  0.00000000000E+00 0.  1.
         11    1    4    4    0    0 -0.52603213684E+02 -0.14426343433E+03 -0.13120921120E+02  0.15411422759E+03  0.00000000000E+00 0. -1.
         21    1    1    2  502  503 -0.20110382732E+02 -0.43161975944E+00  0.21318913741E+02  0.29310576117E+02  0.00000000000E+00 0. -1.
         21    1    1    2  503  501  0.19357839142E+02 -0.13995964143E+02 -0.20337477096E+02  0.31372375160E+02  0.00000000000E+00 0.  1.
<scales pt_clust_5="13000.00000" pt_clust_6="13000.00000" pt_clust_7="13000.00000" pt_clust_8="13000.00000" pt_clust_9="20.11501" pt_clust_10="23.30737"></scales>
<clustering>
<clus scale="   20.115">  1  9  2 -1</clus>
<clus scale="   23.307">  2 10  1 -1</clus>
<clus scale="   91.633">  5  6 -1 -1</clus>
<clus scale="   91.668">  7  8 -1 -1</clus>
<clus scale="  210.629">  2  5  1 -1</clus>
<clus scale="   20.115">  1  5  2 -1</clus>
</clustering>
</event>
<event>
10    2  0.2445576E-006  0.1387634E+03  0.7546771E-02  0.1215043E+00
          2   -1    0    0  502    0  0.00000000000E+00  0.00000000000E+00  0.92521928450E+02  0.92521928450E+02  0.00000000000E+00 0. -1.
         -2   -1    0    0    0  501 -0.00000000000E+00 -0.00000000000E+00 -0.72003139341E+03  0.72003139341E+03  0.00000000000E+00 0.  1.
         23    2    1    2    0    0  0.21602549870E+02  0.72856467155E+02 -0.33550182559E+03  0.35590696949E+03  0.91288339858E+02 0.  0.
         23    2    1    2    0    0 -0.14221724786E+02 -0.10096934357E+03 -0.91720497645E+02  0.16485277135E+03  0.91469780444E+02 0.  0.
        -11    1    4    4    0    0  0.11192425752E+02 -0.91292146516E+02 -0.10054032690E+03  0.13626402219E+03  0.00000000000E+00 0. -1.
         11    1    4    4    0    0 -0.25414150538E+02 -0.96771970587E+01  0.88198292526E+01  0.28588749160E+02  0.00000000000E+00 0.  1.
        -13    1    3    3    0    0  0.44107403634E+02  0.29339652347E+02 -0.26379829311E+03  0.26906470914E+03  0.00000000000E+00 0.  1.
         13    1    3    3    0    0 -0.22504853764E+02  0.43516814808E+02 -0.71703532475E+02  0.86842260354E+02  0.00000000000E+00 0. -1.
         21    1    1    2  502  503 -0.49867554072E+02 -0.16450927647E+02  0.25061411126E+02  0.58184880314E+02  0.00000000000E+00 0.  1.
         21    1    1    2  503  501  0.42486728987E+02  0.44563804067E+02 -0.22534855285E+03  0.23360870071E+03  0.00000000000E+00 0.  1.
<scales pt_clust_5="13000.00000" pt_clust_6="13000.00000" pt_clust_7="13000.00000" pt_clust_8="13000.00000" pt_clust_9="52.51101" pt_clust_10="57.84807"></scales>
<clustering>
<clus scale="   52.511">  1  9  2 -1</clus>
<clus scale="   57.848">  2 10  1 -1</clus>
<clus scale="   91.288">  7  8 -1 -1</clus>
<clus scale="   91.470">  5  6 -1 -1</clus>
<clus scale="  138.644">  2  7  1 -1</clus>
<clus scale="   52.511">  1  5  2 -1</clus>
</clustering>
</event>
<event>
10    2  0.2445576E-006  0.1381200E+03  0.7546771E-02  0.1218435E+00
         -1   -1    0    0    0  501 -0.00000000000E+00  0.00000000000E+00  0.22176615398E+03  0.22176615398E+03  0.00000000000E+00 0.  1.
          1   -1    0    0  502    0  0.00000000000E+00 -0.00000000000E+00 -0.36251056134E+03  0.36251056134E+03  0.00000000000E+00 0. -1.
         23    2    1    2    0    0 -0.15909244287E+03 -0.64209135656E+02  0.24932139491E+02  0.20141721339E+03  0.10253810897E+03 0.  0.
         23    2    1    2    0    0  0.62319187654E+02 -0.98441832443E+01 -0.18169993584E+03  0.21344942952E+03  0.92548382923E+02 0.  0.
        -11    1    4    4    0    0  0.13538998339E+02  0.32073607187E+02 -0.11760099974E+03  0.12264589636E+03  0.00000000000E+00 0.  1.
         11    1    4    4    0    0  0.48780189315E+02 -0.41917790432E+02 -0.64098936109E+02  0.90803533161E+02  0.00000000000E+00 0. -1.
        -11    1    3    3    0    0 -0.19258255387E+02 -0.20169911024E+02 -0.33507066992E+02  0.43593912989E+02  0.00000000000E+00 0.  1.
         11    1    3    3    0    0 -0.13983418748E+03 -0.44039224631E+02  0.58439206484E+02  0.15782330040E+03  0.00000000000E+00 0. -1.
         21    1    1    2  502  503  0.12781212006E+02  0.49939314424E+02 -0.40312073523E+02  0.65439726292E+02  0.00000000000E+00 0.  1.
         21    1    1    2  503  501  0.83992043210E+02  0.24114004476E+02  0.56335462524E+02  0.10397034612E+03  0.00000000000E+00 0.  1.
<scales pt_clust_5="13000.00000" pt_clust_6="13000.00000" pt_clust_7="13000.00000" pt_clust_8="13000.00000" pt_clust_9="51.54895" pt_clust_10="89.45550"></scales>
<clustering>
<clus scale="   51.549">  2  9  1 -1</clus>
<clus scale="   89.456">  1 10  2 -1</clus>
<clus scale="   92.548">  5  6 -1 -1</clus>
<clus scale="  102.538">  7  8 -1 -1</clus>
<clus scale="  130.875">  2  5  1 -1</clus>
<clus scale="   51.549">  2  5  1 -1</clus>
</clustering>
</event>
<event>
10    2  0.2445576E-006  0.1084403E+03  0.7546771E-02  0.1264898E+00
         -1   -1    0    0    0  501 -0.00000000000E+00  0.00000000000E+00  0.59123497089E+03  0.59123497089E+03  0.00000000000E+00 0.  1.
          1   -1    0    0  502    0  0.00000000000E+00 -0.00000000000E+00 -0.27419482199E+03  0.27419482199E+03  0.00000000000E+00 0. -1.
         23    2    1    2    0    0  0.42652096268E+02 -0.32938041938E+02  0.29419677486E+03  0.31297620217E+03  0.92185925498E+02 0.  0.
         23    2    1    2    0    0  0.25557272390E+02 -0.10076100728E+03 -0.15889286280E+03  0.20957184776E+03  0.88698719052E+02 0.  0.
        -11    1    4    4    0    0 -0.29619199922E+02 -0.17576238426E+02 -0.59229442070E+02  0.68515311932E+02  0.00000000000E+00 0.  1.
         11    1    4    4    0    0  0.55176472311E+02 -0.83184768856E+02 -0.99663420735E+02  0.14105653583E+03  0.00000000000E+00 0. -1.
        -11    1    3    3    0    0 -0.10523877652E+02  0.24389044255E+02  0.50764658990E+02  0.57294223818E+02  0.00000000000E+00 0.  1.
         11    1    3    3    0    0  0.53175973920E+02 -0.57327086193E+02  0.24343211587E+03  0.25568197835E+03  0.00000000000E+00 0. -1.
         21    1    1    2  502  503 -0.31719696811E+02  0.39823621826E+02 -0.61369185105E+02  0.79738553420E+02  0.00000000000E+00 0.  1.
         21    1    1    2  503  501 -0.36489671847E+02  0.93875427395E+02  0.24310542195E+03  0.26314318954E+03  0.00000000000E+00 0.  1.
<scales pt_clust_5="13000.00000" pt_clust_6="13000.00000" pt_clust_7="13000.00000" pt_clust_8="13000.00000" pt_clust_9="50.91228" pt_clust_10="103.11213"></scales>
<clustering>
<clus scale="   50.912">  2  9  1 -1</clus>
<clus scale="   88.699">  5  6 -1 -1</clus>
<clus scale="   92.186">  7  8 -1 -1</clus>
<clus scale="  103.112">  1 10  2 -1</clus>
<clus scale="  105.492">  2  5  1 -1</clus>
<clus scale="   50.912">  2  5  1 -1</clus>
</clustering>
</event>
<event>
10    2  0.2445576E-006  0.1426186E+03  0.7546771E-02  0.1211640E+00
          1   -1    0    0  502    0  0.00000000000E+00  0.00000000000E+00  0.81847228998E+03  0.81847228998E+03  0.00000000000E+00 0. -1.
         -1   -1    0    0    0  501 -0.00000000000E+00 -0.00000000000E+00 -0.43337541611E+03  0.43337541611E+03  0.00000000000E+00 0.  1.
         23    2    1    2    0    0 -0.76456051745E+02  0.18393634237E+02 -0.25746880421E+03  0.28357430097E+03  0.89108615757E+02 0.  0.
         23    2    1    2    0    0  0.19275355169E+03 -0.63865443406E+02 -0.39623540487E+02  0.22191640987E+03  0.80275410051E+02 0.  0.
        -11    1    3    3    0    0 -0.86612934905E+02  0.38893921718E+02 -0.22087950848E+03  0.24042107833E+03  0.00000000000E+00 0.  1.
         11    1    3    3    0    0  0.10156883160E+02 -0.20500287481E+02 -0.36589295727E+02  0.43153222639E+02  0.00000000000E+00 0. -1.
        -13    1    4    4    0    0  0.43750524506E+02  0.19040693182E+02 -0.11731222279E+02  0.49135302661E+02  0.00000000000E+00 0.  1.
         13    1    4    4    0    0  0.14900302718E+03 -0.82906136588E+02 -0.27892318208E+02  0.17278110721E+03  0.00000000000E+00 0. -1.
         21    1    1    2  502  503 -0.93373072844E+02  0.57544376917E+02  0.70399821088E+03  0.71249095922E+03  0.00000000000E+00 0.  1.
         21    1    1    2  503  501 -0.22924427100E+02 -0.12072567748E+02 -0.21808992322E+02  0.33866036024E+02  0.00000000000E+00 0.  1.
<scales pt_clust_5="13000.00000" pt_clust_6="13000.00000" pt_clust_7="13000.00000" pt_clust_8="13000.00000" pt_clust_9="109.81911" pt_clust_10="25.90900"></scales>
<clustering>
<clus scale="   25.909">  2 10  1 -1</clus>
<clus scale="   80.275">  7  8 -1 -1</clus>
<clus scale="   89.109">  5  6 -1 -1</clus>
<clus scale="  109.819">  1  9  2 -1</clus>
<clus scale="  137.273">  1  7  2 -1</clus>
<clus scale="  109.819">  1  5  2 -1</clus>
</clustering>
</event>
<event>
10    2  0.2445576E-006  0.9190276E+02  0.7546771E-02  0.1298916E+00
          2   -1    0    0  502    0  0.00000000000E+00  0.00000000000E+00  0.38521256382E+03  0.38521256382E+03  0.00000000000E+00 0. -1.
         -2   -1    0    0    0  501 -0.00000000000E+00 -0.00000000000E+00 -0.73140568635E+02  0.73140568635E+02  0.00000000000E+00 0.  1.
         23    2    1    2    0    0 -0.19583269540E+02 -0.16915694052E+02  0.11471097780E+02  0.95868823208E+02  0.91594759828E+02 0.  0.
         23    2    1    2    0    0 -0.16997958031E+02 -0.11002992193E+02  0.26742675755E+03  0.28307095157E+03  0.90565426926E+02 0.  0.
        -11    1    3    3    0    0 -0.94558009998E+01 -0.54526429924E+02  0.27391562994E+00  0.55340932072E+02  0.00000000000E+00 0. -1.
         11    1    3    3    0    0 -0.10127468540E+02  0.37610735872E+02  0.11197182150E+02  0.40527891136E+02  0.00000000000E+00 0.  1.
        -13    1    4    4    0    0 -0.30686464059E+02 -0.45788806452E+02  0.14805323201E+03  0.15798111716E+03  0.00000000000E+00 0. -1.
         13    1    4    4    0    0  0.13688506028E+02  0.34785814259E+02  0.11937352555E+03  0.12508983441E+03  0.00000000000E+00 0.  1.
         21    1    1    2  502  503  0.20653336977E+02 -0.20756056917E+01  0.39729638114E+02  0.44825356797E+02  0.00000000000E+00 0. -1.
         21    1    1    2  503  501  0.15927890593E+02  0.29994291937E+02 -0.65554982580E+01  0.34588000882E+02  0.00000000000E+00 0.  1.
<scales pt_clust_5="13000.00000" pt_clust_6="13000.00000" pt_clust_7="13000.00000" pt_clust_8="13000.00000" pt_clust_9="20.75737" pt_clust_10="34.29106"></scales>
<clustering>
<clus scale="   20.757">  1  9  2 -1</clus>
<clus scale="   34.291">  2 10  1 -1</clus>
<clus scale="   90.565">  7  8 -1 -1</clus>
<clus scale="   90.877">  1  7  2 -1</clus>
<clus scale="   91.595">  5  6 -1 -1</clus>
<clus scale="   20.757">  1  5  2 -1</clus>
</clustering>
</event>
<event>
10    2  0.2445576E-006  0.9435211E+02  0.7546771E-02  0.1294517E+00
         -2   -1    0    0    0  501 -0.00000000000E+00  0.00000000000E+00  0.34402021491E+03  0.34402021491E+03  0.00000000000E+00 0.  1.
          2   -1    0    0  502    0  0.00000000000E+00 -0.00000000000E+00 -0.63766973823E+02  0.63766973823E+02  0.00000000000E+00 0. -1.
         23    2    1    2    0    0  0.42103945998E+01 -0.32869111919E+01  0.23935299023E+03  0.25692613929E+03  0.93234413769E+02 0.  0.
         23    2    1    2    0    0  0.30893840173E+02 -0.37229130223E+00  0.15309638216E+02  0.96338597922E+02  0.89956503188E+02 0.  0.
        -13    1    4    4    0    0  0.52404146720E+02  0.26986720958E+02  0.17441326773E+02  0.61470949082E+02  0.00000000000E+00 0.  1.
         13    1    4    4    0    0 -0.21510306546E+02 -0.27359012260E+02 -0.21316885570E+01  0.34867648840E+02  0.00000000000E+00 0. -1.
        -13    1    3    3    0    0  0.26416915799E+02  0.34871710210E+02  0.16258590492E+03  0.16836883943E+03  0.00000000000E+00 0.  1.
         13    1    3    3    0    0 -0.22206521199E+02 -0.38158621402E+02  0.76767085312E+02  0.88557299859E+02  0.00000000000E+00 0. -1.
         21    1    1    2  502  503 -0.19018008081E+02 -0.11803632316E+02  0.26822295733E+01  0.22543396432E+02  0.00000000000E+00 0. -1.
         21    1    1    2  503  501 -0.16086226692E+02  0.15462834810E+02  0.22908383068E+02  0.31979055088E+02  0.00000000000E+00 0. -1.
<scales pt_clust_5="13000.00000" pt_clust_6="13000.00000" pt_clust_7="13000.00000" pt_clust_8="13000.00000" pt_clust_9="22.61933" pt_clust_10="22.31291"></scales>
<clustering>
<clus scale="   22.313">  1 10  2 -1</clus>
<clus scale="   22.619">  2  9  1 -1</clus>
<clus scale="   89.957">  5  6 -1 -1</clus>
<clus scale="   91.114">  2  5  1 -1</clus>
<clus scale="   93.234">  7  8 -1 -1</clus>
<clus scale="   22.619">  2  5  1 -1</clus>
</clustering>
</event>
<event>
10    2  0.2445576E-006  0.1184414E+03  0.7546771E-02  0.1246047E+00
          1   -1    0    0  502    0  0.00000000000E+00  0.00000000000E+00  0.61032617288E+03  0.61032617288E+03  0.00000000000E+00 0. -1.
         -1   -1    0    0    0  501 -0.00000000000E+00 -0.00000000000E+00 -0.82366313207E+02  0.82366313207E+02  0.00000000000E+00 0.  1.
         23    2    1    2    0    0  0.74648850437E+02 -0.23254167476E+02  0.21306415697E+02  0.12160083062E+03  0.90661962705E+02 0.  0.
         23    2    1    2    0    0 -0.50622208343E+02  0.97130328185E+01  0.24739155237E+03  0.26884692673E+03  0.91755865427E+02 0.  0.
        -11    1    3    3    0    0  0.64182492324E+02  0.36978530993E+01  0.49560819331E+02  0.81174757476E+02  0.00000000000E+00 0. -1.
         11    1    3    3    0    0  0.10466358113E+02 -0.26952020575E+02 -0.28254403635E+02  0.40426073146E+02  0.00000000000E+00 0.  1.
        -13    1    4    4    0    0  0.23517162239E+01  0.38078971367E+02  0.52475533268E+02  0.64878503538E+02  0.00000000000E+00 0. -1.
         13    1    4    4    0    0 -0.52973924567E+02 -0.28365938549E+02  0.19491601911E+03  0.20396842319E+03  0.00000000000E+00 0.  1.
         21    1    1    2  502  503 -0.34653831193E+02 -0.12431028514E+02  0.26977669722E+03  0.27227722058E+03  0.00000000000E+00 0.  1.
         21    1    1    2  503  501  0.10627189099E+02  0.25972163172E+02 -0.10514805615E+02  0.29967508156E+02  0.00000000000E+00 0. -1.
<scales pt_clust_5="13000.00000" pt_clust_6="13000.00000" pt_clust_7="13000.00000" pt_clust_8="13000.00000" pt_clust_9="36.44063" pt_clust_10="28.06226"></scales>
<clustering>
<clus scale="   28.062">  2 10  1 -1</clus>
<clus scale="   36.441">  1  9  2 -1</clus>
<clus scale="   90.662">  5  6 -1 -1</clus>
<clus scale="   91.756">  7  8 -1 -1</clus>
<clus scale="  117.596">  2  5  1 -1</clus>
<clus scale="   36.441">  1  5  2 -1</clus>
</clustering>
</event>
<event>
10    2  0.2445576E-006  0.1030351E+03  0.7546771E-02  0.1281968E+00
         -1   -1    0    0    0  501 -0.00000000000E+00  0.00000000000E+00  0.16422933221E+03  0.16422933221E+03  0.00000000000E+00 0.  1.
          1   -1    0    0  502    0  0.00000000000E+00 -0.00000000000E+00 -0.26077880434E+03  0.26077880434E+03  0.00000000000E+00 0. -1.
         23    2    1    2    0    0 -0.31005704627E+02  0.41881331274E+02  0.11403620678E+03  0.14630941935E+03  0.75410808937E+02 0.  0.
         23    2    1    2    0    0  0.21684200879E+02 -0.50301673004E+02 -0.19079198106E+03  0.21877323373E+03  0.91976545307E+02 0.  0.
        -11    1    4    4    0    0  0.44952027719E+02  0.66429669066E+01 -0.76482960817E+02  0.88963234545E+02  0.00000000000E+00 0.  1.
         11    1    4    4    0    0 -0.23267826840E+02 -0.56944639911E+02 -0.11430902024E+03  0.12980999918E+03  0.00000000000E+00 0. -1.
        -11    1    3    3    0    0  0.24178558003E+02  0.64060164755E+01  0.41944534389E+02  0.48836294693E+02  0.00000000000E+00 0.  1.
         11    1    3    3    0    0 -0.55184262630E+02  0.35475314798E+02  0.72091672394E+02  0.97473124658E+02  0.00000000000E+00 0. -1.
         21    1    1    2  502  503  0.17629527692E+02  0.26663282876E+02 -0.23326500659E+02  0.39570905137E+02  0.00000000000E+00 0.  1.
         21    1    1    2  503  501 -0.83080239436E+01 -0.18242941146E+02  0.35328028081E+01  0.20354578335E+02  0.00000000000E+00 0.  1.
<scales pt_clust_5="13000.00000" pt_clust_6="13000.00000" pt_clust_7="13000.00000" pt_clust_8="13000.00000" pt_clust_9="30.90896" pt_clust_10="20.04565"></scales>
<clustering>
<clus scale="   20.046">  1 10  2 -1</clus>
<clus scale="   30.909">  2  9  1 -1</clus>
<clus scale="   75.411">  7  8 -1 -1</clus>
<clus scale="   88.563">  1  7  2 -1</clus>
<clus scale="   91.977">  5  6 -1 -1</clus>
<clus scale="   30.909">  2  5  1 -1</clus>
</clustering>
</event>
<event>
10    2  0.2445576E-006  0.1639127E+03  0.7546771E-02  0.1184588E+00
          2   -1    0    0  502    0  0.00000000000E+00  0.00000000000E+00  0.11513514847E+03  0.11513514847E+03  0.00000000000E+00 0. -1.
         -2   -1    0    0    0  501 -0.00000000000E+00 -0.00000000000E+00 -0.75256356701E+03  0.75256356701E+03  0.00000000000E+00 0.  1.
         23    2    1    2    0    0 -0.65615973026E+02 -0.11577430789E+03 -0.47418110454E+03  0.50087932289E+03  0.91231737420E+02 0.  0.
         23    2    1    2    0    0  0.51417820233E+02  0.15485945642E+03 -0.74257347549E+02  0.20044420600E+03  0.89657585145E+02 0.  0.
        -11    1    3    3    0    0 -0.52203550772E+02 -0.26847387684E+02 -0.29040129511E+03  0.29627504981E+03  0.00000000000E+00 0. -1.
         11    1    3    3    0    0 -0.13412422254E+02 -0.88926920208E+02 -0.18377980942E+03  0.20460427307E+03  0.00000000000E+00 0.  1.
        -13    1    4    4    0    0  0.42449182040E+02  0.51539822667E+02 -0.69868635737E+02  0.96643223437E+02  0.00000000000E+00 0.  1.
         13    1    4    4    0    0  0.89686381931E+01  0.10331963375E+03 -0.43887118114E+01  0.10380098256E+03  0.00000000000E+00 0. -1.
         21    1    1    2  502  503 -0.68440927034E+01 -0.32977373233E+02  0.30170315138E+02  0.45217216476E+02  0.00000000000E+00 0. -1.
         21    1    1    2  503  501  0.21042245497E+02 -0.61077752953E+01 -0.11916028159E+03  0.12115797012E+03  0.00000000000E+00 0. -1.
<scales pt_clust_5="13000.00000" pt_clust_6="13000.00000" pt_clust_7="13000.00000" pt_clust_8="13000.00000" pt_clust_9="33.70137" pt_clust_10="21.91075"></scales>
<clustering>
<clus scale="   21.911">  2 10  1 -1</clus>
<clus scale="   33.701">  1  9  2 -1</clus>
<clus scale="   89.658">  7  8 -1 -1</clus>
<clus scale="   91.232">  5  6 -1 -1</clus>
<clus scale="  163.042">  1  7  2 -1</clus>
<clus scale="   33.701">  1  5  2 -1</clus>
</clustering>
</event>
<event>
10    2  0.2445576E-006  0.1837753E+03  0.7546771E-02  0.1181755E+00
         -2   -1    0    0    0  501 -0.00000000000E+00  0.00000000000E+00  0.28248697384E+03  0.28248697384E+03  0.00000000000E+00 0.  1.
          2   -1    0    0  502    0  0.00000000000E+00 -0.00000000000E+00 -0.40575749263E+03  0.40575749263E+03  0.00000000000E+00 0. -1.
         23    2    1    2    0    0 -0.92319156515E+01 -0.96208728152E+02  0.24165796927E+02  0.12695499811E+03  0.78690775608E+02 0.  0.
         23    2    1    2    0    0  0.14547406297E+03 -0.82141812436E+02 -0.14058681134E+03  0.23694414786E+03  0.92021178721E+02 0.  0.
        -11    1    3    3    0    0 -0.42808513254E+02 -0.37182426648E+02  0.12236602902E+02  0.58007207388E+02  0.00000000000E+00 0. -1.
         11    1    3    3    0    0  0.33576597602E+02 -0.59026301505E+02  0.11929194025E+02  0.68947790726E+02  0.00000000000E+00 0.  1.
        -13    1    4    4    0    0  0.78299226928E+02 -0.92484156450E+02 -0.10438071515E+03  0.15993568028E+03  0.00000000000E+00 0. -1.
         13    1    4    4    0    0  0.67174836044E+02  0.10342344014E+02 -0.36206096196E+02  0.77008467580E+02  0.00000000000E+00 0.  1.
         21    1    1    2  502  503 -0.22388894953E+02  0.13318534086E+02 -0.99950003371E+02  0.10328915307E+03  0.00000000000E+00 0.  1.
         21    1    1    2  503  501 -0.11385325237E+03  0.16503200650E+03  0.93100498998E+02  0.22105616743E+03  0.00000000000E+00 0.  1.
<scales pt_clust_5="13000.00000" pt_clust_6="13000.00000" pt_clust_7="13000.00000" pt_clust_8="13000.00000" pt_clust_9="26.05083" pt_clust_10="159.07686"></scales>
<clustering>
<clus scale="   26.051">  2  9  1 -1</clus>
<clus scale="   78.691">  5  6 -1 -1</clus>
<clus scale="   92.021">  7  8 -1 -1</clus>
<clus scale="  123.247">  1  5  2 -1</clus>
<clus scale="  159.077">  1 10  2 -1</clus>
<clus scale="   26.051">  2  5  1 -1</clus>
</clustering>
</event>
<event>
10    2  0.2445576E-006  0.1283072E+03  0.7546771E-02  0.1232203E+00
          1   -1    0    0  503    0  0.00000000000E+00  0.00000000000E+00  0.55733631346E+03  0.55733631346E+03  0.00000000000E+00 0. -1.
         -1   -1    0    0    0  501 -0.00000000000E+00 -0.00000000000E+00 -0.43913410826E+02  0.43913410826E+02  0.00000000000E+00 0.  1.
         23    2    1    2    0    0 -0.59513080417E+02 -0.50555787774E+02  0.14909656672E+03  0.19462453390E+03  0.97730387141E+02 0.  0.
         23    2    1    2    0    0  0.47086501923E+02  0.67489753465E+02  0.26243546703E+03  0.28941311275E+03  0.90086458392E+02 0.  0.
        -13    1    4    4    0    0  0.45173640958E+02 -0.80327944452E+01  0.11320446885E+03  0.12214923410E+03  0.00000000000E+00 0. -1.
         13    1    4    4    0    0  0.19128609648E+01  0.75522547911E+02  0.14923099818E+03  0.16726387864E+03  0.00000000000E+00 0.  1.
        -13    1    3    3    0    0 -0.34788137952E+02 -0.78394682388E+02  0.11933381779E+03  0.14695747969E+03  0.00000000000E+00 0. -1.
         13    1    3    3    0    0 -0.24724942465E+02  0.27838894613E+02  0.29762748925E+02  0.47667054207E+02  0.00000000000E+00 0.  1.
         21    1    1    2  502  501 -0.20577302739E+02 -0.13427157574E+02  0.38841971652E+02  0.45960991181E+02  0.00000000000E+00 0.  1.
         21    1    1    2  503  502  0.33003881233E+02 -0.35068081169E+01  0.63048897230E+02  0.71251086459E+02  0.00000000000E+00 0. -1.
<scales pt_clust_5="13000.00000" pt_clust_6="13000.00000" pt_clust_7="13000.00000" pt_clust_8="13000.00000" pt_clust_9="24.57059" pt_clust_10="31.29412"></scales>
<clustering>
<clus scale="   24.571">  2  9  1 -1</clus>
<clus scale="   31.294">  1 10  2 -1</clus>
<clus scale="   90.086">  5  6 -1 -1</clus>
<clus scale="   97.730">  7  8 -1 -1</clus>
<clus scale="  122.585">  1  5  2 -1</clus>
<clus scale="   31.294">  1  5  2 -1</clus>
</clustering>
</event>
<event>
10    2  0.2445576E-006  0.1350200E+03  0.7546771E-02  0.1220592E+00
         -1   -1    0    0    0  501 -0.00000000000E+00  0.00000000000E+00  0.11534890186E+03  0.11534890186E+03  0.00000000000E+00 0.  1.
          1   -1    0    0  502    0  0.00000000000E+00 -0.00000000000E+00 -0.25756165834E+03  0.25756165834E+03  0.00000000000E+00 0. -1.
         23    2    1    2    0    0 -0.67095192903E+02  0.64767097407E+02  0.44140995861E+01  0.13171276838E+03  0.92909780228E+02 0.  0.
         23    2    1    2    0    0  0.93900079690E+02 -0.29463330964E+02 -0.11741036127E+03  0.18001723645E+03  0.94528829722E+02 0.  0.
        -13    1    3    3    0    0 -0.52794257034E+02 -0.11390372025E+02  0.48144055370E+01  0.54223174486E+02  0.00000000000E+00 0. -1.
         13    1    3    3    0    0 -0.14300935869E+02  0.76157469432E+02 -0.40030595089E+00  0.77489593894E+02  0.00000000000E+00 0.  1.
        -13    1    4    4    0    0  0.42527375100E+02 -0.59329265404E+02 -0.42743492263E+02  0.84590457483E+02  0.00000000000E+00 0. -1.
         13    1    4    4    0    0  0.51372704590E+02  0.29865934441E+02 -0.74666869008E+02  0.95426778969E+02  0.00000000000E+00 0.  1.
         21    1    1    2  502  503 -0.64309780027E+01 -0.24599578074E+02 -0.28445592281E+02  0.38152961087E+02  0.00000000000E+00 0. -1.
         21    1    1    2  503  501 -0.20373908784E+02 -0.10704188370E+02 -0.77090251420E+00  0.23027594283E+02  0.00000000000E+00 0. -1.
<scales pt_clust_5="13000.00000" pt_clust_6="13000.00000" pt_clust_7="13000.00000" pt_clust_8="13000.00000" pt_clust_9="26.16057" pt_clust_10="23.01469"></scales>
<clustering>
<clus scale="   23.015">  1 10  2 -1</clus>
<clus scale="   26.161">  2  9  1 -1</clus>
<clus scale="   92.910">  5  6 -1 -1</clus>
<clus scale="   94.529">  7  8 -1 -1</clus>
<clus scale="  133.891">  1  5  2 -1</clus>
<clus scale="   26.161">  2  5  1 -1</clus>
</clustering>
</event>
<event>
10    2  0.2445576E-006  0.1005606E+03  0.7546771E-02  0.1279854E+00
          2   -1    0    0  503    0  0.00000000000E+00  0.00000000000E+00  0.15369391628E+03  0.15369391628E+03  0.00000000000E+00 0. -1.
         -2   -1    0    0    0  501 -0.00000000000E+00 -0.00000000000E+00 -0.15348721208E+03  0.15348721208E+03  0.00000000000E+00 0.  1.
         23    2    1    2    0    0 -0.46693989102E+02  0.72461787717E+01 -0.23388437060E+02  0.10829010334E+03  0.94588010698E+02 0.  0.
         23    2    1    2    0    0  0.27552713973E+02  0.15775593600E+02  0.72332137719E+02  0.12210082762E+03  0.93105598965E+02 0.  0.
        -11    1    4    4    0    0  0.37053680901E+02  0.47306668505E+02  0.64692194514E+02  0.88294825354E+02  0.00000000000E+00 0. -1.
         11    1    4    4    0    0 -0.95009669280E+01 -0.31531074905E+02  0.76399432057E+01  0.33806002269E+02  0.00000000000E+00 0.  1.
        -13    1    3    3    0    0 -0.86619124600E+01 -0.30155513117E+02  0.21944158983E+02  0.38287462860E+02  0.00000000000E+00 0. -1.
         13    1    3    3    0    0 -0.38032076642E+02  0.37401691889E+02 -0.45332596043E+02  0.70002640478E+02  0.00000000000E+00 0.  1.
         21    1    1    2  502  501  0.23935959608E+02  0.69419454651E+01 -0.83713158287E+01  0.26290677015E+02  0.00000000000E+00 0. -1.
         21    1    1    2  503  502 -0.47946844799E+01 -0.29963717837E+02 -0.40365680634E+02  0.50499520383E+02  0.00000000000E+00 0. -1.
<scales pt_clust_5="13000.00000" pt_clust_6="13000.00000" pt_clust_7="13000.00000" pt_clust_8="13000.00000" pt_clust_9="24.92229" pt_clust_10="27.83102"></scales>
<clustering>
<clus scale="   24.922">  2  9  1 -1</clus>
<clus scale="   27.831">  2 10  1 -1</clus>
<clus scale="   93.106">  5  6 -1 -1</clus>
<clus scale="   94.588">  7  8 -1 -1</clus>
<clus scale="   99.168">  1  5  2 -1</clus>
<clus scale="   99.168">  1  5  2 -1</clus>
</clustering>
</event>
<event>
10    2  0.2445576E-006  0.9647611E+02  0.7546771E-02  0.1288578E+00
          2   -1    0    0  502    0  0.00000000000E+00  0.00000000000E+00  0.80314915641E+03  0.80314915641E+03  0.00000000000E+00 0. -1.
         -2   -1    0    0    0  501 -0.00000000000E+00 -0.00000000000E+00 -0.29810219071E+02  0.29810219071E+02  0.00000000000E+00 0.  1.
         23    2    1    2    0    0 -0.10944850754E+02 -0.15730659208E+02  0.13755491716E+03  0.16372024486E+03  0.86693252018E+02 0.  0.
         23    2    1    2    0    0  0.36504373939E+02  0.11296241464E+02  0.50022910676E+03  0.50935646829E+03  0.88060650388E+02 0.  0.
        -13    1    3    3    0    0 -0.32520546424E+02  0.25686110313E+02  0.54899164947E+02  0.68784304275E+02  0.00000000000E+00 0.  1.
         13    1    3    3    0    0  0.21575695670E+02 -0.41416769521E+02  0.82655752210E+02  0.94935940584E+02  0.00000000000E+00 0. -1.
        -13    1    4    4    0    0  0.17819514189E+02 -0.38339321694E+02  0.19221497890E+03  0.19680964608E+03  0.00000000000E+00 0.  1.
         13    1    4    4    0    0  0.18684859750E+02  0.49635563158E+02  0.30801412786E+03  0.31254682221E+03  0.00000000000E+00 0. -1.
         21    1    1    2  502  503  0.11667047898E+02  0.18131191311E+02  0.11134186145E+03  0.11341018568E+03  0.00000000000E+00 0.  1.
         21    1    1    2  503  501 -0.37226571082E+02 -0.13696773566E+02  0.24213051972E+02  0.46472476655E+02  0.00000000000E+00 0.  1.
<scales pt_clust_5="13000.00000" pt_clust_6="13000.00000" pt_clust_7="13000.00000" pt_clust_8="13000.00000" pt_clust_9="21.56061" pt_clust_10="38.79150"></scales>
<clustering>
<clus scale="   21.561">  1  9  2 -1</clus>
<clus scale="   38.791">  2 10  1 -1</clus>
<clus scale="   86.693">  5  6 -1 -1</clus>
<clus scale="   88.061">  7  8 -1 -1</clus>
<clus scale="   95.230">  2  5  1 -1</clus>
<clus scale="   21.561">  1  5  2 -1</clus>
</clustering>
</event>
<event>
10    2  0.2445576E-006  0.1422466E+03  0.7546771E-02  0.1210535E+00
         -1   -1    0    0    0  501 -0.00000000000E+00  0.00000000000E+00  0.16673921045E+03  0.16673921045E+03  0.00000000000E+00 0.  1.
          1   -1    0    0  502    0  0.00000000000E+00 -0.00000000000E+00 -0.23308642362E+03  0.23308642362E+03  0.00000000000E+00 0. -1.
         23    2    1    2    0    0  0.53682774475E+02 -0.91787287041E+02  0.52596683321E+01  0.14015781380E+03  0.91158117134E+02 0.  0.
         23    2    1    2    0    0 -0.14986748752E+02  0.10308312336E+03 -0.74836678420E+02  0.15789563729E+03  0.92085671415E+02 0.  0.
        -11    1    3    3    0    0  0.66067021483E+02 -0.32023514907E+02 -0.16699411782E+02  0.75294270622E+02  0.00000000000E+00 0.  1.
         11    1    3    3    0    0 -0.12384247008E+02 -0.59763772134E+02  0.21959080114E+02  0.64863543174E+02  0.00000000000E+00 0. -1.
        -13    1    4    4    0    0 -0.40251960723E+02  0.26072753422E+02 -0.57746590375E+02  0.75064489028E+02  0.00000000000E+00 0.  1.
         13    1    4    4    0    0  0.25265211971E+02  0.77010369937E+02 -0.17090088045E+02  0.82831148266E+02  0.00000000000E+00 0. -1.
         21    1    1    2  502  503 -0.48738411997E+02  0.13855398846E+02 -0.30015291800E+02  0.58892466607E+02  0.00000000000E+00 0. -1.
         21    1    1    2  503  501  0.10042386275E+02 -0.25151235165E+02  0.33245088713E+02  0.42879716370E+02  0.00000000000E+00 0.  1.
<scales pt_clust_5="13000.00000" pt_clust_6="13000.00000" pt_clust_7="13000.00000" pt_clust_8="13000.00000" pt_clust_9="48.87324" pt_clust_10="27.08199"></scales>
<clustering>
<clus scale="   27.082">  1 10  2 -1</clus>
<clus scale="   48.873">  2  9  1 -1</clus>
<clus scale="   91.158">  5  6 -1 -1</clus>
<clus scale="   92.086">  7  8 -1 -1</clus>
<clus scale="  141.648">  1  5  2 -1</clus>
<clus scale="   48.873">  2  5  1 -1</clus>
</clustering>
</event>
<event>
10    2  0.2445576E-006  0.1673820E+03  0.7546771E-02  0.1180754E+00
         -2   -1    0    0    0  501 -0.00000000000E+00  0.00000000000E+00  0.14969079136E+03  0.14969079136E+03  0.00000000000E+00 0.  1.
          2   -1    0    0  502    0  0.00000000000E+00 -0.00000000000E+00 -0.49138562294E+03  0.49138562294E+03  0.00000000000E+00 0. -1.
         23    2    1    2    0    0  0.95056230266E+02  0.73443940137E+02 -0.32844433232E+02  0.15846176200E+03  0.97988131763E+02 0.  0.
         23    2    1    2    0    0 -0.12956733407E+03 -0.26796123524E+02 -0.28130606568E+03  0.32565981085E+03  0.97033414459E+02 0.  0.
        -11    1    3    3    0    0  0.14523350523E+02  0.61909214199E+02 -0.42575943617E+02  0.76527050694E+02  0.00000000000E+00 0. -1.
         11    1    3    3    0    0  0.80532879744E+02  0.11534725938E+02  0.97315103847E+01  0.81934711305E+02  0.00000000000E+00 0.  1.
        -11    1    4    4    0    0 -0.53073784853E+02 -0.56262511382E+02 -0.97885213722E+02  0.12475500748E+03  0.00000000000E+00 0.  1.
         11    1    4    4    0    0 -0.76493549218E+02  0.29466387858E+02 -0.18342085195E+03  0.20090480337E+03  0.00000000000E+00 0. -1.
         21    1    1    2  502  503 -0.18807300405E+02 -0.15831673532E+02 -0.75180605002E+02  0.79097912765E+02  0.00000000000E+00 0.  1.
         21    1    1    2  503  501  0.53318404211E+02 -0.30816143081E+02  0.47636272334E+02  0.77856928683E+02  0.00000000000E+00 0.  1.
<scales pt_clust_5="13000.00000" pt_clust_6="13000.00000" pt_clust_7="13000.00000" pt_clust_8="13000.00000" pt_clust_9="24.58366" pt_clust_10="61.28399"></scales>
<clustering>
<clus scale="   24.584">  2  9  1 -1</clus>
<clus scale="   61.284">  1 10  2 -1</clus>
<clus scale="   97.033">  7  8 -1 -1</clus>
<clus scale="   97.988">  5  6 -1 -1</clus>
<clus scale="  166.825">  2  7  1 -1</clus>
<clus scale="   24.584">  2  5  1 -1</clus>
</clustering>
</event>
<event>
10    2  0.2445576E-006  0.9863865E+02  0.7546771E-02  0.1283679E+00
          1   -1    0    0  502    0  0.00000000000E+00  0.00000000000E+00  0.29099613184E+03  0.29099613184E+03  0.00000000000E+00 0. -1.
         -1   -1    0    0    0  501 -0.00000000000E+00 -0.00000000000E+00 -0.73276406357E+02  0.73276406357E+02  0.00000000000E+00 0.  1.
         23    2    1    2    0    0 -0.21986451211E+02  0.41958189276E+02  0.46373890474E+02  0.11289740313E+03  0.91385952044E+02 0.  0.
         23    2    1    2    0    0 -0.35442169841E+02 -0.37642097255E+02  0.13396867111E+03  0.16968119718E+03  0.90393743956E+02 0.  0.
        -11    1    3    3    0    0 -0.29151590377E+02 -0.23159289673E+02  0.20138983449E+02  0.42329027558E+02  0.00000000000E+00 0. -1.
         11    1    3    3    0    0  0.71651391656E+01  0.65117478948E+02  0.26234907025E+02  0.70568375569E+02  0.00000000000E+00 0.  1.
        -11    1    4    4    0    0  0.64756355200E+01 -0.38391631788E+02  0.12050758367E+02  0.40756251348E+02  0.00000000000E+00 0.  1.
         11    1    4    4    0    0 -0.41917805361E+02  0.74953453276E+00  0.12191791275E+03  0.12892494583E+03  0.00000000000E+00 0. -1.
         21    1    1    2  502  503  0.23050914144E+02  0.10960561870E+02  0.35896208142E+02  0.44045616335E+02  0.00000000000E+00 0.  1.
         21    1    1    2  503  501  0.34377706908E+02 -0.15276653890E+02  0.14809557536E+01  0.37648321560E+02  0.00000000000E+00 0.  1.
<scales pt_clust_5="13000.00000" pt_clust_6="13000.00000" pt_clust_7="13000.00000" pt_clust_8="13000.00000" pt_clust_9="25.52408" pt_clust_10="38.94334"></scales>
<clustering>
<clus scale="   25.524">  1  9  2 -1</clus>
<clus scale="   38.943">  2 10  1 -1</clus>
<clus scale="   90.394">  7  8 -1 -1</clus>
<clus scale="   91.386">  5  6 -1 -1</clus>
<clus scale="   97.720">  1  7  2 -1</clus>
<clus scale="   25.524">  1  5  2 -1</clus>
</clustering>
</event>
<event>
10    2  0.2713022E-006  0.3388637E+03  0.7546771E-02  0.1107545E+00
          1   -1    0    0  502    0  0.00000000000E+00  0.00000000000E+00  0.16091540397E+04  0.16091540397E+04  0.00000000000E+00 0. -1.
         -1   -1    0    0    0  501 -0.00000000000E+00 -0.00000000000E+00 -0.97112802759E+03  0.97112802759E+03  0.00000000000E+00 0.  1.
         23    2    1    2    0    0  0.25397193950E+02  0.69358147340E+02 -0.60760346694E+02  0.13189853178E+03  0.90828590716E+02 0.  0.
         23    2    1    2    0    0 -0.34305127876E+03 -0.10674477059E+03  0.13325732113E+04  0.13831432896E+04  0.90859067982E+02 0.  0.
        -13    1    3    3    0    0 -0.13864368158E+02  0.22914805557E+02 -0.65634480193E+02  0.70888602810E+02  0.00000000000E+00 0. -1.
         13    1    3    3    0    0  0.39261562108E+02  0.46443341783E+02  0.48741334993E+01  0.61009928966E+02  0.00000000000E+00 0.  1.
        -13    1    4    4    0    0 -0.22425355458E+03 -0.58687709237E+02  0.10051968293E+04  0.10315786783E+04  0.00000000000E+00 0. -1.
         13    1    4    4    0    0 -0.11879772418E+03 -0.48057061358E+02  0.32737638199E+03  0.35156461128E+03  0.00000000000E+00 0.  1.
         21    1    1    2  502  503  0.76802784404E+02 -0.86064026849E+02  0.17655494447E+03  0.21089649790E+03  0.00000000000E+00 0. -1.
         21    1    1    2  503  501  0.24085130041E+03  0.12345065010E+03 -0.81034179693E+03  0.85434374802E+03  0.00000000000E+00 0.  1.
<scales pt_clust_5="13000.00000" pt_clust_6="13000.00000" pt_clust_7="13000.00000" pt_clust_8="13000.00000" pt_clust_9="115.35027" pt_clust_10="326.45553"></scales>
<clustering>
<clus scale="   90.829">  5  6 -1 -1</clus>
<clus scale="   90.859">  7  8 -1 -1</clus>
<clus scale="  115.350">  1  9  2 -1</clus>
<clus scale="  116.240">  2  5  1 -1</clus>
<clus scale="  326.456">  2 10  1 -1</clus>
<clus scale="  115.350">  1  5  2 -1</clus>
</clustering>
</event>
<event>
10    2  0.2445576E-006  0.1237312E+03  0.7546771E-02  0.1237443E+00
          1   -1    0    0  502    0  0.00000000000E+00  0.00000000000E+00  0.83825100519E+02  0.83825100519E+02  0.00000000000E+00 0. -1.
         -1   -1    0    0    0  501 -0.00000000000E+00 -0.00000000000E+00 -0.35635063404E+03  0.35635063404E+03  0.00000000000E+00 0.  1.
         23    2    1    2    0    0  0.69408698843E+02  0.47046007028E+02 -0.18414921275E+03  0.22204922068E+03  0.91455068721E+02 0.  0.
         23    2    1    2    0    0 -0.82005809300E+02 -0.23122703366E+02 -0.90928798290E+02  0.15381088430E+03  0.90167231295E+02 0.  0.
        -11    1    4    4    0    0  0.44171846289E+01 -0.34205927637E+02 -0.40279819370E+02  0.53028490965E+02  0.00000000000E+00 0.  1.
         11    1    4    4    0    0 -0.86422993929E+02  0.11083224271E+02 -0.50648978921E+02  0.10078239333E+03  0.00000000000E+00 0. -1.
        -13    1    3    3    0    0  0.78028470887E+02  0.78475543215E+01 -0.15036973365E+03  0.16959092893E+03  0.00000000000E+00 0.  1.
         13    1    3    3    0    0 -0.86197720445E+01  0.39198452707E+02 -0.33779479100E+02  0.52458291747E+02  0.00000000000E+00 0. -1.
         21    1    1    2  502  503 -0.15870712124E+02 -0.21003740886E+02  0.17907810061E+02  0.31839068700E+02  0.00000000000E+00 0. -1.
         21    1    1    2  503  501  0.28467822581E+02 -0.29195627763E+01 -0.15355332539E+02  0.32476560882E+02  0.00000000000E+00 0.  1.
<scales pt_clust_5="13000.00000" pt_clust_6="13000.00000" pt_clust_7="13000.00000" pt_clust_8="13000.00000" pt_clust_9="26.32559" pt_clust_10="26.83557"></scales>
<clustering>
<clus scale="   26.326">  1  9  2 -1</clus>
<clus scale="   26.836">  1 10  2 -1</clus>
<clus scale="   90.167">  5  6 -1 -1</clus>
<clus scale="   91.455">  7  8 -1 -1</clus>
<clus scale="  122.782">  1  5  2 -1</clus>
<clus scale="   26.326">  1  5  2 -1</clus>
</clustering>
</event>
<event>
10    2  0.2445576E-006  0.9282207E+02  0.7546771E-02  0.1297507E+00
          1   -1    0    0  502    0  0.00000000000E+00  0.00000000000E+00  0.39745529015E+03  0.39745529015E+03  0.00000000000E+00 0. -1.
         -1   -1    0    0    0  501 -0.00000000000E+00 -0.00000000000E+00 -0.12292207603E+03  0.12292207603E+03  0.00000000000E+00 0.  1.
         23    2    1    2    0    0  0.21741262234E+02  0.56701392660E+01  0.98078775361E+02  0.13430763053E+03  0.88962129464E+02 0.  0.
         23    2    1    2    0    0  0.62744175066E+01 -0.33868033807E+02  0.24058930868E+03  0.25962270689E+03  0.91292510395E+02 0.  0.
        -13    1    3    3    0    0 -0.23865816579E+02  0.23269181055E+02  0.12208630693E+02  0.35497642899E+02  0.00000000000E+00 0.  1.
         13    1    3    3    0    0  0.45607078814E+02 -0.17599041789E+02  0.85870144669E+02  0.98809987629E+02  0.00000000000E+00 0. -1.
        -13    1    4    4    0    0 -0.30634030183E+02 -0.47967647186E+02  0.16104550773E+03  0.17080689254E+03  0.00000000000E+00 0. -1.
         13    1    4    4    0    0  0.36908447689E+02  0.14099613378E+02  0.79543800955E+02  0.88815814350E+02  0.00000000000E+00 0.  1.
         21    1    1    2  502  503 -0.15334164975E+01  0.23504666526E+02  0.24401751647E+02  0.33915574565E+02  0.00000000000E+00 0.  1.
         21    1    1    2  503  501 -0.26482263243E+02  0.46932280148E+01 -0.88536621571E+02  0.92531454192E+02  0.00000000000E+00 0.  1.
<scales pt_clust_5="13000.00000" pt_clust_6="13000.00000" pt_clust_7="13000.00000" pt_clust_8="13000.00000" pt_clust_9="23.55463" pt_clust_10="26.92564"></scales>
<clustering>
<clus scale="   23.555">  1  9  2 -1</clus>
<clus scale="   26.926">  2 10  1 -1</clus>
<clus scale="   88.962">  5  6 -1 -1</clus>
<clus scale="   90.531">  2  5  1 -1</clus>
<clus scale="   91.293">  7  8 -1 -1</clus>
<clus scale="   23.555">  1  5  2 -1</clus>
</clustering>
</event>
<event>
10    2  0.2445576E-006  0.9566695E+02  0.7546771E-02  0.1291205E+00
          2   -1    0    0  502    0  0.00000000000E+00  0.00000000000E+00  0.48090398688E+03  0.48090398688E+03  0.00000000000E+00 0. -1.
         -2   -1    0    0    0  501 -0.00000000000E+00 -0.00000000000E+00 -0.86658694784E+02  0.86658694784E+02  0.00000000000E+00 0.  1.
         23    2    1    2    0    0  0.48141858093E+02  0.44462266664E+01  0.97076627038E+02  0.13944286619E+03  0.87652917707E+02 0.  0.
         23    2    1    2    0    0  0.73391427324E+01  0.36753883681E+01  0.22939593576E+03  0.24673956354E+03  0.90501631903E+02 0.  0.
        -11    1    4    4    0    0 -0.26175221519E+02  0.28616429336E+02  0.54290197175E+02  0.66719320730E+02  0.00000000000E+00 0.  1.
         11    1    4    4    0    0  0.33514364251E+02 -0.24941040967E+02  0.17510573858E+03  0.18002024281E+03  0.00000000000E+00 0. -1.
        -13    1    3    3    0    0  0.23558467354E+02 -0.41249934753E+02  0.54706740857E+02  0.72452646580E+02  0.00000000000E+00 0.  1.
         13    1    3    3    0    0  0.24583390739E+02  0.45696161419E+02  0.42369886181E+02  0.66990219612E+02  0.00000000000E+00 0. -1.
         21    1    1    2  502  503 -0.60858049281E+02  0.11474653072E+02  0.11463933459E+03  0.13029791580E+03  0.00000000000E+00 0.  1.
         21    1    1    2  503  501  0.53770484557E+01 -0.19596268107E+02 -0.46866605291E+02  0.51082336138E+02  0.00000000000E+00 0.  1.
<scales pt_clust_5="13000.00000" pt_clust_6="13000.00000" pt_clust_7="13000.00000" pt_clust_8="13000.00000" pt_clust_9="60.19789" pt_clust_10="20.32059"></scales>
<clustering>
<clus scale="   20.321">  2 10  1 -1</clus>
<clus scale="   60.198">  1  9  2 -1</clus>
<clus scale="   87.653">  7  8 -1 -1</clus>
<clus scale="   90.502">  5  6 -1 -1</clus>
<clus scale="   92.977">  2  7  1 -1</clus>
<clus scale="   60.198">  1  5  2 -1</clus>
</clustering>
</event>
<event>
10    2  0.2445576E-006  0.1375053E+03  0.7546771E-02  0.1229715E+00
          1   -1    0    0  503    0  0.00000000000E+00  0.00000000000E+00  0.37953208903E+03  0.37953208903E+03  0.00000000000E+00 0. -1.
         -1   -1    0    0    0  501 -0.00000000000E+00 -0.00000000000E+00 -0.12124376015E+03  0.12124376015E+03  0.00000000000E+00 0.  1.
         23    2    1    2    0    0 -0.85432637098E+02  0.75781724230E+02  0.13191724174E+02  0.14447989929E+03  0.87514653072E+02 0.  0.
         23    2    1    2    0    0 -0.11291648288E+02 -0.41347869741E+02  0.22009659188E+03  0.24378870505E+03  0.95672751079E+02 0.  0.
        -11    1    3    3    0    0 -0.21673934451E+02 -0.22878069734E+00 -0.29389002232E+02  0.36517464690E+02  0.00000000000E+00 0.  1.
         11    1    3    3    0    0 -0.63758702647E+02  0.76010504928E+02  0.42580726407E+02  0.10796243460E+03  0.00000000000E+00 0. -1.
        -13    1    4    4    0    0  0.30285826681E+02 -0.53500226885E+02  0.12576830323E+03  0.13998989846E+03  0.00000000000E+00 0.  1.
         13    1    4    4    0    0 -0.41577474969E+02  0.12152357143E+02  0.94328288659E+02  0.10379880659E+03  0.00000000000E+00 0. -1.
         21    1    1    2  502  501  0.73535344333E+02 -0.27115530068E+02  0.35475703590E+02  0.86030368953E+02  0.00000000000E+00 0.  1.
         21    1    1    2  503  502  0.23188941053E+02 -0.73183244216E+01 -0.10475690778E+02  0.26476875888E+02  0.00000000000E+00 0.  1.
<scales pt_clust_5="13000.00000" pt_clust_6="13000.00000" pt_clust_7="13000.00000" pt_clust_8="13000.00000" pt_clust_9="112.87381" pt_clust_10="21.51225"></scales>
<clustering>
<clus scale="   21.512">  9 10 -1 -1</clus>
<clus scale="   87.515">  5  6 -1 -1</clus>
<clus scale="   95.673">  7  8 -1 -1</clus>
<clus scale="  104.835">  1  7  2 -1</clus>
<clus scale="  112.874">  1  9  2 -1</clus>
<clus scale="  104.835">  1  5  2 -1</clus>
</clustering>
</event>
<event>
10    2  0.2445576E-006  0.2709496E+03  0.7546771E-02  0.1144142E+00
          1   -1    0    0  502    0  0.00000000000E+00  0.00000000000E+00  0.28600561301E+03  0.28600561301E+03  0.00000000000E+00 0. -1.
         -1   -1    0    0    0  501 -0.00000000000E+00 -0.00000000000E+00 -0.45655654803E+03  0.45655654803E+03  0.00000000000E+00 0.  1.
         23    2    1    2    0    0  0.26686816136E+03  0.36719232883E+02 -0.22285005655E+03  0.36167361310E+03  0.92621472124E+02 0.  0.
         23    2    1    2    0    0 -0.56834327215E+01  0.48761754767E+01 -0.15798049716E+02  0.92992219971E+02  0.91333981110E+02 0.  0.
        -11    1    3    3    0    0  0.86581145013E+02  0.53448277992E+02 -0.59827725691E+02  0.11803546015E+03  0.00000000000E+00 0. -1.
         11    1    3    3    0    0  0.18028701635E+03 -0.16729045109E+02 -0.16302233086E+03  0.24363815295E+03  0.00000000000E+00 0.  1.
        -13    1    4    4    0    0 -0.37088031939E+02 -0.27482123504E+02 -0.12263252495E+02  0.47761664410E+02  0.00000000000E+00 0.  1.
         13    1    4    4    0    0  0.31404599218E+02  0.32358298981E+02 -0.35347972214E+01  0.45230555561E+02  0.00000000000E+00 0. -1.
         21    1    1    2  502  503 -0.24044762477E+03 -0.51238155392E+02  0.84267793237E+02  0.25988741756E+03  0.00000000000E+00 0. -1.
         21    1    1    2  503  501 -0.20737103862E+02  0.96427470326E+01 -0.16170621981E+02  0.28008910407E+02  0.00000000000E+00 0.  1.
<scales pt_clust_5="13000.00000" pt_clust_6="13000.00000" pt_clust_7="13000.00000" pt_clust_8="13000.00000" pt_clust_9="254.62709" pt_clust_10="22.86941"></scales>
<clustering>
<clus scale="   22.869">  2 10  1 -1</clus>
<clus scale="   91.334">  7  8 -1 -1</clus>
<clus scale="   91.910">  1  7  2 -1</clus>
<clus scale="   92.621">  5  6 -1 -1</clus>
<clus scale="  254.627">  1  9  2 -1</clus>
<clus scale="   91.910">  1  5  2 -1</clus>
</clustering>
</event>
<event>
10    2  0.2445576E-006  0.1491357E+03  0.7546771E-02  0.1201963E+00
         -1   -1    0    0    0  501 -0.00000000000E+00  0.00000000000E+00  0.15530206043E+03  0.15530206043E+03  0.00000000000E+00 0.  1.
          1   -1    0    0  502    0  0.00000000000E+00 -0.00000000000E+00 -0.26670238149E+03  0.26670238149E+03  0.00000000000E+00 0. -1.
         23    2    1    2    0    0  0.10020460672E+02  0.10411510089E+03 -0.21937679294E+02  0.14013452442E+03  0.90642480631E+02 0.  0.
         23    2    1    2    0    0 -0.50336704430E+02 -0.11784127976E+03 -0.93806625776E+02  0.18395952691E+03  0.92849735993E+02 0.  0.
        -11    1    3    3    0    0 -0.30709249374E+02  0.38184172106E+02  0.18919877901E+02  0.52526667287E+02  0.00000000000E+00 0.  1.
         11    1    3    3    0    0  0.40729710046E+02  0.65930928785E+02 -0.40857557195E+02  0.87607857129E+02  0.00000000000E+00 0. -1.
        -13    1    4    4    0    0 -0.64120393195E+02 -0.46911144223E+02 -0.22805751282E+02  0.82657017654E+02  0.00000000000E+00 0.  1.
         13    1    4    4    0    0  0.13783688765E+02 -0.70930135532E+02 -0.71000874494E+02  0.10130250926E+03  0.00000000000E+00 0. -1.
         21    1    1    2  502  503  0.44882150397E+02 -0.15789467283E+02 -0.26925672980E+02  0.54669064074E+02  0.00000000000E+00 0. -1.
         21    1    1    2  503  501 -0.45659066391E+01  0.29515646148E+02  0.31269656994E+02  0.43241326523E+02  0.00000000000E+00 0.  1.
<scales pt_clust_5="13000.00000" pt_clust_6="13000.00000" pt_clust_7="13000.00000" pt_clust_8="13000.00000" pt_clust_9="46.02545" pt_clust_10="29.86672"></scales>
<clustering>
<clus scale="   29.867">  1 10  2 -1</clus>
<clus scale="   46.025">  2  9  1 -1</clus>
<clus scale="   90.642">  5  6 -1 -1</clus>
<clus scale="   92.850">  7  8 -1 -1</clus>
<clus scale="  147.772">  1  5  2 -1</clus>
<clus scale="   46.025">  2  5  1 -1</clus>
</clustering>
</event>
<event>
10    2  0.2445576E-006  0.1096557E+03  0.7546771E-02  0.1261928E+00
         -3   -1    0    0    0  501 -0.00000000000E+00  0.00000000000E+00  0.85370780883E+03  0.85370780883E+03  0.00000000000E+00 0.  1.
          3   -1    0    0  503    0  0.00000000000E+00 -0.00000000000E+00 -0.25223875519E+02  0.25223875519E+02  0.00000000000E+00 0. -1.
         23    2    1    2    0    0  0.84565456392E+01  0.72903840302E+02  0.52949175311E+03  0.54279900416E+03  0.94248391062E+02 0.  0.
         23    2    1    2    0    0 -0.19429311039E+02 -0.25114739695E+02  0.21214623527E+03  0.23358629964E+03  0.92456941126E+02 0.  0.
        -11    1    4    4    0    0 -0.13361350597E+02  0.31436790634E+02  0.41719732032E+02  0.53919695251E+02  0.00000000000E+00 0.  1.
         11    1    4    4    0    0 -0.60679604422E+01 -0.56551530329E+02  0.17042650323E+03  0.17966660438E+03  0.00000000000E+00 0. -1.
        -13    1    3    3    0    0 -0.14221844161E+02  0.87076077028E+02  0.45904482924E+03  0.46744695881E+03  0.00000000000E+00 0.  1.
         13    1    3    3    0    0  0.22678389800E+02 -0.14172236725E+02  0.70446923863E+02  0.75352045357E+02  0.00000000000E+00 0. -1.
         21    1    1    2  502  501  0.16712271049E+02 -0.19972921160E+02  0.44413401969E+02  0.51485608259E+02  0.00000000000E+00 0. -1.
         21    1    1    2  503  502 -0.57395056492E+01 -0.27816179448E+02  0.42432542965E+02  0.51060772288E+02  0.00000000000E+00 0. -1.
<scales pt_clust_5="13000.00000" pt_clust_6="13000.00000" pt_clust_7="13000.00000" pt_clust_8="13000.00000" pt_clust_9="22.84828" pt_clust_10="54.53019"></scales>
<clustering>
<clus scale="   22.848">  9 10 -1 -1</clus>
<clus scale="   54.530">  2  9  1 -1</clus>
<clus scale="   92.457">  5  6 -1 -1</clus>
<clus scale="   94.248">  7  8 -1 -1</clus>
<clus scale="  108.120">  2  5  1 -1</clus>
<clus scale="   54.530">  2  5  1 -1</clus>
</clustering>
</event>
<event>
10    2  0.2445576E-006  0.1279961E+03  0.7546771E-02  0.1243244E+00
          2   -1    0    0  502    0  0.00000000000E+00  0.00000000000E+00  0.80924206064E+03  0.80924206064E+03  0.00000000000E+00 0. -1.
         -2   -1    0    0    0  501 -0.00000000000E+00 -0.00000000000E+00 -0.60072836991E+02  0.60072836991E+02  0.00000000000E+00 0.  1.
         23    2    1    2    0    0 -0.56264673246E+02  0.37338084243E+01  0.10448786659E+03  0.14930957044E+03  0.90531645182E+02 0.  0.
         23    2    1    2    0    0 -0.79803549755E+02 -0.54167626571E+02  0.34625045541E+03  0.37029261293E+03  0.89019677575E+02 0.  0.
        -11    1    3    3    0    0 -0.39482945370E+02 -0.32188769859E+02  0.96123636569E+02  0.10878774466E+03  0.00000000000E+00 0. -1.
         11    1    3    3    0    0 -0.16781727876E+02  0.35922578283E+02  0.83642300230E+01  0.40521825784E+02  0.00000000000E+00 0.  1.
        -11    1    4    4    0    0  0.38725850473E+01 -0.43892073256E+02  0.84463664539E+02  0.95266057109E+02  0.00000000000E+00 0.  1.
         11    1    4    4    0    0 -0.83676134802E+02 -0.10275553315E+02  0.26178679087E+03  0.27502655582E+03  0.00000000000E+00 0. -1.
         21    1    1    2  502  503  0.90965704151E+02  0.16093968811E+02  0.27182263222E+03  0.28709113283E+03  0.00000000000E+00 0. -1.
         21    1    1    2  503  501  0.45102518849E+02  0.34339849336E+02  0.26608269425E+02  0.62621581430E+02  0.00000000000E+00 0.  1.
<scales pt_clust_5="13000.00000" pt_clust_6="13000.00000" pt_clust_7="13000.00000" pt_clust_8="13000.00000" pt_clust_9="91.97010" pt_clust_10="56.68741"></scales>
<clustering>
<clus scale="   56.687">  2 10  1 -1</clus>
<clus scale="   89.020">  7  8 -1 -1</clus>
<clus scale="   90.532">  5  6 -1 -1</clus>
<clus scale="   98.592">  2  5  1 -1</clus>
<clus scale="   91.970">  1  9  2 -1</clus>
<clus scale="   91.970">  1  5  2 -1</clus>
</clustering>
</event>
<event>
10    2  0.2445576E-006  0.2085683E+03  0.7546771E-02  0.1142867E+00
         -2   -1    0    0    0  501 -0.00000000000E+00  0.00000000000E+00  0.10448275183E+03  0.10448275183E+03  0.00000000000E+00 0.  1.
          2   -1    0    0  502    0  0.00000000000E+00 -0.00000000000E+00 -0.80308000238E+03  0.80308000238E+03  0.00000000000E+00 0. -1.
         23    2    1    2    0    0 -0.19741024621E+03 -0.37475899684E+01 -0.17959085861E+03  0.28255197047E+03  0.92724806716E+02 0.  0.
         23    2    1    2    0    0  0.17207389228E+03 -0.45926341569E+02 -0.27731331355E+03  0.34187914047E+03  0.90884649754E+02 0.  0.
        -11    1    3    3    0    0 -0.17751574833E+02 -0.28619174268E+02 -0.47280212305E+02  0.58048204283E+02  0.00000000000E+00 0. -1.
         11    1    3    3    0    0 -0.17965867137E+03  0.24871584300E+02 -0.13231064631E+03  0.22450376618E+03  0.00000000000E+00 0.  1.
        -13    1    4    4    0    0  0.10296393668E+03 -0.56992699016E+02 -0.11244045780E+03  0.16276546485E+03  0.00000000000E+00 0.  1.
         13    1    4    4    0    0  0.69109955603E+02  0.11066357447E+02 -0.16487285575E+03  0.17911367562E+03  0.00000000000E+00 0. -1.
         21    1    1    2  502  503  0.19433712747E+02  0.27405910676E+02 -0.25454467721E+03  0.25675230443E+03  0.00000000000E+00 0. -1.
         21    1    1    2  503  501  0.59026411753E+01  0.22268020861E+02  0.12851598824E+02  0.26379338852E+02  0.00000000000E+00 0.  1.
<scales pt_clust_5="13000.00000" pt_clust_6="13000.00000" pt_clust_7="13000.00000" pt_clust_8="13000.00000" pt_clust_9="33.87775" pt_clust_10="23.03706"></scales>
<clustering>
<clus scale="   23.037">  1 10  2 -1</clus>
<clus scale="   33.878">  2  9  1 -1</clus>
<clus scale="   90.885">  7  8 -1 -1</clus>
<clus scale="   92.725">  5  6 -1 -1</clus>
<clus scale="  207.757">  2  7  1 -1</clus>
<clus scale="   33.878">  2  5  1 -1</clus>
</clustering>
</event>
<event>
10    2  0.2445576E-006  0.1403954E+03  0.7546771E-02  0.1214745E+00
          1   -1    0    0  502    0  0.00000000000E+00  0.00000000000E+00  0.57917091075E+03  0.57917091075E+03  0.00000000000E+00 0. -1.
         -1   -1    0    0    0  501 -0.00000000000E+00 -0.00000000000E+00 -0.11923370044E+03  0.11923370044E+03  0.00000000000E+00 0.  1.
         23    2    1    2    0    0 -0.10272445043E+02 -0.94517698152E+02  0.10021184185E+03  0.16971990972E+03  0.98606876615E+02 0.  0.
         23    2    1    2    0    0 -0.16524012089E+01  0.85000523345E+02  0.35753626840E+03  0.37844390153E+03  0.90331522683E+02 0.  0.
        -11    1    4    4    0    0 -0.16250314362E+02  0.16700048884E+02  0.12565088266E+02  0.26473492265E+02  0.00000000000E+00 0.  1.
         11    1    4    4    0    0  0.14597913153E+02  0.68300474461E+02  0.34497118013E+03  0.35197040927E+03  0.00000000000E+00 0. -1.
        -13    1    3    3    0    0  0.37939915046E+02 -0.21035463487E+02  0.11577375280E+02  0.44899482138E+02  0.00000000000E+00 0. -1.
         13    1    3    3    0    0 -0.48212360089E+02 -0.73482234665E+02  0.88634466569E+02  0.12482042758E+03  0.00000000000E+00 0.  1.
         21    1    1    2  502  503  0.46440281855E+01  0.28650810226E+02  0.71925781017E+02  0.77561291243E+02  0.00000000000E+00 0.  1.
         21    1    1    2  503  501  0.72808180659E+01 -0.19133635419E+02 -0.69736680948E+02  0.72679508706E+02  0.00000000000E+00 0. -1.
<scales pt_clust_5="13000.00000" pt_clust_6="13000.00000" pt_clust_7="13000.00000" pt_clust_8="13000.00000" pt_clust_9="27.99141" pt_clust_10="20.47209"></scales>
<clustering>
<clus scale="   20.472">  2 10  1 -1</clus>
<clus scale="   27.991">  1  9  2 -1</clus>
<clus scale="   90.332">  5  6 -1 -1</clus>
<clus scale="   98.607">  7  8 -1 -1</clus>
<clus scale="  134.712">  1  5  2 -1</clus>
<clus scale="   27.991">  1  5  2 -1</clus>
</clustering>
</event>
<event>
10    2  0.2445576E-006  0.1178574E+03  0.7546771E-02  0.1247092E+00
          2   -1    0    0  502    0  0.00000000000E+00  0.00000000000E+00  0.16479202825E+03  0.16479202825E+03  0.00000000000E+00 0. -1.
         -2   -1    0    0    0  501 -0.00000000000E+00 -0.00000000000E+00 -0.52819965567E+03  0.52819965567E+03  0.00000000000E+00 0.  1.
         23    2    1    2    0    0  0.54290443190E+02  0.27702529911E+02 -0.37885377917E+03  0.39462097063E+03  0.92090401680E+02 0.  0.
         23    2    1    2    0    0 -0.33548100366E+02 -0.80668559465E+02  0.11524730847E+02  0.12836447053E+03  0.93336629187E+02 0.  0.
        -13    1    3    3    0    0  0.23429636124E+02 -0.33850921799E+02 -0.15852296961E+03  0.16378145392E+03  0.00000000000E+00 0. -1.
         13    1    3    3    0    0  0.30860807066E+02  0.61553451709E+02 -0.22033080957E+03  0.23083951671E+03  0.00000000000E+00 0.  1.
        -13    1    4    4    0    0 -0.76036315894E+01 -0.68948248174E+02 -0.31971629773E+02  0.76379717530E+02  0.00000000000E+00 0.  1.
         13    1    4    4    0    0 -0.25944468776E+02 -0.11720311291E+02  0.43496360620E+02  0.51984752996E+02  0.00000000000E+00 0. -1.
         21    1    1    2  502  503  0.17822256084E+02  0.93253178500E+01  0.75267264117E+02  0.77908635032E+02  0.00000000000E+00 0. -1.
         21    1    1    2  503  501 -0.38564598909E+02  0.43640711704E+02 -0.71345843211E+02  0.92097607735E+02  0.00000000000E+00 0. -1.
<scales pt_clust_5="13000.00000" pt_clust_6="13000.00000" pt_clust_7="13000.00000" pt_clust_8="13000.00000" pt_clust_9="20.11453" pt_clust_10="57.71813"></scales>
<clustering>
<clus scale="   20.115">  1  9  2 -1</clus>
<clus scale="   57.718">  2 10  1 -1</clus>
<clus scale="   92.090">  5  6 -1 -1</clus>
<clus scale="   93.337">  7  8 -1 -1</clus>
<clus scale="  116.873">  2  5  1 -1</clus>
<clus scale="   20.115">  1  5  2 -1</clus>
</clustering>
</event>
<event>
10    2  0.2445576E-006  0.2239283E+03  0.7546771E-02  0.1131020E+00
          1   -1    0    0  502    0  0.00000000000E+00  0.00000000000E+00  0.13505658877E+04  0.13505658877E+04  0.00000000000E+00 0. -1.
         -1   -1    0    0    0  501 -0.00000000000E+00 -0.00000000000E+00 -0.93450250788E+02  0.93450250788E+02  0.00000000000E+00 0.  1.
         23    2    1    2    0    0 -0.66256826194E+02  0.15212576141E+03  0.21527978266E+03  0.28685331668E+03  0.91690927407E+02 0.  0.
         23    2    1    2    0    0  0.41774365332E+02 -0.23501105792E+03  0.98835382648E+03  0.10208562369E+04  0.91262671306E+02 0.  0.
        -13    1    4    4    0    0 -0.21279308784E+02 -0.12659642474E+03  0.55960259710E+03  0.57413807609E+03  0.00000000000E+00 0.  1.
         13    1    4    4    0    0  0.63053674116E+02 -0.10841463318E+03  0.42875122938E+03  0.44671816081E+03  0.00000000000E+00 0. -1.
        -13    1    3    3    0    0 -0.25528922664E+02 -0.44195740282E+01  0.17113262651E+02  0.31050318605E+02  0.00000000000E+00 0. -1.
         13    1    3    3    0    0 -0.40727903530E+02  0.15654533544E+03  0.19816652000E+03  0.25580299808E+03  0.00000000000E+00 0.  1.
         21    1    1    2  502  503 -0.36369723337E+01  0.24099552851E+02  0.65638615965E+02  0.70017454404E+02  0.00000000000E+00 0. -1.
         21    1    1    2  503  501  0.28119433195E+02  0.58785743654E+02 -0.12156588222E+02  0.66289130461E+02  0.00000000000E+00 0.  1.
<scales pt_clust_5="13000.00000" pt_clust_6="13000.00000" pt_clust_7="13000.00000" pt_clust_8="13000.00000" pt_clust_9="24.37244" pt_clust_10="65.59117"></scales>
<clustering>
<clus scale="   24.372">  1  9  2 -1</clus>
<clus scale="   65.591">  2 10  1 -1</clus>
<clus scale="   91.263">  5  6 -1 -1</clus>
<clus scale="   91.691">  7  8 -1 -1</clus>
<clus scale="  223.753">  1  5  2 -1</clus>
<clus scale="   24.372">  1  5  2 -1</clus>
</clustering>
</event>
<event>
10    2  0.2445576E-006  0.1392936E+03  0.7546771E-02  0.1214381E+00
          2   -1    0    0  502    0  0.00000000000E+00  0.00000000000E+00  0.65402248781E+03  0.65402248781E+03  0.00000000000E+00 0. -1.
         -2   -1    0    0    0  501 -0.00000000000E+00 -0.00000000000E+00 -0.51939564443E+02  0.51939564443E+02  0.00000000000E+00 0.  1.
         23    2    1    2    0    0  0.99268364582E+02 -0.76383958654E+02  0.25058178093E+03  0.29488931990E+03  0.92085637917E+02 0.  0.
         23    2    1    2    0    0 -0.31855149262E+02  0.90498727831E+02  0.24666380734E+03  0.28037169286E+03  0.92522873008E+02 0.  0.
        -11    1    3    3    0    0  0.40900486378E+02 -0.37419654962E+01  0.18982640917E+02  0.45245914157E+02  0.00000000000E+00 0.  1.
         11    1    3    3    0    0  0.58367878204E+02 -0.72641993157E+02  0.23159914001E+03  0.24964340574E+03  0.00000000000E+00 0. -1.
        -11    1    4    4    0    0 -0.98126752879E+01 -0.18154698144E+02  0.57776376845E+02  0.61351376368E+02  0.00000000000E+00 0.  1.
         11    1    4    4    0    0 -0.22042473974E+02  0.10865342597E+03  0.18888743050E+03  0.21902031649E+03  0.00000000000E+00 0. -1.
         21    1    1    2  502  503 -0.54775767728E+02  0.35690687819E+01  0.85527355264E+02  0.10162702141E+03  0.00000000000E+00 0.  1.
         21    1    1    2  503  501 -0.12637447592E+02 -0.17683837959E+02  0.19309979834E+02  0.29074018088E+02  0.00000000000E+00 0.  1.
<scales pt_clust_5="13000.00000" pt_clust_6="13000.00000" pt_clust_7="13000.00000" pt_clust_8="13000.00000" pt_clust_9="56.94017" pt_clust_10="21.73530"></scales>
<clustering>
<clus scale="   21.735">  2 10  1 -1</clus>
<clus scale="   56.940">  2  9  1 -1</clus>
<clus scale="   92.086">  5  6 -1 -1</clus>
<clus scale="   92.523">  7  8 -1 -1</clus>
<clus scale="  139.004">  2  5  1 -1</clus>
<clus scale="  139.294">  1  5  2 -1</clus>
</clustering>
</event>
<event>
10    2  0.2445576E-006  0.1787278E+03  0.7546771E-02  0.1169141E+00
         -1   -1    0    0    0  501 -0.00000000000E+00  0.00000000000E+00  0.40037064233E+03  0.40037064233E+03  0.00000000000E+00 0.  1.
          1   -1    0    0  502    0  0.00000000000E+00 -0.00000000000E+00 -0.29535416867E+03  0.29535416867E+03  0.00000000000E+00 0. -1.
         23    2    1    2    0    0 -0.38685925102E+02 -0.13058509496E+03  0.30521392571E+03  0.34669668758E+03  0.92162817365E+02 0.  0.
         23    2    1    2    0    0  0.95716217213E+02  0.14920660899E+03 -0.16868933758E+03  0.26120342427E+03  0.91361533647E+02 0.  0.
        -11    1    4    4    0    0  0.16195485247E+02  0.96796278523E+02 -0.11744813050E+03  0.15305514247E+03  0.00000000000E+00 0. -1.
         11    1    4    4    0    0  0.79520731967E+02  0.52410330468E+02 -0.51241207080E+02  0.10814828180E+03  0.00000000000E+00 0.  1.
        -11    1    3    3    0    0  0.59226972282E+01 -0.59866194415E+02  0.21686897624E+03  0.22505819788E+03  0.00000000000E+00 0.  1.
         11    1    3    3    0    0 -0.44608622331E+02 -0.70718900545E+02  0.88344949475E+02  0.12163848971E+03  0.00000000000E+00 0. -1.
         21    1    1    2  502  503 -0.40480693918E+02 -0.64626019515E+01 -0.46804232345E+02  0.62218067870E+02  0.00000000000E+00 0. -1.
         21    1    1    2  503  501 -0.16549598193E+02 -0.12158912079E+02  0.15296117880E+02  0.25606631279E+02  0.00000000000E+00 0.  1.
<scales pt_clust_5="13000.00000" pt_clust_6="13000.00000" pt_clust_7="13000.00000" pt_clust_8="13000.00000" pt_clust_9="41.36416" pt_clust_10="20.53603"></scales>
<clustering>
<clus scale="   20.536">  1 10  2 -1</clus>
<clus scale="   41.364">  2  9  1 -1</clus>
<clus scale="   91.362">  5  6 -1 -1</clus>
<clus scale="   92.163">  7  8 -1 -1</clus>
<clus scale="  178.316">  2  5  1 -1</clus>
<clus scale="   41.364">  2  5  1 -1</clus>
</clustering>
</event>
<event>
10    2  0.2445576E-006  0.2301604E+03  0.7546771E-02  0.1127632E+00
          1   -1    0    0  502    0  0.00000000000E+00  0.00000000000E+00  0.74954545842E+03  0.74954545842E+03  0.00000000000E+00 0. -1.
         -1   -1    0    0    0  501 -0.00000000000E+00 -0.00000000000E+00 -0.20449392117E+03  0.20449392117E+03  0.00000000000E+00 0.  1.
         23    2    1    2    0    0  0.93638870906E+02  0.17597638266E+03 -0.53475389186E+02  0.22578961587E+03  0.91571873326E+02 0.  0.
         23    2    1    2    0    0 -0.12218907769E+03 -0.19224579872E+03  0.27892262100E+03  0.37534659406E+03  0.10582352922E+03 0.  0.
        -13    1    4    4    0    0 -0.14127984073E+03 -0.17733621454E+03  0.24721349407E+03  0.33544394171E+03  0.00000000000E+00 0. -1.
         13    1    4    4    0    0  0.19090763035E+02 -0.14909584185E+02  0.31709126927E+02  0.39902652347E+02  0.00000000000E+00 0.  1.
        -13    1    3    3    0    0  0.26191295904E+02  0.79522877444E+02  0.21244569294E+02  0.86378259664E+02  0.00000000000E+00 0. -1.
         13    1    3    3    0    0  0.67447575003E+02  0.96453505220E+02 -0.74719958480E+02  0.13941135620E+03  0.00000000000E+00 0.  1.
         21    1    1    2  502  503 -0.21487401542E+01  0.39081477938E+02  0.31131830271E+03  0.31376912627E+03  0.00000000000E+00 0. -1.
         21    1    1    2  503  501  0.30698946940E+02 -0.22812061878E+02  0.82860027377E+01  0.39134043386E+02  0.00000000000E+00 0. -1.
<scales pt_clust_5="13000.00000" pt_clust_6="13000.00000" pt_clust_7="13000.00000" pt_clust_8="13000.00000" pt_clust_9="38.98242" pt_clust_10="38.24677"></scales>
<clustering>
<clus scale="   38.247">  2 10  1 -1</clus>
<clus scale="   38.982">  1  9  2 -1</clus>
<clus scale="   91.572">  7  8 -1 -1</clus>
<clus scale="  105.824">  5  6 -1 -1</clus>
<clus scale="  223.966">  2  7  1 -1</clus>
<clus scale="   38.982">  1  5  2 -1</clus>
</clustering>
</event>
<event>
10    2  0.2445576E-006  0.1370366E+03  0.7546771E-02  0.1225857E+00
         -1   -1    0    0    0  501 -0.00000000000E+00  0.00000000000E+00  0.12541145779E+03  0.12541145779E+03  0.00000000000E+00 0.  1.
          1   -1    0    0  502    0  0.00000000000E+00 -0.00000000000E+00 -0.37111770512E+03  0.37111770512E+03  0.00000000000E+00 0. -1.
         23    2    1    2    0    0 -0.25391342279E+02 -0.96554944847E+02  0.16752182844E+02  0.13528832147E+03  0.89748073294E+02 0.  0.
         23    2    1    2    0    0 -0.34741224453E+02  0.26303083709E+02 -0.15870862362E+03  0.20188616059E+03  0.11692215247E+03 0.  0.
        -11    1    4    4    0    0 -0.53888976502E+02  0.46308103744E+02 -0.15904245624E+03  0.17419232230E+03  0.00000000000E+00 0. -1.
         11    1    4    4    0    0  0.19147752049E+02 -0.20005020035E+02  0.33383262358E+00  0.27693838292E+02  0.00000000000E+00 0.  1.
        -11    1    3    3    0    0 -0.29488961889E+02 -0.68914023957E+02 -0.30067697770E+02  0.80763902955E+02  0.00000000000E+00 0. -1.
         11    1    3    3    0    0  0.40976196096E+01 -0.27640920889E+02  0.46819880615E+02  0.54524418519E+02  0.00000000000E+00 0.  1.
         21    1    1    2  502  503  0.30335910396E+02  0.54804405872E+02 -0.10867199440E+03  0.12543282158E+03  0.00000000000E+00 0. -1.
         21    1    1    2  503  501  0.29796656336E+02  0.15447455266E+02  0.49221878505E+01  0.33921859268E+02  0.00000000000E+00 0.  1.
<scales pt_clust_5="13000.00000" pt_clust_6="13000.00000" pt_clust_7="13000.00000" pt_clust_8="13000.00000" pt_clust_9="64.86641" pt_clust_10="33.56285"></scales>
<clustering>
<clus scale="   33.563">  1 10  2 -1</clus>
<clus scale="   64.866">  2  9  1 -1</clus>
<clus scale="   89.748">  7  8 -1 -1</clus>
<clus scale="  114.730">  1  7  2 -1</clus>
<clus scale="  116.922">  5  6 -1 -1</clus>
<clus scale="   64.866">  2  5  1 -1</clus>
</clustering>
</event>
<event>
10    2  0.2445576E-006  0.1161460E+03  0.7546771E-02  0.1249609E+00
          2   -1    0    0  503    0  0.00000000000E+00  0.00000000000E+00  0.46281516394E+03  0.46281516394E+03  0.00000000000E+00 0. -1.
         -2   -1    0    0    0  501 -0.00000000000E+00 -0.00000000000E+00 -0.10400264066E+03  0.10400264066E+03  0.00000000000E+00 0.  1.
         23    2    1    2    0    0 -0.33564539641E+02  0.42318890312E+01  0.24436025263E+02  0.10195394344E+03  0.93021503139E+02 0.  0.
         23    2    1    2    0    0  0.78807504732E+02 -0.94034241378E+00  0.35872910995E+03  0.37889242876E+03  0.93066595501E+02 0.  0.
        -11    1    3    3    0    0 -0.13756781913E+02  0.18704857491E+02 -0.32509053363E+02  0.39949459232E+02  0.00000000000E+00 0.  1.
         11    1    3    3    0    0 -0.19807757728E+02 -0.14472968460E+02  0.56945078626E+02  0.62004484209E+02  0.00000000000E+00 0. -1.
        -11    1    4    4    0    0  0.79293644167E+02 -0.35283984121E+02  0.27575103537E+03  0.28908662205E+03  0.00000000000E+00 0. -1.
         11    1    4    4    0    0 -0.48613943505E+00  0.34343641708E+02  0.82978074578E+02  0.89805806706E+02  0.00000000000E+00 0.  1.
         21    1    1    2  502  501 -0.92349975823E+01 -0.20838646447E+02  0.16973312647E+02  0.28418791465E+02  0.00000000000E+00 0. -1.
         21    1    1    2  503  502 -0.36007967509E+02  0.17547099829E+02 -0.41325924579E+02  0.57552640937E+02  0.00000000000E+00 0.  1.
<scales pt_clust_5="13000.00000" pt_clust_6="13000.00000" pt_clust_7="13000.00000" pt_clust_8="13000.00000" pt_clust_9="22.79330" pt_clust_10="41.26281"></scales>
<clustering>
<clus scale="   22.793">  2  9  1 -1</clus>
<clus scale="   41.263">  2 10  1 -1</clus>
<clus scale="   93.022">  5  6 -1 -1</clus>
<clus scale="   93.067">  7  8 -1 -1</clus>
<clus scale="  116.110">  2  5  1 -1</clus>
<clus scale="  116.146">  1  5  2 -1</clus>
</clustering>
</event>
<event>
10    2  0.2445576E-006  0.1643904E+03  0.7546771E-02  0.1185969E+00
         -3   -1    0    0    0  501 -0.00000000000E+00  0.00000000000E+00  0.29361317184E+03  0.29361317184E+03  0.00000000000E+00 0.  1.
          3   -1    0    0  502    0  0.00000000000E+00 -0.00000000000E+00 -0.14908201107E+03  0.14908201107E+03  0.00000000000E+00 0. -1.
         23    2    1    2    0    0 -0.10523497924E+03  0.29049807361E+02  0.10189314238E+03  0.18586947299E+03  0.11066596750E+03 0.  0.
         23    2    1    2    0    0  0.13667085519E+03  0.77968308338E+01  0.64065723356E+02  0.18063938234E+03  0.98926519762E+02 0.  0.
        -11    1    3    3    0    0 -0.58493931708E+02 -0.27749237600E+02  0.60099260586E+01  0.65020607850E+02  0.00000000000E+00 0. -1.
         11    1    3    3    0    0 -0.46741047530E+02  0.56799044961E+02  0.95883216326E+02  0.12084886514E+03  0.00000000000E+00 0.  1.
        -13    1    4    4    0    0  0.31734421889E+02 -0.38737247313E+02  0.19382614070E+01  0.50113917421E+02  0.00000000000E+00 0.  1.
         13    1    4    4    0    0  0.10493643330E+03  0.46534078147E+02  0.62127461949E+02  0.13052546492E+03  0.00000000000E+00 0. -1.
         21    1    1    2  502  503 -0.14065028170E+02 -0.19811416189E+02 -0.39156690868E+02  0.46082140451E+02  0.00000000000E+00 0. -1.
         21    1    1    2  503  501 -0.17370847784E+02 -0.17035222006E+02  0.17728985899E+02  0.30104187126E+02  0.00000000000E+00 0. -1.
<scales pt_clust_5="13000.00000" pt_clust_6="13000.00000" pt_clust_7="13000.00000" pt_clust_8="13000.00000" pt_clust_9="24.29644" pt_clust_10="25.72099"></scales>
<clustering>
<clus scale="   24.296">  2  9  1 -1</clus>
<clus scale="   25.721">  1 10  2 -1</clus>
<clus scale="   98.927">  7  8 -1 -1</clus>
<clus scale="  110.666">  5  6 -1 -1</clus>
<clus scale="  156.728">  2  7  1 -1</clus>
<clus scale="   24.296">  2  5  1 -1</clus>
</clustering>
</event>
<event>
10    2  0.2445576E-006  0.1847907E+03  0.7546771E-02  0.1164220E+00
          1   -1    0    0  502    0  0.00000000000E+00  0.00000000000E+00  0.12098059008E+04  0.12098059008E+04  0.00000000000E+00 0. -1.
         -1   -1    0    0    0  501 -0.00000000000E+00 -0.00000000000E+00 -0.43881372721E+02  0.43881372721E+02  0.00000000000E+00 0.  1.
         23    2    1    2    0    0 -0.11048671987E+03 -0.10599014849E+03  0.46817799923E+03  0.50248518078E+03  0.99294970158E+02 0.  0.
         23    2    1    2    0    0  0.57726364483E+02  0.15647313652E+03  0.50174363058E+03  0.53657981751E+03  0.91405985120E+02 0.  0.
        -11    1    3    3    0    0 -0.33083989196E+02  0.88566398253E+01  0.17397213676E+03  0.17731129344E+03  0.00000000000E+00 0. -1.
         11    1    3    3    0    0 -0.77402730670E+02 -0.11484678832E+03  0.29420586247E+03  0.32517388735E+03  0.00000000000E+00 0.  1.
        -13    1    4    4    0    0  0.36160588603E+02  0.52746416926E+01  0.77537372982E+02  0.85717292433E+02  0.00000000000E+00 0.  1.
         13    1    4    4    0    0  0.21565775880E+02  0.15119849483E+03  0.42420625760E+03  0.45086252507E+03  0.00000000000E+00 0. -1.
         21    1    1    2  502  503  0.37419405240E+02 -0.30537206813E+02  0.17591375075E+03  0.18242362948E+03  0.00000000000E+00 0.  1.
         21    1    1    2  503  501  0.15340950143E+02 -0.19945781219E+02  0.20089147482E+02  0.32198645721E+02  0.00000000000E+00 0.  1.
<scales pt_clust_5="13000.00000" pt_clust_6="13000.00000" pt_clust_7="13000.00000" pt_clust_8="13000.00000" pt_clust_9="50.40870" pt_clust_10="25.16305"></scales>
<clustering>
<clus scale="   25.163">  2 10  1 -1</clus>
<clus scale="   50.409">  1  9  2 -1</clus>
<clus scale="   91.406">  7  8 -1 -1</clus>
<clus scale="   99.295">  5  6 -1 -1</clus>
<clus scale="  180.674">  1  7  2 -1</clus>
<clus scale="   50.409">  1  5  2 -1</clus>
</clustering>
</event>
